<event>
12    1  0.1066489E+000  0.2087142E+03  0.7818608E-02  0.1142777E+00
         21   -1    0    0  501  502  0.00000000000E+00  0.00000000000E+00  0.81345474470E+02  0.81345474470E+02  0.00000000000E+00 0. -1.
         21   -1    0    0  502  503 -0.00000000000E+00 -0.00000000000E+00 -0.53416098591E+03  0.53416098591E+03  0.00000000000E+00 0. -1.
         -6    2    1    2    0  503  0.14238470017E+02  0.11568208615E+03 -0.23961361717E+03  0.31714982925E+03  0.17200072551E+03 0.  0.
        -24    2    3    3    0    0  0.71683200470E+02  0.50605811763E+02 -0.11991535292E+03  0.16921544173E+03  0.80961376231E+02 0.  0.
          6    2    1    2  501    0 -0.14238470017E+02 -0.11568208615E+03 -0.21320189427E+03  0.29835663113E+03  0.17313738052E+03 0.  0.
         24    2    5    5    0    0 -0.62933792362E+02 -0.12213710120E+03 -0.17014291719E+03  0.23286566118E+03  0.79997938584E+02 0.  0.
          5    1    5    5  501    0  0.48695322345E+02  0.64550150436E+01 -0.43058977077E+02  0.65490969946E+02  0.47000000000E+01 0. -1.
        -13    1    6    6    0    0 -0.48773819815E+02 -0.72246860281E+02 -0.46521202250E+02  0.98806460207E+02  0.00000000000E+00 0.  1.
         14    1    6    6    0    0 -0.14159972547E+02 -0.49890240916E+02 -0.12362171494E+03  0.13405920098E+03  0.00000000000E+00 0. -1.
         -5    1    3    3    0  503 -0.57444730453E+02  0.65076274391E+02 -0.11969826425E+03  0.14793438752E+03  0.47000000000E+01 0.  1.
         11    1    4    4    0    0  0.24193048516E+02 -0.21034800445E+02 -0.21758567215E+02  0.38745343895E+02  0.00000000000E+00 0. -1.
        -12    1    4    4    0    0  0.47490151954E+02  0.71640612208E+02 -0.98156785701E+02  0.13047009784E+03  0.00000000000E+00 0.  1.
</event>
<event>
12    1  0.1066489E+000  0.2353615E+03  0.7818608E-02  0.1123908E+00
         21   -1    0    0  501  502  0.00000000000E+00  0.00000000000E+00  0.11620234744E+04  0.11620234744E+04  0.00000000000E+00 0.  1.
         21   -1    0    0  502  503 -0.00000000000E+00 -0.00000000000E+00 -0.49921717245E+02  0.49921717245E+02  0.00000000000E+00 0.  1.
         -6    2    1    2    0  503 -0.15377391277E+03 -0.11656198360E+02  0.72047262461E+03  0.75794185152E+03  0.17779978701E+03 0.  0.
        -24    2    3    3    0    0 -0.15624686346E+03 -0.58921926611E+02  0.50769238496E+03  0.53991046631E+03  0.76595548833E+02 0.  0.
          6    2    1    2  501    0  0.15377391277E+03  0.11656198360E+02  0.39162913252E+03  0.45400334010E+03  0.17018628669E+03 0.  0.
         24    2    5    5    0    0  0.29416558929E+02  0.48339240550E+02  0.19444625129E+03  0.21796610641E+03  0.80609321961E+02 0.  0.
          5    1    5    5  501    0  0.12435735384E+03 -0.36683042190E+02  0.19718288123E+03  0.23603723369E+03  0.47000000000E+01 0. -1.
        -11    1    6    6    0    0  0.40019595023E+02  0.37059794360E+02  0.54288705815E+02  0.76956220820E+02  0.00000000000E+00 0.  1.
         12    1    6    6    0    0 -0.10603036094E+02  0.11279446190E+02  0.14015754548E+03  0.14100988559E+03  0.00000000000E+00 0. -1.
         -5    1    3    3    0  503  0.24729506934E+01  0.47265728251E+02  0.21278023965E+03  0.21803138521E+03  0.47000000000E+01 0.  1.
         13    1    4    4    0    0 -0.50148018552E+02  0.13867284596E+02  0.19399264055E+03  0.20084887337E+03  0.00000000000E+00 0. -1.
        -14    1    4    4    0    0 -0.10609884491E+03 -0.72789211208E+02  0.31369974441E+03  0.33906159293E+03  0.00000000000E+00 0.  1.
</event>
<event>
12    1  0.1066489E+000  0.2209222E+03  0.7818608E-02  0.1133298E+00
         21   -1    0    0  503  502  0.00000000000E+00  0.00000000000E+00  0.33189239657E+03  0.33189239657E+03  0.00000000000E+00 0. -1.
         21   -1    0    0  501  503 -0.00000000000E+00 -0.00000000000E+00 -0.32374002886E+03  0.32374002886E+03  0.00000000000E+00 0. -1.
          6    2    1    2  501    0 -0.11276028138E+03 -0.80281217249E+02 -0.23834501386E+03  0.32498453388E+03  0.17218201628E+03 0.  0.
         24    2    3    3    0    0 -0.56221981171E+02 -0.11541929101E+03 -0.16075076974E+03  0.22264089540E+03  0.85121292453E+02 0.  0.
         -6    2    1    2    0  502  0.11276028138E+03  0.80281217249E+02  0.24649738157E+03  0.33064789155E+03  0.17148502607E+03 0.  0.
        -24    2    5    5    0    0  0.31468357092E+02 -0.11846535271E+02  0.15377656340E+03  0.17665068423E+03  0.80172532034E+02 0.  0.
          5    1    3    3  501    0 -0.56538300208E+02  0.35138073756E+02 -0.77594244124E+02  0.10234363849E+03  0.47000000000E+01 0. -1.
        -11    1    4    4    0    0  0.15772501670E+02 -0.62457569754E+02 -0.61183972492E+02  0.88843673486E+02  0.00000000000E+00 0.  1.
         12    1    4    4    0    0 -0.71994482841E+02 -0.52961721251E+02 -0.99566797244E+02  0.13379722191E+03  0.00000000000E+00 0. -1.
         -5    1    5    5    0  502  0.81291924287E+02  0.92127752520E+02  0.92720818169E+02  0.15399720731E+03  0.47000000000E+01 0.  1.
         11    1    6    6    0    0  0.25646652195E+02 -0.20113574965E+02  0.12336420222E+02  0.34849590107E+02  0.00000000000E+00 0. -1.
        -12    1    6    6    0    0  0.58217048966E+01  0.82670396941E+01  0.14144014318E+03  0.14180109412E+03  0.00000000000E+00 0.  1.
</event>
<event>
12    1  0.1066489E+000  0.2842689E+03  0.7818608E-02  0.1093534E+00
         21   -1    0    0  503  502  0.00000000000E+00  0.00000000000E+00  0.10290444826E+04  0.10290444826E+04  0.00000000000E+00 0.  1.
         21   -1    0    0  501  503 -0.00000000000E+00 -0.00000000000E+00 -0.78211328398E+02  0.78211328398E+02  0.00000000000E+00 0.  1.
          6    2    1    2  501    0  0.18384880400E+03  0.12960029574E+03  0.47391683353E+03  0.55204595895E+03  0.17193299946E+03 0.  0.
         24    2    3    3    0    0  0.25902111689E+02  0.22272811861E+02  0.10034808362E+03  0.13247230950E+03  0.79449212448E+02 0.  0.
         -6    2    1    2    0  502 -0.18384880400E+03 -0.12960029574E+03  0.47691632071E+03  0.55520985209E+03  0.17381652253E+03 0.  0.
        -24    2    5    5    0    0 -0.70953210159E+02  0.21811500890E+01  0.21988847776E+03  0.24505317132E+03  0.81614941479E+02 0.  0.
          5    1    3    3  501    0  0.15794669231E+03  0.10732748388E+03  0.37356874991E+03  0.41957364945E+03  0.47000000000E+01 0. -1.
        -11    1    4    4    0    0  0.30174935143E+02 -0.24836674495E+02  0.48540901349E+02  0.62318586431E+02  0.00000000000E+00 0.  1.
         12    1    4    4    0    0 -0.42728234543E+01  0.47109486356E+02  0.51807182272E+02  0.70153723065E+02  0.00000000000E+00 0. -1.
         -5    1    5    5    0  502 -0.11289559384E+03 -0.13178144583E+03  0.25702784295E+03  0.31015668077E+03  0.47000000000E+01 0.  1.
         11    1    6    6    0    0 -0.38060280968E+02  0.59229973717E+00  0.21032966025E+02  0.43489325888E+02  0.00000000000E+00 0. -1.
        -12    1    6    6    0    0 -0.32892929191E+02  0.15888503519E+01  0.19885551174E+03  0.20156384543E+03  0.00000000000E+00 0.  1.
</event>
<event>
12    1  0.1066489E+000  0.1827285E+03  0.7818608E-02  0.1167959E+00
         21   -1    0    0  503  502  0.00000000000E+00  0.00000000000E+00  0.16228920279E+04  0.16228920279E+04  0.00000000000E+00 0.  1.
         21   -1    0    0  501  503 -0.00000000000E+00 -0.00000000000E+00 -0.27795954320E+02  0.27795954320E+02  0.00000000000E+00 0.  1.
          6    2    1    2  501    0  0.11166298611E+01  0.60656927992E+02  0.12354022982E+04  0.12472411697E+04  0.16034708396E+03 0.  0.
         24    2    3    3    0    0  0.24625655281E+02  0.86377965914E+02  0.11245488303E+04  0.11309448782E+04  0.79741269373E+02 0.  0.
         -6    2    1    2    0  502 -0.11166298611E+01 -0.60656927992E+02  0.35969377543E+03  0.40344681252E+03  0.17236359441E+03 0.  0.
        -24    2    5    5    0    0 -0.47400593445E+02 -0.79060318490E+02  0.30912167125E+03  0.33230949610E+03  0.79850130512E+02 0.  0.
          5    1    3    3  501    0 -0.23509025420E+02 -0.25721037922E+02  0.11085346792E+03  0.11629629151E+03  0.47000000000E+01 0. -1.
        -13    1    4    4    0    0 -0.72212929417E+00 -0.15204058966E+02  0.16535825639E+03  0.16605733298E+03  0.00000000000E+00 0.  1.
         14    1    4    4    0    0  0.25347784575E+02  0.10158202488E+03  0.95919057388E+03  0.96488754525E+03  0.00000000000E+00 0. -1.
         -5    1    5    5    0  502  0.46283963584E+02  0.18403390498E+02  0.50572104184E+02  0.71137316427E+02  0.47000000000E+01 0.  1.
         11    1    6    6    0    0 -0.11351994787E+02 -0.84620400122E+02  0.21022542505E+03  0.22690132049E+03  0.00000000000E+00 0. -1.
        -12    1    6    6    0    0 -0.36048598658E+02  0.55600816322E+01  0.98896246192E+02  0.10540817560E+03  0.00000000000E+00 0.  1.
</event>
<event>
12    1  0.1066489E+000  0.2985860E+03  0.7818608E-02  0.1086580E+00
         21   -1    0    0  503  502  0.00000000000E+00  0.00000000000E+00  0.19630308055E+03  0.19630308055E+03  0.00000000000E+00 0.  1.
         21   -1    0    0  501  503 -0.00000000000E+00 -0.00000000000E+00 -0.49555761749E+03  0.49555761749E+03  0.00000000000E+00 0.  1.
          6    2    1    2  501    0  0.23426904707E+03  0.53456259521E+02 -0.25717843586E+03  0.39032463242E+03  0.16873948176E+03 0.  0.
         24    2    3    3    0    0  0.99960348250E+02 -0.24217340878E+02 -0.17100728472E+03  0.21278710943E+03  0.73866851116E+02 0.  0.
         -6    2    1    2    0  502 -0.23426904707E+03 -0.53456259521E+02 -0.42076101081E+02  0.30153606562E+03  0.17724007021E+03 0.  0.
        -24    2    5    5    0    0 -0.17747247450E+03 -0.17589544933E+02  0.35918077805E+02  0.19849503587E+03  0.79399619997E+02 0.  0.
          5    1    3    3  501    0  0.13430869882E+03  0.77673600399E+02 -0.86171151140E+02  0.17753752298E+03  0.47000000000E+01 0. -1.
        -13    1    4    4    0    0  0.31628943336E+02 -0.30517131508E+02 -0.22908416685E+02  0.49562898695E+02  0.00000000000E+00 0.  1.
         14    1    4    4    0    0  0.68331404914E+02  0.62997906295E+01 -0.14809886803E+03  0.16322421074E+03  0.00000000000E+00 0. -1.
         -5    1    5    5    0  502 -0.56796572575E+02 -0.35866714589E+02 -0.77994178886E+02  0.10304102975E+03  0.47000000000E+01 0.  1.
         11    1    6    6    0    0 -0.63318790760E+02  0.30379787274E+02  0.26445376226E+01  0.70279401800E+02  0.00000000000E+00 0. -1.
        -12    1    6    6    0    0 -0.11415368374E+03 -0.47969332206E+02  0.33273540182E+02  0.12821563407E+03  0.00000000000E+00 0.  1.
</event>
<event>
12    1  0.1066489E+000  0.4231121E+03  0.7818608E-02  0.1036104E+00
         21   -1    0    0  501  502  0.00000000000E+00  0.00000000000E+00  0.81508331922E+03  0.81508331922E+03  0.00000000000E+00 0.  1.
         21   -1    0    0  502  503 -0.00000000000E+00 -0.00000000000E+00 -0.21971739841E+03  0.21971739841E+03  0.00000000000E+00 0.  1.
         -6    2    1    2    0  503  0.18611184452E+03  0.33875444531E+03  0.31880468957E+03  0.52932075505E+03  0.17073909555E+03 0.  0.
        -24    2    3    3    0    0  0.12193817591E+03  0.26823104042E+03  0.30743262207E+03  0.43317906639E+03  0.79451095983E+02 0.  0.
          6    2    1    2  501    0 -0.18611184452E+03 -0.33875444531E+03  0.27656123124E+03  0.50547996259E+03  0.17213856357E+03 0.  0.
         24    2    5    5    0    0 -0.14935277973E+03 -0.23204608552E+03  0.26754681944E+03  0.39216071218E+03  0.77827276520E+02 0.  0.
          5    1    5    5  501    0 -0.36759064787E+02 -0.10670835979E+03  0.90144118068E+01  0.11331925041E+03  0.47000000000E+01 0. -1.
        -13    1    6    6    0    0 -0.95413954180E+02 -0.79890784158E+02  0.13146923878E+03  0.18102629862E+03  0.00000000000E+00 0.  1.
         14    1    6    6    0    0 -0.53938825551E+02 -0.15215530136E+03  0.13607758066E+03  0.21113441357E+03  0.00000000000E+00 0. -1.
         -5    1    3    3    0  503  0.64173668607E+02  0.70523404885E+02  0.11372067494E+02  0.96141688659E+02  0.47000000000E+01 0.  1.
         13    1    4    4    0    0 -0.77231191422E+01  0.42625430564E+02  0.60829283985E+02  0.74677812569E+02  0.00000000000E+00 0. -1.
        -14    1    4    4    0    0  0.12966129505E+03  0.22560560986E+03  0.24660333809E+03  0.35850125382E+03  0.00000000000E+00 0.  1.
</event>
<event>
12    1  0.1066489E+000  0.2477200E+03  0.7818608E-02  0.1115033E+00
         21   -1    0    0  501  502  0.00000000000E+00  0.00000000000E+00  0.19198173784E+03  0.19198173784E+03  0.00000000000E+00 0.  1.
         21   -1    0    0  502  503 -0.00000000000E+00 -0.00000000000E+00 -0.45570226861E+03  0.45570226861E+03  0.00000000000E+00 0.  1.
         -6    2    1    2    0  503  0.16020978257E+03  0.73740004610E+02  0.46867600891E+02  0.25040556196E+03  0.17146897894E+03 0.  0.
        -24    2    3    3    0    0  0.18655470283E+03  0.60372659350E+02  0.55941751737E+02  0.21914582817E+03  0.80298812381E+02 0.  0.
          6    2    1    2  501    0 -0.16020978257E+03 -0.73740004610E+02 -0.31058813166E+03  0.39727844449E+03  0.17395520174E+03 0.  0.
         24    2    5    5    0    0 -0.60863578450E+02 -0.99991246448E+02 -0.15836367880E+03  0.21355808628E+03  0.82615839307E+02 0.  0.
          5    1    5    5  501    0 -0.99346204116E+02  0.26251241837E+02 -0.15222445286E+03  0.18372035821E+03  0.47000000000E+01 0. -1.
        -11    1    6    6    0    0 -0.52198012404E+02 -0.42620776007E+02 -0.13523883124E+03  0.15109832733E+03  0.00000000000E+00 0.  1.
         12    1    6    6    0    0 -0.86655660467E+01 -0.57370470440E+02 -0.23124847559E+02  0.62459758950E+02  0.00000000000E+00 0. -1.
         -5    1    3    3    0  503 -0.26344920268E+02  0.13367345261E+02 -0.90741508468E+01  0.31259733793E+02  0.47000000000E+01 0.  1.
         13    1    4    4    0    0  0.42184697367E+02  0.44927675333E+02 -0.46777020133E+01  0.61805546668E+02  0.00000000000E+00 0. -1.
        -14    1    4    4    0    0  0.14437000547E+03  0.15444984017E+02  0.60619453751E+02  0.15734028150E+03  0.00000000000E+00 0.  1.
</event>
<event>
12    1  0.1066489E+000  0.1782692E+03  0.7818608E-02  0.1169536E+00
         21   -1    0    0  501  502  0.00000000000E+00  0.00000000000E+00  0.97373072328E+03  0.97373072328E+03  0.00000000000E+00 0.  1.
         21   -1    0    0  502  503 -0.00000000000E+00 -0.00000000000E+00 -0.38040487367E+02  0.38040487367E+02  0.00000000000E+00 0.  1.
         -6    2    1    2    0  503 -0.87709652621E+01  0.45622487598E+02  0.27635525536E+03  0.32876131233E+03  0.17191111690E+03 0.  0.
        -24    2    3    3    0    0 -0.58291414352E+02  0.12341325930E+02  0.96880245544E+02  0.13957019270E+03  0.80894124633E+02 0.  0.
          6    2    1    2  501    0  0.87709652621E+01 -0.45622487598E+02  0.65933498056E+03  0.68300989832E+03  0.17210916132E+03 0.  0.
         24    2    5    5    0    0  0.75855884748E+01  0.42102412690E+02  0.34441140873E+03  0.35606034664E+03  0.79558768726E+02 0.  0.
          5    1    5    5  501    0  0.11853767873E+01 -0.87724900288E+02  0.31492357183E+03  0.32694955168E+03  0.47000000000E+01 0. -1.
        -13    1    6    6    0    0  0.41855482552E+02  0.29587436515E+02  0.24132267507E+03  0.24670616393E+03  0.00000000000E+00 0.  1.
         14    1    6    6    0    0 -0.34269894077E+02  0.12514976175E+02  0.10308873366E+03  0.10935418271E+03  0.00000000000E+00 0. -1.
         -5    1    3    3    0  503  0.49520449090E+02  0.33281161669E+02  0.17947500981E+03  0.18919111963E+03  0.47000000000E+01 0.  1.
         13    1    4    4    0    0 -0.42546602686E+02  0.79699892926E+01  0.11025894351E+03  0.11845154602E+03  0.00000000000E+00 0. -1.
        -14    1    4    4    0    0 -0.15744811666E+02  0.43713366371E+01 -0.13378697967E+02  0.21118646682E+02  0.00000000000E+00 0.  1.
</event>
<event>
12    1  0.1066489E+000  0.1783126E+03  0.7818608E-02  0.1169955E+00
         21   -1    0    0  501  502  0.00000000000E+00  0.00000000000E+00  0.14689116384E+03  0.14689116384E+03  0.00000000000E+00 0.  1.
         21   -1    0    0  502  503 -0.00000000000E+00 -0.00000000000E+00 -0.35348133222E+03  0.35348133222E+03  0.00000000000E+00 0.  1.
         -6    2    1    2    0  503 -0.26432625562E+02  0.40678194905E+02  0.53521904093E+02  0.18617192705E+03  0.17158669229E+03 0.  0.
        -24    2    3    3    0    0  0.69456160620E+01  0.48430883413E+02  0.94088552661E+02  0.13286194516E+03  0.80036545901E+02 0.  0.
          6    2    1    2  501    0  0.26432625562E+02 -0.40678194905E+02 -0.26011207247E+03  0.31420056901E+03  0.16944116409E+03 0.  0.
         24    2    5    5    0    0  0.33227971791E+02  0.37322213182E+02 -0.18424170325E+03  0.20507383847E+03  0.74921480934E+02 0.  0.
          5    1    5    5  501    0 -0.67953462296E+01 -0.78000408087E+02 -0.75870369220E+02  0.10912673054E+03  0.47000000000E+01 0. -1.
        -11    1    6    6    0    0  0.45632968512E+02  0.15296050962E+02 -0.53717645070E+02  0.72124353599E+02  0.00000000000E+00 0.  1.
         12    1    6    6    0    0 -0.12404996721E+02  0.22026162220E+02 -0.13052405818E+03  0.13294948488E+03  0.00000000000E+00 0. -1.
         -5    1    3    3    0  503 -0.33378241624E+02 -0.77526885082E+01 -0.40566648568E+02  0.53309981889E+02  0.47000000000E+01 0.  1.
         11    1    4    4    0    0  0.37792490146E+02  0.35140862406E+01  0.27770858814E+02  0.47030221271E+02  0.00000000000E+00 0. -1.
        -12    1    4    4    0    0 -0.30846874084E+02  0.44916797173E+02  0.66317693847E+02  0.85831723891E+02  0.00000000000E+00 0.  1.
</event>
<event>
12    1  0.1066489E+000  0.2335369E+03  0.7818608E-02  0.1124338E+00
         21   -1    0    0  501  502  0.00000000000E+00  0.00000000000E+00  0.14592246918E+04  0.14592246918E+04  0.00000000000E+00 0. -1.
         21   -1    0    0  502  503 -0.00000000000E+00 -0.00000000000E+00 -0.47593930689E+02  0.47593930689E+02  0.00000000000E+00 0.  1.
         -6    2    1    2    0  503 -0.81621102629E+02 -0.13492470762E+03  0.35527424788E+03  0.42515792049E+03  0.17225790265E+03 0.  0.
        -24    2    3    3    0    0  0.75013535517E+01 -0.10541363759E+03  0.15225760258E+03  0.20143585247E+03  0.78903230739E+02 0.  0.
          6    2    1    2  501    0  0.81621102629E+02  0.13492470762E+03  0.10563565132E+04  0.10816607020E+04  0.17097985288E+03 0.  0.
         24    2    5    5    0    0  0.38294873231E+02 -0.34124812528E+01  0.46551916766E+03  0.47328154482E+03  0.76217995641E+02 0.  0.
          5    1    5    5  501    0  0.43326229398E+02  0.13833718887E+03  0.59083734555E+03  0.60837915716E+03  0.47000000000E+01 0. -1.
        -13    1    6    6    0    0  0.29653905120E+01  0.33282664903E+02  0.14997150235E+03  0.15364888818E+03  0.00000000000E+00 0.  1.
         14    1    6    6    0    0  0.35329482719E+02 -0.36695146156E+02  0.31554766532E+03  0.31963265663E+03  0.00000000000E+00 0. -1.
         -5    1    3    3    0  503 -0.89122456180E+02 -0.29511070032E+02  0.20301664530E+03  0.22372206802E+03  0.47000000000E+01 0.  1.
         13    1    4    4    0    0 -0.33957573566E+02 -0.66615725984E+02  0.79394697918E+02  0.10906094538E+03  0.00000000000E+00 0. -1.
        -14    1    4    4    0    0  0.41458927117E+02 -0.38797911604E+02  0.72862904667E+02  0.92374907085E+02  0.00000000000E+00 0.  1.
</event>
<event>
12    1  0.1066489E+000  0.2967978E+03  0.7818608E-02  0.1086960E+00
         21   -1    0    0  501  502  0.00000000000E+00  0.00000000000E+00  0.15590736261E+03  0.15590736261E+03  0.00000000000E+00 0.  1.
         21   -1    0    0  502  503 -0.00000000000E+00 -0.00000000000E+00 -0.68184069120E+03  0.68184069120E+03  0.00000000000E+00 0. -1.
         -6    2    1    2    0  503  0.22001875145E+03  0.99322629518E+02 -0.88074836044E+02  0.30877832098E+03  0.17121226310E+03 0.  0.
        -24    2    3    3    0    0  0.15876319463E+03  0.98012643289E+02 -0.20868218098E+01  0.20309015751E+03  0.80181213750E+02 0.  0.
          6    2    1    2  501    0 -0.22001875145E+03 -0.99322629518E+02 -0.43785849254E+03  0.52896973282E+03  0.17267218371E+03 0.  0.
         24    2    5    5    0    0 -0.24099252836E+03 -0.99207619142E+02 -0.38096699709E+03  0.46815324822E+03  0.78179668240E+02 0.  0.
          5    1    5    5  501    0  0.20973776902E+02 -0.11501037646E+00 -0.56891495456E+02  0.60816484608E+02  0.47000000000E+01 0. -1.
        -13    1    6    6    0    0 -0.73026145198E+02 -0.65482238590E+02 -0.10813646167E+03  0.14599395808E+03  0.00000000000E+00 0.  1.
         14    1    6    6    0    0 -0.16796638316E+03 -0.33725380551E+02 -0.27283053542E+03  0.32215929014E+03  0.00000000000E+00 0. -1.
         -5    1    3    3    0  503  0.61255556827E+02  0.13099862292E+01 -0.85988014234E+02  0.10568816347E+03  0.47000000000E+01 0.  1.
         13    1    4    4    0    0  0.41741130350E+02  0.71935610564E+02  0.48447397202E+00  0.83170239540E+02  0.00000000000E+00 0. -1.
        -14    1    4    4    0    0  0.11702206428E+03  0.26077032725E+02 -0.25712957818E+01  0.11991991797E+03  0.00000000000E+00 0.  1.
</event>
<event>
12    1  0.1066489E+000  0.3707293E+03  0.7818608E-02  0.1054416E+00
         21   -1    0    0  501  502  0.00000000000E+00  0.00000000000E+00  0.11094958186E+03  0.11094958186E+03  0.00000000000E+00 0. -1.
         21   -1    0    0  502  503 -0.00000000000E+00 -0.00000000000E+00 -0.13482151058E+04  0.13482151058E+04  0.00000000000E+00 0. -1.
         -6    2    1    2    0  503 -0.65418477249E+02  0.32157049025E+03 -0.41067685719E+03  0.55324580772E+03  0.17244792073E+03 0.  0.
        -24    2    3    3    0    0  0.27453980942E+02  0.15896502075E+03 -0.16215938608E+03  0.24204031990E+03  0.79147021882E+02 0.  0.
          6    2    1    2  501    0  0.65418477249E+02 -0.32157049025E+03 -0.82658866676E+03  0.90591887995E+03  0.17249068283E+03 0.  0.
         24    2    5    5    0    0  0.83764908848E+01 -0.87396576429E+02 -0.18000867661E+03  0.21586164770E+03  0.80528256650E+02 0.  0.
          5    1    5    5  501    0  0.57041986365E+02 -0.23417391382E+03 -0.64657999015E+03  0.69005723225E+03  0.47000000000E+01 0. -1.
        -11    1    6    6    0    0  0.25815090742E+02 -0.87162800781E+02 -0.17581254784E+03  0.19792378515E+03  0.00000000000E+00 0.  1.
         12    1    6    6    0    0 -0.17438599857E+02 -0.23377564720E+00 -0.41961287732E+01  0.17937862546E+02  0.00000000000E+00 0. -1.
         -5    1    3    3    0  503 -0.92872458191E+02  0.16260546950E+03 -0.24851747111E+03  0.31120548782E+03  0.47000000000E+01 0.  1.
         13    1    4    4    0    0  0.27147252466E+02  0.38021663131E+02 -0.89470918787E+02  0.10093396600E+03  0.00000000000E+00 0. -1.
        -14    1    4    4    0    0  0.30672847627E+00  0.12094335761E+03 -0.72688467290E+02  0.14110635390E+03  0.00000000000E+00 0.  1.
</event>
<event>
12    1  0.1066489E+000  0.1816650E+03  0.7818608E-02  0.1167693E+00
         21   -1    0    0  503  502  0.00000000000E+00  0.00000000000E+00  0.12407648906E+03  0.12407648906E+03  0.00000000000E+00 0.  1.
         21   -1    0    0  501  503 -0.00000000000E+00 -0.00000000000E+00 -0.25709170094E+03  0.25709170094E+03  0.00000000000E+00 0.  1.
          6    2    1    2  501    0 -0.26246292554E+02  0.82266251635E+00 -0.67242311153E+02  0.19371032726E+03  0.17975710788E+03 0.  0.
         24    2    3    3    0    0  0.11408505616E+02  0.63957838511E+02 -0.14453704346E+02  0.10308659261E+03  0.78722149993E+02 0.  0.
         -6    2    1    2    0  502  0.26246292554E+02 -0.82266251635E+00 -0.65772900727E+02  0.18745786274E+03  0.17356506326E+03 0.  0.
        -24    2    5    5    0    0  0.67838572614E+02  0.41737235690E+02 -0.21038475629E+02  0.11286214245E+03  0.77143871857E+02 0.  0.
          5    1    3    3  501    0 -0.37654798170E+02 -0.63135175995E+02 -0.52788606807E+02  0.90623734649E+02  0.47000000000E+01 0. -1.
        -11    1    4    4    0    0  0.28956279374E+02 -0.62708588305E+01 -0.26932143428E+01  0.29749675446E+02  0.00000000000E+00 0.  1.
         12    1    4    4    0    0 -0.17547773758E+02  0.70228697342E+02 -0.11760490004E+02  0.73336917165E+02  0.00000000000E+00 0. -1.
         -5    1    5    5    0  502 -0.41592280060E+02 -0.42559898206E+02 -0.44734425098E+02  0.74595720284E+02  0.47000000000E+01 0.  1.
         11    1    6    6    0    0 -0.12008294059E+02  0.18625103296E+02  0.97609919546E+01  0.24215089571E+02  0.00000000000E+00 0. -1.
        -12    1    6    6    0    0  0.79846866673E+02  0.23112132394E+02 -0.30799467584E+02  0.88647052882E+02  0.00000000000E+00 0.  1.
</event>
<event>
12    1  0.1066489E+000  0.2258222E+03  0.7818608E-02  0.1129993E+00
         21   -1    0    0  501  502  0.00000000000E+00  0.00000000000E+00  0.30390408983E+03  0.30390408983E+03  0.00000000000E+00 0.  1.
         21   -1    0    0  502  503 -0.00000000000E+00 -0.00000000000E+00 -0.16732253114E+03  0.16732253114E+03  0.00000000000E+00 0.  1.
         -6    2    1    2    0  503 -0.12512770264E+03  0.70014863053E+02  0.49802875169E+02  0.23124872168E+03  0.17446094660E+03 0.  0.
        -24    2    3    3    0    0 -0.12686749193E+03 -0.62133051689E+01  0.51403006650E+02  0.15483922673E+03  0.72103754226E+02 0.  0.
          6    2    1    2  501    0  0.12512770264E+03 -0.70014863053E+02  0.86778683528E+02  0.23997789929E+03  0.17175514321E+03 0.  0.
         24    2    5    5    0    0  0.10198240872E+02  0.11578508511E+01  0.59608369202E+02  0.10201177169E+03  0.82145597253E+02 0.  0.
          5    1    5    5  501    0  0.11492946177E+03 -0.71172713904E+02  0.27170314326E+02  0.13796612761E+03  0.47000000000E+01 0. -1.
        -11    1    6    6    0    0  0.58852613743E+01  0.36220520685E+02  0.55377833351E+02  0.66432423159E+02  0.00000000000E+00 0.  1.
         12    1    6    6    0    0  0.43129794976E+01 -0.35062669834E+02  0.42305358508E+01  0.35579348527E+02  0.00000000000E+00 0. -1.
         -5    1    3    3    0  503  0.17397892923E+01  0.76228168222E+02 -0.16001314805E+01  0.76409494947E+02  0.47000000000E+01 0.  1.
         11    1    4    4    0    0 -0.53137316058E+02  0.32322126270E+02  0.14698635532E+02  0.63908873335E+02  0.00000000000E+00 0. -1.
        -12    1    4    4    0    0 -0.73730175871E+02 -0.38535431439E+02  0.36704371118E+02  0.90930353399E+02  0.00000000000E+00 0.  1.
</event>
<event>
12    1  0.1066489E+000  0.1819349E+03  0.7818608E-02  0.1166157E+00
         21   -1    0    0  503  502  0.00000000000E+00  0.00000000000E+00  0.34258591359E+03  0.34258591359E+03  0.00000000000E+00 0. -1.
         21   -1    0    0  501  503 -0.00000000000E+00 -0.00000000000E+00 -0.13656285706E+03  0.13656285706E+03  0.00000000000E+00 0. -1.
          6    2    1    2  501    0  0.43220115995E+02  0.34153398221E+02  0.23316817775E+03  0.29519994051E+03  0.17245629222E+03 0.  0.
         24    2    3    3    0    0  0.22653740600E+02  0.85510169792E+02  0.12064362185E+03  0.16972341098E+03  0.80162158404E+02 0.  0.
         -6    2    1    2    0  502 -0.43220115995E+02 -0.34153398221E+02 -0.27145121219E+02  0.18394883013E+03  0.17339515986E+03 0.  0.
        -24    2    5    5    0    0 -0.57455465453E+01  0.29735415780E+02  0.29726857973E+02  0.90446766374E+02  0.79873182019E+02 0.  0.
          5    1    3    3  501    0  0.20566375396E+02 -0.51356771571E+02  0.11252455589E+03  0.12547652953E+03  0.47000000000E+01 0. -1.
        -11    1    4    4    0    0  0.41562656286E+02  0.89092063024E+02  0.11073233402E+03  0.14807599363E+03  0.00000000000E+00 0.  1.
         12    1    4    4    0    0 -0.18908915686E+02 -0.35818932319E+01  0.99112878372E+01  0.21647417355E+02  0.00000000000E+00 0. -1.
         -5    1    5    5    0  502 -0.37474569450E+02 -0.63888814001E+02 -0.56871979192E+02  0.93502063759E+02  0.47000000000E+01 0.  1.
         11    1    6    6    0    0  0.72966190671E+01  0.12785491453E+01 -0.25724518680E+02  0.26769874841E+02  0.00000000000E+00 0. -1.
        -12    1    6    6    0    0 -0.13042165612E+02  0.28456866635E+02  0.55451376653E+02  0.63676891532E+02  0.00000000000E+00 0.  1.
</event>
<event>
12    1  0.1066489E+000  0.2907001E+03  0.7818608E-02  0.1089992E+00
         21   -1    0    0  503  502  0.00000000000E+00  0.00000000000E+00  0.55790650381E+03  0.55790650381E+03  0.00000000000E+00 0.  1.
         21   -1    0    0  501  503 -0.00000000000E+00 -0.00000000000E+00 -0.17591076165E+03  0.17591076165E+03  0.00000000000E+00 0.  1.
          6    2    1    2  501    0  0.53811907143E+02  0.22795278282E+03  0.54127693367E+02  0.29563465541E+03  0.17208093951E+03 0.  0.
         24    2    3    3    0    0  0.61785890149E+02  0.53595331561E+02  0.37167323219E+01  0.11390006814E+03  0.79179894147E+02 0.  0.
         -6    2    1    2    0  502 -0.53811907143E+02 -0.22795278282E+03  0.32786804879E+03  0.43818261005E+03  0.17218696171E+03 0.  0.
        -24    2    5    5    0    0 -0.44496323765E+02 -0.17283922433E+03  0.13611999634E+03  0.23839850147E+03  0.80323544504E+02 0.  0.
          5    1    3    3  501    0 -0.79739830064E+01  0.17435745126E+03  0.50410961045E+02  0.18173458727E+03  0.47000000000E+01 0. -1.
        -13    1    4    4    0    0 -0.54390417538E+01 -0.16078533920E+02  0.17375771684E+01  0.17062285973E+02  0.00000000000E+00 0.  1.
         14    1    4    4    0    0  0.67224931903E+02  0.69673865481E+02  0.19791551535E+01  0.96837782170E+02  0.00000000000E+00 0. -1.
         -5    1    5    5    0  502 -0.93155833773E+01 -0.55113558494E+02  0.19174805245E+03  0.19978410858E+03  0.47000000000E+01 0.  1.
         13    1    6    6    0    0 -0.33805737504E+02 -0.69351121785E+02  0.10404212659E+03  0.12952671572E+03  0.00000000000E+00 0. -1.
        -14    1    6    6    0    0 -0.10690586262E+02 -0.10348810254E+03  0.32077869752E+02  0.10887178574E+03  0.00000000000E+00 0.  1.
</event>
<event>
12    1  0.1066489E+000  0.3208023E+03  0.7818608E-02  0.1075321E+00
         21   -1    0    0  503  502  0.00000000000E+00  0.00000000000E+00  0.86127027969E+03  0.86127027969E+03  0.00000000000E+00 0.  1.
         21   -1    0    0  501  503 -0.00000000000E+00 -0.00000000000E+00 -0.15388982117E+03  0.15388982117E+03  0.00000000000E+00 0.  1.
          6    2    1    2  501    0  0.24597630876E+03  0.11333612261E+03  0.59428058694E+03  0.67533957560E+03  0.17194390130E+03 0.  0.
         24    2    3    3    0    0  0.58060746957E+02  0.44669302050E+02  0.30797064302E+03  0.32602186261E+03  0.77961150964E+02 0.  0.
         -6    2    1    2    0  502 -0.24597630876E+03 -0.11333612261E+03  0.11309987158E+03  0.33982052526E+03  0.17128043461E+03 0.  0.
        -24    2    5    5    0    0 -0.99980197195E+02 -0.51792789233E+02 -0.11015226119E+02  0.13850213576E+03  0.79893513856E+02 0.  0.
          5    1    3    3  501    0  0.18791556181E+03  0.68666820558E+02  0.28630994392E+03  0.34931771298E+03  0.47000000000E+01 0. -1.
        -11    1    4    4    0    0  0.23360130920E+02  0.25702213389E+02  0.31980321242E+02  0.47212714775E+02  0.00000000000E+00 0.  1.
         12    1    4    4    0    0  0.34700616037E+02  0.18967088661E+02  0.27599032177E+03  0.27880914784E+03  0.00000000000E+00 0. -1.
         -5    1    5    5    0  502 -0.14599611157E+03 -0.61543333376E+02  0.12411509769E+03  0.20131838950E+03  0.47000000000E+01 0.  1.
         11    1    6    6    0    0 -0.11126404918E+03 -0.34241078156E+02 -0.14616576090E+02  0.11732767947E+03  0.00000000000E+00 0. -1.
        -12    1    6    6    0    0  0.11283851989E+02 -0.17551711077E+02  0.36013499709E+01  0.21174456287E+02  0.00000000000E+00 0.  1.
</event>
<event>
12    1  0.1066489E+000  0.2098495E+03  0.7818608E-02  0.1142395E+00
         21   -1    0    0  501  502  0.00000000000E+00  0.00000000000E+00  0.72973917063E+02  0.72973917063E+02  0.00000000000E+00 0.  1.
         21   -1    0    0  502  503 -0.00000000000E+00 -0.00000000000E+00 -0.60591068987E+03  0.60591068987E+03  0.00000000000E+00 0.  1.
         -6    2    1    2    0  503  0.11252338391E+03 -0.37106196368E+02 -0.21971888140E+03  0.30383087598E+03  0.17320055605E+03 0.  0.
        -24    2    3    3    0    0  0.10176597250E+03  0.92014871199E+01 -0.22074249902E+03  0.25604739302E+03  0.79950209988E+02 0.  0.
          6    2    1    2  501    0 -0.11252338391E+03  0.37106196368E+02 -0.31321789141E+03  0.37505373096E+03  0.16888301239E+03 0.  0.
         24    2    5    5    0    0 -0.45851818071E+02  0.66110402343E+02 -0.10226846870E+03  0.15187646824E+03  0.78323989910E+02 0.  0.
          5    1    5    5  501    0 -0.66671565836E+02 -0.29004205975E+02 -0.21094942271E+03  0.22317726272E+03  0.47000000000E+01 0. -1.
        -13    1    6    6    0    0 -0.63070408098E+02  0.31303646194E+02 -0.81966160489E+02  0.10805668007E+03  0.00000000000E+00 0.  1.
         14    1    6    6    0    0  0.17218590027E+02  0.34806756149E+02 -0.20302308211E+02  0.43819788165E+02  0.00000000000E+00 0. -1.
         -5    1    3    3    0  503  0.10757411406E+02 -0.46307683488E+02  0.10236176160E+01  0.47783482954E+02  0.47000000000E+01 0.  1.
         11    1    4    4    0    0  0.96597843409E+02 -0.50931496372E+01 -0.11985128307E+03  0.15401757555E+03  0.00000000000E+00 0. -1.
        -12    1    4    4    0    0  0.51681290925E+01  0.14294636757E+02 -0.10089121595E+03  0.10202981748E+03  0.00000000000E+00 0.  1.
</event>
<event>
12    1  0.1066489E+000  0.1921508E+03  0.7818608E-02  0.1156850E+00
         21   -1    0    0  501  502  0.00000000000E+00  0.00000000000E+00  0.18912708191E+02  0.18912708191E+02  0.00000000000E+00 0. -1.
         21   -1    0    0  502  503 -0.00000000000E+00 -0.00000000000E+00 -0.22688317210E+04  0.22688317210E+04  0.00000000000E+00 0. -1.
         -6    2    1    2    0  503  0.80788057405E+02 -0.26032269029E+02 -0.15653402506E+04  0.15770897362E+04  0.17238778010E+03 0.  0.
        -24    2    3    3    0    0  0.36784164367E+02 -0.17700953172E+02 -0.37365420092E+03  0.38455316051E+03  0.81223598192E+02 0.  0.
          6    2    1    2  501    0 -0.80788057405E+02  0.26032269029E+02 -0.68457876224E+03  0.71065469299E+03  0.17081458283E+03 0.  0.
         24    2    5    5    0    0  0.18080566086E+01 -0.24972908323E+02 -0.43632165593E+03  0.44405137906E+03  0.78601047000E+02 0.  0.
          5    1    5    5  501    0 -0.82596114014E+02  0.51005177353E+02 -0.24825710631E+03  0.26660331393E+03  0.47000000000E+01 0. -1.
        -13    1    6    6    0    0 -0.30719447170E+02  0.47012754691E+01 -0.27766214179E+03  0.27939586864E+03  0.00000000000E+00 0.  1.
         14    1    6    6    0    0  0.32527503778E+02 -0.29674183792E+02 -0.15865951414E+03  0.16465551043E+03  0.00000000000E+00 0. -1.
         -5    1    3    3    0  503  0.44003893039E+02 -0.83313158576E+01 -0.11916860497E+04  0.11925365757E+04  0.47000000000E+01 0.  1.
         11    1    4    4    0    0  0.20249783954E+02  0.31756286644E+02 -0.12806062983E+03  0.13348423279E+03  0.00000000000E+00 0. -1.
        -12    1    4    4    0    0  0.16534380413E+02 -0.49457239815E+02 -0.24559357108E+03  0.25106892771E+03  0.00000000000E+00 0.  1.
</event>
<event>
12    1  0.1066489E+000  0.2328917E+03  0.7818608E-02  0.1124929E+00
         21   -1    0    0  501  502  0.00000000000E+00  0.00000000000E+00  0.48128323042E+02  0.48128323042E+02  0.00000000000E+00 0.  1.
         21   -1    0    0  502  503 -0.00000000000E+00 -0.00000000000E+00 -0.11930831589E+04  0.11930831589E+04  0.00000000000E+00 0. -1.
         -6    2    1    2    0  503 -0.10618060591E+01 -0.15492447175E+03 -0.41516181833E+03  0.47515900580E+03  0.17150517781E+03 0.  0.
        -24    2    3    3    0    0  0.19100541049E+02 -0.17293394490E+03 -0.40096999175E+03  0.44426629945E+03  0.79527546036E+02 0.  0.
          6    2    1    2  501    0  0.10618060591E+01  0.15492447175E+03 -0.72979301756E+03  0.76605247618E+03  0.17388452603E+03 0.  0.
         24    2    5    5    0    0  0.11674846152E+02  0.33401215541E+02 -0.15249364396E+03  0.17598706016E+03  0.80406409336E+02 0.  0.
          5    1    5    5  501    0 -0.10613040093E+02  0.12152325621E+03 -0.57729937360E+03  0.59006541602E+03  0.47000000000E+01 0. -1.
        -11    1    6    6    0    0 -0.17095476781E+02  0.14423470294E+02 -0.13591164215E+03  0.13773985006E+03  0.00000000000E+00 0.  1.
         12    1    6    6    0    0  0.28770322933E+02  0.18977745246E+02 -0.16582001807E+02  0.38247210097E+02  0.00000000000E+00 0. -1.
         -5    1    3    3    0  503 -0.20162347108E+02  0.18009473148E+02 -0.14191826582E+02  0.30892706351E+02  0.47000000000E+01 0.  1.
         13    1    4    4    0    0  0.37652051051E+02 -0.16506512250E+03 -0.33603036447E+03  0.37627194615E+03  0.00000000000E+00 0. -1.
        -14    1    4    4    0    0 -0.18551510002E+02 -0.78688223920E+01 -0.64939627284E+02  0.67994353302E+02  0.00000000000E+00 0.  1.
</event>
<event>
12    1  0.1066489E+000  0.2096879E+03  0.7818608E-02  0.1142345E+00
         21   -1    0    0  503  502  0.00000000000E+00  0.00000000000E+00  0.90891568425E+02  0.90891568425E+02  0.00000000000E+00 0. -1.
         21   -1    0    0  501  503 -0.00000000000E+00 -0.00000000000E+00 -0.48743213748E+03  0.48743213748E+03  0.00000000000E+00 0. -1.
          6    2    1    2  501    0  0.10436385046E+03 -0.50931814089E+02 -0.24051537654E+03  0.31908721772E+03  0.17459422440E+03 0.  0.
         24    2    3    3    0    0  0.33372493660E+02  0.33030894678E+02 -0.15165170254E+03  0.17763633663E+03  0.79697339186E+02 0.  0.
         -6    2    1    2    0  502 -0.10436385046E+03  0.50931814089E+02 -0.15602519252E+03  0.25923648818E+03  0.17138796088E+03 0.  0.
        -24    2    5    5    0    0 -0.75766111463E+02  0.10255872974E+03 -0.10844243348E+03  0.18328006612E+03  0.74652692947E+02 0.  0.
          5    1    3    3  501    0  0.70991356803E+02 -0.83962708767E+02 -0.88863673999E+02  0.14145088109E+03  0.47000000000E+01 0. -1.
        -13    1    4    4    0    0 -0.93618827082E+01  0.98654924627E+01 -0.11736774976E+03  0.11815312723E+03  0.00000000000E+00 0.  1.
         14    1    4    4    0    0  0.42734376368E+02  0.23165402216E+02 -0.34283952779E+02  0.59483209408E+02  0.00000000000E+00 0. -1.
         -5    1    5    5    0  502 -0.28597739001E+02 -0.51626915650E+02 -0.47582759031E+02  0.75956422063E+02  0.47000000000E+01 0.  1.
         13    1    6    6    0    0 -0.12678101065E+02  0.36772461020E+02 -0.78038717869E+02  0.87195123847E+02  0.00000000000E+00 0. -1.
        -14    1    6    6    0    0 -0.63088010398E+02  0.65786268718E+02 -0.30403715616E+02  0.96084942271E+02  0.00000000000E+00 0.  1.
</event>
<event>
12    1  0.1066489E+000  0.2025036E+03  0.7818608E-02  0.1149184E+00
         21   -1    0    0  503  502  0.00000000000E+00  0.00000000000E+00  0.23906618858E+03  0.23906618858E+03  0.00000000000E+00 0.  1.
         21   -1    0    0  501  503 -0.00000000000E+00 -0.00000000000E+00 -0.18178537446E+03  0.18178537446E+03  0.00000000000E+00 0.  1.
          6    2    1    2  501    0 -0.91924017935E+02  0.12847095477E+02 -0.34000620352E+02  0.20533813923E+03  0.17997954412E+03 0.  0.
         24    2    3    3    0    0 -0.13645721168E+03  0.57340944210E+01 -0.27126714389E+02  0.15947812710E+03  0.77742934928E+02 0.  0.
         -6    2    1    2    0  502  0.91924017935E+02 -0.12847095477E+02  0.91281434473E+02  0.21551342381E+03  0.17175174709E+03 0.  0.
        -24    2    5    5    0    0  0.11092533277E+03 -0.15371593085E+02  0.11973118194E+03  0.18088827133E+03  0.76447991814E+02 0.  0.
          5    1    3    3  501    0  0.44533193747E+02  0.71130010564E+01 -0.68739059631E+01  0.45860012130E+02  0.47000000000E+01 0. -1.
        -11    1    4    4    0    0 -0.31728684690E+02  0.33987238248E+02  0.38903473268E+01  0.46658081810E+02  0.00000000000E+00 0.  1.
         12    1    4    4    0    0 -0.10472852699E+03 -0.28253143826E+02 -0.31017061716E+02  0.11282004529E+03  0.00000000000E+00 0. -1.
         -5    1    5    5    0  502 -0.19001314835E+02  0.25244976080E+01 -0.28449747467E+02  0.34625152484E+02  0.47000000000E+01 0.  1.
         11    1    6    6    0    0  0.93489723341E+02 -0.41918269307E+02  0.10172110956E+03  0.14437677723E+03  0.00000000000E+00 0. -1.
        -12    1    6    6    0    0  0.17435609428E+02  0.26546676222E+02  0.18010072376E+02  0.36511494102E+02  0.00000000000E+00 0.  1.
</event>
<event>
12    1  0.1066489E+000  0.3020886E+03  0.7818608E-02  0.1084271E+00
         21   -1    0    0  503  502  0.00000000000E+00  0.00000000000E+00  0.59993247240E+03  0.59993247240E+03  0.00000000000E+00 0.  1.
         21   -1    0    0  501  503 -0.00000000000E+00 -0.00000000000E+00 -0.17002231663E+03  0.17002231663E+03  0.00000000000E+00 0.  1.
          6    2    1    2  501    0 -0.23742007507E+03 -0.69926839140E+02  0.34106212735E+03  0.45561044541E+03  0.17320348835E+03 0.  0.
         24    2    3    3    0    0 -0.15688466470E+03 -0.10664391714E+03  0.18781719219E+03  0.27857882029E+03  0.79656376722E+02 0.  0.
         -6    2    1    2    0  502  0.23742007507E+03  0.69926839140E+02  0.88848028410E+02  0.31434434362E+03  0.17222177369E+03 0.  0.
        -24    2    5    5    0    0  0.11227799713E+03 -0.27873760723E+02  0.63077297329E+02  0.15337317357E+03  0.78493883561E+02 0.  0.
          5    1    3    3  501    0 -0.80535410371E+02  0.36717077998E+02  0.15324493516E+03  0.17703162512E+03  0.47000000000E+01 0. -1.
        -11    1    4    4    0    0  0.89828203200E+01 -0.49604198199E+01  0.42942634161E+01  0.11123736961E+02  0.00000000000E+00 0.  1.
         12    1    4    4    0    0 -0.16586748502E+03 -0.10168349732E+03  0.18352292877E+03  0.26745508333E+03  0.00000000000E+00 0. -1.
         -5    1    5    5    0  502  0.12514207795E+03  0.97800599863E+02  0.25770731082E+02  0.16097117005E+03  0.47000000000E+01 0.  1.
         11    1    6    6    0    0  0.65937866815E+01 -0.16586856003E+02 -0.13495681379E+02  0.22377113995E+02  0.00000000000E+00 0. -1.
        -12    1    6    6    0    0  0.10568421044E+03 -0.11286904720E+02  0.76572978708E+02  0.13099605957E+03  0.00000000000E+00 0.  1.
</event>
<event>
12    1  0.1066489E+000  0.1818632E+03  0.7818608E-02  0.1168333E+00
         21   -1    0    0  501  502  0.00000000000E+00  0.00000000000E+00  0.15715339204E+04  0.15715339204E+04  0.00000000000E+00 0.  1.
         21   -1    0    0  502  503 -0.00000000000E+00 -0.00000000000E+00 -0.10683395338E+03  0.10683395338E+03  0.00000000000E+00 0.  1.
         -6    2    1    2    0  503  0.10782908121E+02  0.44057718526E+01 -0.27961631179E+02  0.17466814727E+03  0.17202158853E+03 0.  0.
        -24    2    3    3    0    0  0.31302417166E+01 -0.49005070820E+02  0.26269398656E+02  0.98023669222E+02  0.80667608387E+02 0.  0.
          6    2    1    2  501    0 -0.10782908121E+02 -0.44057718526E+01  0.14926615982E+04  0.15036997265E+04  0.18148977605E+03 0.  0.
         24    2    5    5    0    0  0.42028710259E+02 -0.55282563846E+02  0.10121045035E+04  0.10175570250E+04  0.79020242234E+02 0.  0.
          5    1    5    5  501    0 -0.52811618380E+02  0.50876791994E+02  0.48055709465E+03  0.48614270149E+03  0.47000000000E+01 0.  1.
        -13    1    6    6    0    0  0.44307299109E+01 -0.36634945705E+01  0.30961583090E+01  0.65298358545E+01  0.00000000000E+00 0.  1.
         14    1    6    6    0    0  0.37597980348E+02 -0.51619069276E+02  0.10090083452E+04  0.10110271891E+04  0.00000000000E+00 0. -1.
         -5    1    3    3    0  503  0.76526664043E+01  0.53410842672E+02 -0.54231029835E+02  0.76644478046E+02  0.47000000000E+01 0.  1.
         13    1    4    4    0    0 -0.13572498521E+02 -0.28601371170E+02 -0.25020992355E+02  0.40352214404E+02  0.00000000000E+00 0. -1.
        -14    1    4    4    0    0  0.16702740237E+02 -0.20403699650E+02  0.51290391011E+02  0.57671454818E+02  0.00000000000E+00 0.  1.
</event>
<event>
12    1  0.1066489E+000  0.2887036E+03  0.7818608E-02  0.1091166E+00
         21   -1    0    0  501  502  0.00000000000E+00  0.00000000000E+00  0.84894592129E+03  0.84894592129E+03  0.00000000000E+00 0. -1.
         21   -1    0    0  502  503 -0.00000000000E+00 -0.00000000000E+00 -0.97853934180E+02  0.97853934180E+02  0.00000000000E+00 0. -1.
         -6    2    1    2    0  503 -0.22403745749E+02  0.23024810494E+03  0.36665584559E+03  0.46602868092E+03  0.17096813939E+03 0.  0.
        -24    2    3    3    0    0  0.63828454404E+01  0.99534059789E+02  0.80105774158E+02  0.14972524612E+03  0.77800671579E+02 0.  0.
          6    2    1    2  501    0  0.22403745749E+02 -0.23024810494E+03  0.38443614152E+03  0.48077117455E+03  0.17272422447E+03 0.  0.
         24    2    5    5    0    0  0.50680321364E+02 -0.60926352471E+02  0.11147878795E+03  0.15828516329E+03  0.79662772719E+02 0.  0.
          5    1    5    5  501    0 -0.28276575615E+02 -0.16932175246E+03  0.27295735357E+03  0.32248601126E+03  0.47000000000E+01 0. -1.
        -13    1    6    6    0    0  0.10662430698E+02 -0.56635385609E+02  0.24842542924E+02  0.62756722910E+02  0.00000000000E+00 0.  1.
         14    1    6    6    0    0  0.40017890665E+02 -0.42909668620E+01  0.86636245026E+02  0.95528440384E+02  0.00000000000E+00 0. -1.
         -5    1    3    3    0  503 -0.28786591189E+02  0.13071404515E+03  0.28655007143E+03  0.31630343480E+03  0.47000000000E+01 0.  1.
         11    1    4    4    0    0 -0.23299867905E+00 -0.13294784106E+02  0.10937348854E+02  0.17217176678E+02  0.00000000000E+00 0. -1.
        -12    1    4    4    0    0  0.66158441195E+01  0.11282884390E+03  0.69168425304E+02  0.13250806944E+03  0.00000000000E+00 0.  1.
</event>
<event>
12    1  0.1066489E+000  0.3275348E+03  0.7818608E-02  0.1072250E+00
         21   -1    0    0  503  502  0.00000000000E+00  0.00000000000E+00  0.66429526430E+02  0.66429526430E+02  0.00000000000E+00 0. -1.
         21   -1    0    0  501  503 -0.00000000000E+00 -0.00000000000E+00 -0.16784488661E+04  0.16784488661E+04  0.00000000000E+00 0. -1.
          6    2    1    2  501    0  0.34859417975E+02 -0.27603745496E+03 -0.63545245067E+03  0.71489780691E+03  0.17282129991E+03 0.  0.
         24    2    3    3    0    0  0.46189105962E+02 -0.10195706903E+03 -0.39182588443E+03  0.41521741654E+03  0.79682506572E+02 0.  0.
         -6    2    1    2    0  502 -0.34859417975E+02  0.27603745496E+03 -0.97656688903E+03  0.10299805856E+04  0.17252612123E+03 0.  0.
        -24    2    5    5    0    0  0.43895666043E+02  0.17092590599E+03 -0.62480593035E+03  0.65446938337E+03  0.82493807854E+02 0.  0.
          5    1    3    3  501    0 -0.11329687987E+02 -0.17408038593E+03 -0.24362656624E+03  0.29968039037E+03  0.47000000000E+01 0. -1.
        -13    1    4    4    0    0 -0.13048815410E+02 -0.52531878280E+02 -0.10414576870E+03  0.11737210468E+03  0.00000000000E+00 0.  1.
         14    1    4    4    0    0  0.59237921372E+02 -0.49425190746E+02 -0.28768011573E+03  0.29784531186E+03  0.00000000000E+00 0. -1.
         -5    1    5    5    0  502 -0.78755084018E+02  0.10511154897E+03 -0.35176095868E+03  0.37551120227E+03  0.47000000000E+01 0.  1.
         11    1    6    6    0    0  0.16427020245E+02  0.44331827760E+02 -0.31714215492E+03  0.32064669712E+03  0.00000000000E+00 0. -1.
        -12    1    6    6    0    0  0.27468645798E+02  0.12659407823E+03 -0.30766377544E+03  0.33382268626E+03  0.00000000000E+00 0.  1.
</event>
<event>
12    1  0.1066489E+000  0.1819533E+03  0.7818608E-02  0.1166454E+00
         21   -1    0    0  501  502  0.00000000000E+00  0.00000000000E+00  0.10418066516E+04  0.10418066516E+04  0.00000000000E+00 0. -1.
         21   -1    0    0  502  503 -0.00000000000E+00 -0.00000000000E+00 -0.31400621526E+02  0.31400621526E+02  0.00000000000E+00 0. -1.
         -6    2    1    2    0  503 -0.22434534978E+02 -0.53582255504E+02  0.50166183731E+03  0.53363996431E+03  0.17243156912E+03 0.  0.
        -24    2    3    3    0    0  0.51624318152E+02 -0.46621659120E+02  0.26522251748E+03  0.28573109881E+03  0.80378030130E+02 0.  0.
          6    2    1    2  501    0  0.22434534978E+02  0.53582255504E+02  0.50874419277E+03  0.53956730883E+03  0.17011131828E+03 0.  0.
         24    2    5    5    0    0 -0.20650137468E+02 -0.23799050269E+02  0.18346047691E+03  0.20240897616E+03  0.79491031377E+02 0.  0.
          5    1    5    5  501    0  0.43084672446E+02  0.77381305773E+02  0.32528371586E+03  0.33715833267E+03  0.47000000000E+01 0. -1.
        -11    1    6    6    0    0  0.41426112767E+01  0.13444714796E+02  0.52132223032E+00  0.14078116387E+02  0.00000000000E+00 0.  1.
         12    1    6    6    0    0 -0.24792748745E+02 -0.37243765065E+02  0.18293915468E+03  0.18833085977E+03  0.00000000000E+00 0. -1.
         -5    1    3    3    0  503 -0.74058853130E+02 -0.69605963843E+01  0.23643931983E+03  0.24790886550E+03  0.47000000000E+01 0.  1.
         11    1    4    4    0    0  0.40652124155E+01  0.11512350939E+02  0.24729683706E+01  0.12456955835E+02  0.00000000000E+00 0. -1.
        -12    1    4    4    0    0  0.47559105737E+02 -0.58134010058E+02  0.26274954911E+03  0.27327414298E+03  0.00000000000E+00 0.  1.
</event>
<event>
12    1  0.1066489E+000  0.2217094E+03  0.7818608E-02  0.1132679E+00
         21   -1    0    0  503  502  0.00000000000E+00  0.00000000000E+00  0.53768865539E+03  0.53768865539E+03  0.00000000000E+00 0.  1.
         21   -1    0    0  501  503 -0.00000000000E+00 -0.00000000000E+00 -0.13060173397E+03  0.13060173397E+03  0.00000000000E+00 0.  1.
          6    2    1    2  501    0  0.97439883280E+02 -0.99320273595E+02  0.38678821359E+03  0.44565368841E+03  0.17217154302E+03 0.  0.
         24    2    3    3    0    0  0.12336729337E+03 -0.11767415223E+03  0.30641735011E+03  0.35910508270E+03  0.77447871464E+02 0.  0.
         -6    2    1    2    0  502 -0.97439883280E+02  0.99320273595E+02  0.20298707831E+02  0.22263670095E+03  0.17261522375E+03 0.  0.
        -24    2    5    5    0    0 -0.83496432952E+01  0.22289161836E+02 -0.35985824932E+02  0.92019314407E+02  0.81277618994E+02 0.  0.
          5    1    3    3  501    0 -0.25927410094E+02  0.18353878635E+02  0.80370863478E+02  0.86548605716E+02  0.47000000000E+01 0. -1.
        -11    1    4    4    0    0  0.55255497189E+02 -0.10861404623E+02  0.61647518414E+02  0.83495847840E+02  0.00000000000E+00 0.  1.
         12    1    4    4    0    0  0.68111796185E+02 -0.10681274761E+03  0.24476983169E+03  0.27560923486E+03  0.00000000000E+00 0. -1.
         -5    1    5    5    0  502 -0.89090239985E+02  0.77031111759E+02  0.56284532763E+02  0.13061738654E+03  0.47000000000E+01 0.  1.
         11    1    6    6    0    0 -0.27658764282E+02  0.39195473916E+02 -0.18796710934E+00  0.47972155973E+02  0.00000000000E+00 0. -1.
        -12    1    6    6    0    0  0.19309120987E+02 -0.16906312080E+02 -0.35797857823E+02  0.44047158434E+02  0.00000000000E+00 0.  1.
</event>
<event>
12    1  0.1066489E+000  0.2115390E+03  0.7818608E-02  0.1140666E+00
         21   -1    0    0  501  502  0.00000000000E+00  0.00000000000E+00  0.41204636232E+03  0.41204636232E+03  0.00000000000E+00 0.  1.
         21   -1    0    0  502  503 -0.00000000000E+00 -0.00000000000E+00 -0.16930932795E+03  0.16930932795E+03  0.00000000000E+00 0.  1.
         -6    2    1    2    0  503 -0.12429802215E+03  0.93694248413E+01  0.29629785428E+03  0.36314136559E+03  0.16894214549E+03 0.  0.
        -24    2    3    3    0    0 -0.13776233575E+03  0.49289916950E+02  0.22988584744E+03  0.28435318067E+03  0.81248208832E+02 0.  0.
          6    2    1    2  501    0  0.12429802215E+03 -0.93694248413E+01 -0.53560819905E+02  0.21821432469E+03  0.17091209916E+03 0.  0.
         24    2    5    5    0    0  0.34054178776E+02 -0.32944101037E+02  0.25435468098E+02  0.95894170410E+02  0.79396020026E+02 0.  0.
          5    1    5    5  501    0  0.90243843371E+02  0.23574676196E+02 -0.78996288003E+02  0.12232015428E+03  0.47000000000E+01 0. -1.
        -11    1    6    6    0    0 -0.20719419104E+02 -0.30886440989E+02  0.56432121310E+01  0.37617979852E+02  0.00000000000E+00 0.  1.
         12    1    6    6    0    0  0.54773597881E+02 -0.20576600480E+01  0.19792255967E+02  0.58276190558E+02  0.00000000000E+00 0. -1.
         -5    1    3    3    0  503  0.13464313606E+02 -0.39920492109E+02  0.66412006833E+02  0.78788184918E+02  0.47000000000E+01 0.  1.
         11    1    4    4    0    0 -0.12104402122E+02 -0.12061683587E+02  0.69491012347E+02  0.71561173541E+02  0.00000000000E+00 0. -1.
        -12    1    4    4    0    0 -0.12565793363E+03  0.61351600537E+02  0.16039483510E+03  0.21279200713E+03  0.00000000000E+00 0.  1.
</event>
<event>
12    1  0.1066489E+000  0.3842795E+03  0.7818608E-02  0.1049395E+00
         21   -1    0    0  501  502  0.00000000000E+00  0.00000000000E+00  0.31028509048E+03  0.31028509048E+03  0.00000000000E+00 0. -1.
         21   -1    0    0  502  503 -0.00000000000E+00 -0.00000000000E+00 -0.48893075580E+03  0.48893075580E+03  0.00000000000E+00 0. -1.
         -6    2    1    2    0  503  0.16855053780E+03  0.29876477098E+03 -0.23089478154E+02  0.38497258113E+03  0.17320823320E+03 0.  0.
        -24    2    3    3    0    0  0.14909215720E+03  0.13159620866E+03 -0.28661537264E+02  0.21651755850E+03  0.80699045536E+02 0.  0.
          6    2    1    2  501    0 -0.16855053780E+03 -0.29876477098E+03 -0.15555618716E+03  0.41424326515E+03  0.17242413748E+03 0.  0.
         24    2    5    5    0    0 -0.55791698878E+02 -0.46256595895E+02 -0.52546657588E+02  0.11910264202E+03  0.78561452278E+02 0.  0.
          5    1    5    5  501    0 -0.11275883892E+03 -0.25250817509E+03 -0.10300952957E+03  0.29514062313E+03  0.47000000000E+01 0. -1.
        -13    1    6    6    0    0 -0.51700004176E+02 -0.37001381397E+02 -0.72683933667E+02  0.96565764485E+02  0.00000000000E+00 0.  1.
         14    1    6    6    0    0 -0.40916947014E+01 -0.92552144977E+01  0.20137276080E+02  0.22536877531E+02  0.00000000000E+00 0. -1.
         -5    1    3    3    0  503  0.19458380600E+02  0.16716856233E+03  0.55720591096E+01  0.16845502263E+03  0.47000000000E+01 0.  1.
         11    1    4    4    0    0  0.12442884469E+03  0.76601355865E+02 -0.47045262185E+02  0.15350427292E+03  0.00000000000E+00 0. -1.
        -12    1    4    4    0    0  0.24663312505E+02  0.54994852792E+02  0.18383724921E+02  0.63013285578E+02  0.00000000000E+00 0.  1.
</event>
<event>
12    1  0.1066489E+000  0.5405075E+03  0.7818608E-02  0.1003718E+00
         21   -1    0    0  503  502  0.00000000000E+00  0.00000000000E+00  0.21875132162E+03  0.21875132162E+03  0.00000000000E+00 0.  1.
         21   -1    0    0  501  503 -0.00000000000E+00 -0.00000000000E+00 -0.14459401380E+04  0.14459401380E+04  0.00000000000E+00 0. -1.
          6    2    1    2  501    0  0.24911633395E+03  0.44798297909E+03 -0.84369771821E+03  0.10019594350E+04  0.17131600151E+03 0.  0.
         24    2    3    3    0    0  0.16606306938E+03  0.37841833382E+03 -0.57697546152E+03  0.71403594375E+03  0.78544684010E+02 0.  0.
         -6    2    1    2    0  502 -0.24911633395E+03 -0.44798297909E+03 -0.38349109820E+03  0.66273202461E+03  0.17146608018E+03 0.  0.
        -24    2    5    5    0    0 -0.81016040284E+02 -0.21583063833E+03 -0.23931504700E+03  0.34185628263E+03  0.80296718667E+02 0.  0.
          5    1    3    3  501    0  0.83053264565E+02  0.69564645267E+02 -0.26672225669E+03  0.28792349129E+03  0.47000000000E+01 0. -1.
        -11    1    4    4    0    0  0.15986995784E+03  0.28697858266E+03 -0.43640107938E+03  0.54622432426E+03  0.00000000000E+00 0.  1.
         12    1    4    4    0    0  0.61931115412E+01  0.91439751168E+02 -0.14057438214E+03  0.16781161949E+03  0.00000000000E+00 0. -1.
         -5    1    5    5    0  502 -0.16810029366E+03 -0.23215234076E+03 -0.14417605119E+03  0.32087574198E+03  0.47000000000E+01 0.  1.
         13    1    6    6    0    0 -0.63668392831E+01  0.66871853590E+00 -0.33011278314E+02  0.33626304032E+02  0.00000000000E+00 0. -1.
        -14    1    6    6    0    0 -0.74649201001E+02 -0.21649935686E+03 -0.20630376869E+03  0.30822997860E+03  0.00000000000E+00 0.  1.
</event>
<event>
12    1  0.1066489E+000  0.2188512E+03  0.7818608E-02  0.1134856E+00
         21   -1    0    0  501  502  0.00000000000E+00  0.00000000000E+00  0.78745608172E+02  0.78745608172E+02  0.00000000000E+00 0.  1.
         21   -1    0    0  502  503 -0.00000000000E+00 -0.00000000000E+00 -0.72919535399E+03  0.72919535399E+03  0.00000000000E+00 0.  1.
         -6    2    1    2    0  503  0.13295144426E+03  0.26350833557E+02 -0.15992825384E+03  0.27105884758E+03  0.17182956532E+03 0.  0.
        -24    2    3    3    0    0  0.12900414686E+03  0.52915236956E+02 -0.17715397111E+03  0.23880882401E+03  0.78765682466E+02 0.  0.
          6    2    1    2  501    0 -0.13295144426E+03 -0.26350833557E+02 -0.49052149198E+03  0.53688211458E+03  0.17105735267E+03 0.  0.
         24    2    5    5    0    0 -0.91887373045E+02  0.34526640260E+02 -0.19442311337E+03  0.23177776427E+03  0.79279296062E+02 0.  0.
          5    1    5    5  501    0 -0.41064071212E+02 -0.60877473818E+02 -0.29609837862E+03  0.30510435032E+03  0.47000000000E+01 0. -1.
        -13    1    6    6    0    0 -0.10339688493E+03  0.23056021949E+02 -0.14378432964E+03  0.17859571499E+03  0.00000000000E+00 0.  1.
         14    1    6    6    0    0  0.11509511885E+02  0.11470618311E+02 -0.50638783728E+02  0.53182049281E+02  0.00000000000E+00 0. -1.
         -5    1    3    3    0  503  0.39472973985E+01 -0.26564403399E+02  0.17225717277E+02  0.32250023572E+02  0.47000000000E+01 0.  1.
         13    1    4    4    0    0  0.50905307248E+02 -0.12631247206E+02 -0.32055206832E+02  0.61468975891E+02  0.00000000000E+00 0. -1.
        -14    1    4    4    0    0  0.78098839610E+02  0.65546484163E+02 -0.14509876428E+03  0.17733984812E+03  0.00000000000E+00 0.  1.
</event>
<event>
12    1  0.1066489E+000  0.2893070E+03  0.7818608E-02  0.1090734E+00
         21   -1    0    0  501  502  0.00000000000E+00  0.00000000000E+00  0.86806488001E+02  0.86806488001E+02  0.00000000000E+00 0. -1.
         21   -1    0    0  502  503 -0.00000000000E+00 -0.00000000000E+00 -0.18671579292E+04  0.18671579292E+04  0.00000000000E+00 0. -1.
         -6    2    1    2    0  503  0.22296908717E+03 -0.64850094449E+02 -0.21041422404E+03  0.35759308746E+03  0.17227281253E+03 0.  0.
        -24    2    3    3    0    0  0.11041224405E+03 -0.92378299886E+02 -0.16572600962E+03  0.23331126442E+03  0.79021654740E+02 0.  0.
          6    2    1    2  501    0 -0.22296908717E+03  0.64850094449E+02 -0.15699372172E+04  0.15963713297E+04  0.17256247569E+03 0.  0.
         24    2    5    5    0    0 -0.74712141787E+02 -0.28760743958E+02 -0.67079378709E+03  0.68027957191E+03  0.80043154873E+02 0.  0.
          5    1    5    5  501    0 -0.14825694539E+03  0.93610838407E+02 -0.89914343008E+03  0.91609175783E+03  0.47000000000E+01 0. -1.
        -11    1    6    6    0    0 -0.79644101755E+02 -0.30092126967E+02 -0.37917342195E+03  0.38861446571E+03  0.00000000000E+00 0.  1.
         12    1    6    6    0    0  0.49319599684E+01  0.13313830088E+01 -0.29162036514E+03  0.29166510620E+03  0.00000000000E+00 0. -1.
         -5    1    3    3    0  503  0.11255684313E+03  0.27528205437E+02 -0.44688214426E+02  0.12428182304E+03  0.47000000000E+01 0.  1.
         13    1    4    4    0    0  0.13418649015E+02 -0.48575413050E+01 -0.69771241673E+02  0.71215742737E+02  0.00000000000E+00 0. -1.
        -14    1    4    4    0    0  0.96993595030E+02 -0.87520758581E+02 -0.95954767945E+02  0.16209552169E+03  0.00000000000E+00 0.  1.
</event>
<event>
12    1  0.1066489E+000  0.2474162E+03  0.7818608E-02  0.1115241E+00
         21   -1    0    0  501  502  0.00000000000E+00  0.00000000000E+00  0.25472689103E+03  0.25472689103E+03  0.00000000000E+00 0.  1.
         21   -1    0    0  502  503 -0.00000000000E+00 -0.00000000000E+00 -0.23932741219E+03  0.23932741219E+03  0.00000000000E+00 0.  1.
         -6    2    1    2    0  503  0.16670232752E+03  0.54316114852E+02  0.21761291681E+02  0.24837136380E+03  0.17457054222E+03 0.  0.
        -24    2    3    3    0    0  0.12741275787E+03  0.24254086269E+02  0.79523190877E+02  0.17217475729E+03  0.80609785958E+02 0.  0.
          6    2    1    2  501    0 -0.16670232752E+03 -0.54316114852E+02 -0.63618128353E+01  0.24568293941E+03  0.17198758015E+03 0.  0.
         24    2    5    5    0    0 -0.19877179263E+02 -0.23907153483E+02  0.30764773455E+02  0.91142321774E+02  0.79961223662E+02 0.  0.
          5    1    5    5  501    0 -0.14682514825E+03 -0.30408961369E+02 -0.37126586291E+02  0.15454061764E+03  0.47000000000E+01 0. -1.
        -13    1    6    6    0    0 -0.50158132203E+02 -0.82275159058E+01  0.24682445596E+02  0.56504454379E+02  0.00000000000E+00 0.  1.
         14    1    6    6    0    0  0.30280952940E+02 -0.15679637577E+02  0.60823278593E+01  0.34637867395E+02  0.00000000000E+00 0. -1.
         -5    1    3    3    0  503  0.39289569647E+02  0.30062028583E+02 -0.57761899196E+02  0.76196606515E+02  0.47000000000E+01 0.  1.
         11    1    4    4    0    0  0.35529380514E+02  0.42633630590E+02  0.12278284149E+02  0.56839419408E+02  0.00000000000E+00 0. -1.
        -12    1    4    4    0    0  0.91883377354E+02 -0.18379544321E+02  0.67244906728E+02  0.11533533788E+03  0.00000000000E+00 0.  1.
</event>
<event>
12    1  0.1066489E+000  0.1795282E+03  0.7818608E-02  0.1168425E+00
         21   -1    0    0  501  502  0.00000000000E+00  0.00000000000E+00  0.73657033010E+03  0.73657033010E+03  0.00000000000E+00 0.  1.
         21   -1    0    0  502  503 -0.00000000000E+00 -0.00000000000E+00 -0.47616636640E+02  0.47616636640E+02  0.00000000000E+00 0. -1.
         -6    2    1    2    0  503 -0.45233567281E+02  0.15201232000E+02  0.45905236017E+03  0.49290916072E+03  0.17306998087E+03 0.  0.
        -24    2    3    3    0    0 -0.16280487355E+02  0.63054793671E+02  0.17259159390E+03  0.20100146158E+03  0.79829618566E+02 0.  0.
          6    2    1    2  501    0  0.45233567281E+02 -0.15201232000E+02  0.22990133328E+03  0.29127780602E+03  0.17236874476E+03 0.  0.
         24    2    5    5    0    0  0.82213425278E+01 -0.48817940030E+02  0.58453753500E+02  0.11262632840E+03  0.82565530394E+02 0.  0.
          5    1    5    5  501    0  0.37012224753E+02  0.33616708030E+02  0.17144757978E+03  0.17865147762E+03  0.47000000000E+01 0. -1.
        -11    1    6    6    0    0  0.28308141579E+01 -0.48360606281E+02  0.78289965674E+02  0.92065631339E+02  0.00000000000E+00 0.  1.
         12    1    6    6    0    0  0.53905283699E+01 -0.45733374896E+00 -0.19836212174E+02  0.20560697062E+02  0.00000000000E+00 0. -1.
         -5    1    3    3    0  503 -0.28953079926E+02 -0.47853561671E+02  0.28646076627E+03  0.29190769914E+03  0.47000000000E+01 0.  1.
         13    1    4    4    0    0 -0.31322341438E+02  0.34756850105E+01  0.10511702922E+03  0.10973950652E+03  0.00000000000E+00 0. -1.
        -14    1    4    4    0    0  0.15041854083E+02  0.59579108661E+02  0.67474564678E+02  0.91261955061E+02  0.00000000000E+00 0.  1.
</event>
<event>
12    1  0.1066489E+000  0.1919431E+03  0.7818608E-02  0.1156749E+00
         21   -1    0    0  501  502  0.00000000000E+00  0.00000000000E+00  0.77284466734E+02  0.77284466734E+02  0.00000000000E+00 0. -1.
         21   -1    0    0  502  503 -0.00000000000E+00 -0.00000000000E+00 -0.51877517430E+03  0.51877517430E+03  0.00000000000E+00 0. -1.
         -6    2    1    2    0  503  0.61945189982E+01 -0.83416824884E+02 -0.30586932109E+03  0.36103770075E+03  0.17261355983E+03 0.  0.
        -24    2    3    3    0    0  0.70513814593E+02 -0.61273364271E+02 -0.19835160213E+03  0.23372134468E+03  0.80967188853E+02 0.  0.
          6    2    1    2  501    0 -0.61945189982E+01  0.83416824884E+02 -0.13562138647E+03  0.23502194028E+03  0.17275825076E+03 0.  0.
         24    2    5    5    0    0 -0.19887384895E+02  0.96710738042E+02 -0.27522219811E+02  0.12515045838E+03  0.71810094817E+02 0.  0.
          5    1    5    5  501    0  0.13692865897E+02 -0.13293913158E+02 -0.10809916666E+03  0.10987148191E+03  0.47000000000E+01 0. -1.
        -13    1    6    6    0    0  0.26033884924E+02  0.20870595969E+02 -0.92876988771E+01  0.34635332982E+02  0.00000000000E+00 0.  1.
         14    1    6    6    0    0 -0.45921269819E+02  0.75840142073E+02 -0.18234520934E+02  0.90515125394E+02  0.00000000000E+00 0. -1.
         -5    1    3    3    0  503 -0.64319295595E+02 -0.22143460613E+02 -0.10751771896E+03  0.12731635607E+03  0.47000000000E+01 0.  1.
         11    1    4    4    0    0  0.27014620750E+02 -0.70754500270E+02 -0.97334993966E+02  0.12332919400E+03  0.00000000000E+00 0. -1.
        -12    1    4    4    0    0  0.43499193843E+02  0.94811359990E+01 -0.10101660817E+03  0.11039215068E+03  0.00000000000E+00 0.  1.
</event>
<event>
12    1  0.1066489E+000  0.1747959E+03  0.7818608E-02  0.1173121E+00
         21   -1    0    0  501  502  0.00000000000E+00  0.00000000000E+00  0.64187335868E+03  0.64187335868E+03  0.00000000000E+00 0. -1.
         21   -1    0    0  502  503 -0.00000000000E+00 -0.00000000000E+00 -0.57853800959E+02  0.57853800959E+02  0.00000000000E+00 0. -1.
         -6    2    1    2    0  503  0.42481063517E+01 -0.28265556152E+02  0.44121614932E+03  0.47457906963E+03  0.17244307710E+03 0.  0.
        -24    2    3    3    0    0 -0.15318617691E+02 -0.82256982865E+02  0.32510673156E+03  0.34495878673E+03  0.79380768163E+02 0.  0.
          6    2    1    2  501    0 -0.42481063517E+01  0.28265556152E+02  0.14280340841E+03  0.22514809002E+03  0.17170282733E+03 0.  0.
         24    2    5    5    0    0  0.56759043674E+02  0.49870671048E+02  0.81681757563E+02  0.13600438835E+03  0.78208767175E+02 0.  0.
          5    1    5    5  501    0 -0.61007150026E+02 -0.21605114895E+02  0.61121650846E+02  0.89143701662E+02  0.47000000000E+01 0. -1.
        -11    1    6    6    0    0  0.23697804643E+02 -0.19360718960E+02  0.33675226514E+02  0.45502134723E+02  0.00000000000E+00 0.  1.
         12    1    6    6    0    0  0.33061239032E+02  0.69231390008E+02  0.48006531048E+02  0.90502253630E+02  0.00000000000E+00 0. -1.
         -5    1    3    3    0  503  0.19566724043E+02  0.53991426713E+02  0.11610941775E+03  0.12962028290E+03  0.47000000000E+01 0.  1.
         11    1    4    4    0    0  0.72751983479E+01 -0.17510733286E+02  0.21086361186E+03  0.21171447068E+03  0.00000000000E+00 0. -1.
        -12    1    4    4    0    0 -0.22593816039E+02 -0.64746249579E+02  0.11424311971E+03  0.13324431604E+03  0.00000000000E+00 0.  1.
</event>
<event>
12    1  0.1066489E+000  0.1967803E+03  0.7818608E-02  0.1152671E+00
         21   -1    0    0  501  502  0.00000000000E+00  0.00000000000E+00  0.45096258914E+03  0.45096258914E+03  0.00000000000E+00 0. -1.
         21   -1    0    0  502  503 -0.00000000000E+00 -0.00000000000E+00 -0.96627912197E+02  0.96627912197E+02  0.00000000000E+00 0. -1.
         -6    2    1    2    0  503  0.25705858896E+02  0.90913402693E+02  0.26978167153E+03  0.33341370488E+03  0.17162899037E+03 0.  0.
        -24    2    3    3    0    0 -0.11975867711E+02  0.30145245413E+02  0.45765960864E+02  0.98216319510E+02  0.80621120159E+02 0.  0.
          6    2    1    2  501    0 -0.25705858896E+02 -0.90913402693E+02  0.84553005413E+02  0.21417679646E+03  0.17261648660E+03 0.  0.
         24    2    5    5    0    0 -0.30299490648E+02 -0.20994708762E+02 -0.18586344540E+02  0.89398830765E+02  0.79296039051E+02 0.  0.
          5    1    5    5  501    0  0.45936317524E+01 -0.69918693931E+02  0.10313934995E+03  0.12477796569E+03  0.47000000000E+01 0. -1.
        -11    1    6    6    0    0 -0.21037887503E+02 -0.37540595385E+02  0.19199432334E+02  0.47122258163E+02  0.00000000000E+00 0.  1.
         12    1    6    6    0    0 -0.92616031448E+01  0.16545886623E+02 -0.37785776874E+02  0.42276572602E+02  0.00000000000E+00 0. -1.
         -5    1    3    3    0  503  0.37681726606E+02  0.60768157280E+02  0.22401571066E+03  0.23519738537E+03  0.47000000000E+01 0.  1.
         11    1    4    4    0    0 -0.19587933158E+02  0.48036806074E+02  0.55922907369E+02  0.76279705242E+02  0.00000000000E+00 0. -1.
        -12    1    4    4    0    0  0.76120654473E+01 -0.17891560661E+02 -0.10156946504E+02  0.21936614268E+02  0.00000000000E+00 0.  1.
</event>
<event>
12    1  0.1066489E+000  0.2106099E+03  0.7818608E-02  0.1143986E+00
         21   -1    0    0  503  502  0.00000000000E+00  0.00000000000E+00  0.18622749413E+03  0.18622749413E+03  0.00000000000E+00 0. -1.
         21   -1    0    0  501  503 -0.00000000000E+00 -0.00000000000E+00 -0.29404560708E+03  0.29404560708E+03  0.00000000000E+00 0. -1.
          6    2    1    2  501    0 -0.48998935853E+01 -0.86270284700E+02  0.63132011679E+02  0.21986852359E+03  0.19206755527E+03 0.  0.
         24    2    3    3    0    0  0.44123414658E+01 -0.13726810152E+03  0.27069291861E+02  0.15654313530E+03  0.70078571589E+02 0.  0.
         -6    2    1    2    0  502  0.48998935853E+01  0.86270284700E+02 -0.17095012462E+03  0.26040457762E+03  0.17640869582E+03 0.  0.
        -24    2    5    5    0    0 -0.32857359840E+02  0.24128781995E+02 -0.16465336213E+03  0.18726829550E+03  0.79352886666E+02 0.  0.
          5    1    3    3  501    0 -0.93122350511E+01  0.50997816817E+02  0.36062719818E+02  0.63325388292E+02  0.47000000000E+01 0. -1.
        -11    1    4    4    0    0  0.56873404697E+01 -0.91483350749E+02  0.50971289259E+02  0.10487908101E+03  0.00000000000E+00 0.  1.
         12    1    4    4    0    0 -0.12749990039E+01 -0.45784750768E+02 -0.23901997398E+02  0.51664054283E+02  0.00000000000E+00 0. -1.
         -5    1    5    5    0  502  0.37757253425E+02  0.62141502705E+02 -0.62967624894E+01  0.73136282121E+02  0.47000000000E+01 0.  1.
         13    1    6    6    0    0 -0.43297738914E+02  0.74479314095E+01 -0.35111904365E+02  0.56240658829E+02  0.00000000000E+00 0. -1.
        -14    1    6    6    0    0  0.10440379074E+02  0.16680850585E+02 -0.12954145777E+03  0.13102763667E+03  0.00000000000E+00 0.  1.
</event>
<event>
12    1  0.1066489E+000  0.2265099E+03  0.7818608E-02  0.1129271E+00
         21   -1    0    0  503  502  0.00000000000E+00  0.00000000000E+00  0.90728730373E+03  0.90728730373E+03  0.00000000000E+00 0. -1.
         21   -1    0    0  501  503 -0.00000000000E+00 -0.00000000000E+00 -0.65047695163E+02  0.65047695163E+02  0.00000000000E+00 0. -1.
          6    2    1    2  501    0  0.33311778104E+02  0.14352863955E+03  0.59831127031E+03  0.63945702111E+03  0.17093496053E+03 0.  0.
         24    2    3    3    0    0  0.19485444385E+02  0.16977059877E+03  0.57197987904E+03  0.59951656425E+03  0.55293670897E+02 0.  0.
         -6    2    1    2    0  502 -0.33311778104E+02 -0.14352863955E+03  0.24392833826E+03  0.33287797779E+03  0.17203653379E+03 0.  0.
        -24    2    5    5    0    0  0.27849676345E+02 -0.37633504301E+02  0.52672670570E+02  0.10582000369E+03  0.78940343530E+02 0.  0.
          5    1    3    3  501    0  0.13826333719E+02 -0.26241959213E+02  0.26331391274E+02  0.39940456856E+02  0.47000000000E+01 0. -1.
        -11    1    4    4    0    0  0.33249060453E+02  0.13478901860E+03  0.39789216992E+03  0.42141637182E+03  0.00000000000E+00 0.  1.
         12    1    4    4    0    0 -0.13763616068E+02  0.34981580170E+02  0.17408770912E+03  0.17810019243E+03  0.00000000000E+00 0. -1.
         -5    1    5    5    0  502 -0.61161454449E+02 -0.10589513525E+03  0.19125566769E+03  0.22705797410E+03  0.47000000000E+01 0.  1.
         11    1    6    6    0    0  0.13785322280E+02 -0.25670722062E+02  0.72855166656E+02  0.78465893164E+02  0.00000000000E+00 0. -1.
        -12    1    6    6    0    0  0.14064354065E+02 -0.11962782238E+02 -0.20182496086E+02  0.27354110521E+02  0.00000000000E+00 0.  1.
</event>
<event>
12    1  0.1066489E+000  0.2425096E+03  0.7818608E-02  0.1118155E+00
         21   -1    0    0  503  502  0.00000000000E+00  0.00000000000E+00  0.56647631416E+03  0.56647631416E+03  0.00000000000E+00 0. -1.
         21   -1    0    0  501  503 -0.00000000000E+00 -0.00000000000E+00 -0.11681941635E+03  0.11681941635E+03  0.00000000000E+00 0. -1.
          6    2    1    2  501    0  0.15743834387E+03  0.66428043103E+02  0.33900873783E+03  0.41673634825E+03  0.17188002384E+03 0.  0.
         24    2    3    3    0    0  0.17188690016E+03  0.58505189353E+02  0.34556263452E+03  0.39839034183E+03  0.79582450701E+02 0.  0.
         -6    2    1    2    0  502 -0.15743834387E+03 -0.66428043103E+02  0.11064815997E+03  0.26655938226E+03  0.17207955117E+03 0.  0.
        -24    2    5    5    0    0 -0.14518618979E+03 -0.64789223474E+02  0.14487015036E+03  0.22987102394E+03  0.81096572053E+02 0.  0.
          5    1    3    3  501    0 -0.14448556282E+02  0.79228537495E+01 -0.65538966820E+01  0.18346006429E+02  0.47000000000E+01 0. -1.
        -13    1    4    4    0    0  0.12257907538E+03  0.22250181379E+01  0.23183114134E+03  0.26225228030E+03  0.00000000000E+00 0.  1.
         14    1    4    4    0    0  0.49307824774E+02  0.56280171215E+02  0.11373149317E+03  0.13613806152E+03  0.00000000000E+00 0. -1.
         -5    1    5    5    0  502 -0.12252154081E+02 -0.16388196290E+01 -0.34221990389E+02  0.36688358312E+02  0.47000000000E+01 0.  1.
         13    1    6    6    0    0 -0.88119836424E+02 -0.57127961889E+02  0.13566340139E+03  0.17156126625E+03  0.00000000000E+00 0. -1.
        -14    1    6    6    0    0 -0.57066353368E+02 -0.76612615849E+01  0.92067489738E+01  0.58309757695E+02  0.00000000000E+00 0.  1.
</event>
<event>
12    1  0.1066489E+000  0.1826539E+03  0.7818608E-02  0.1165440E+00
         21   -1    0    0  501  502  0.00000000000E+00  0.00000000000E+00  0.19500360705E+04  0.19500360705E+04  0.00000000000E+00 0.  1.
         21   -1    0    0  502  503 -0.00000000000E+00 -0.00000000000E+00 -0.17678903967E+02  0.17678903967E+02  0.00000000000E+00 0.  1.
         -6    2    1    2    0  503 -0.31292844935E+02  0.52392449202E+02  0.77681538861E+03  0.79782640459E+03  0.17134938868E+03 0.  0.
        -24    2    3    3    0    0 -0.21899399146E+02  0.15906466993E+02  0.74042538312E+03  0.74523566185E+03  0.80086480506E+02 0.  0.
          6    2    1    2  501    0  0.31292844935E+02 -0.52392449202E+02  0.11555417779E+04  0.11698885698E+04  0.17215764441E+03 0.  0.
         24    2    5    5    0    0  0.13780420226E+02 -0.14012630638E+02  0.23044717138E+03  0.24382063687E+03  0.77177395443E+02 0.  0.
          5    1    5    5  501    0  0.17512424709E+02 -0.38379818564E+02  0.92509460650E+03  0.92606793296E+03  0.47000000000E+01 0. -1.
        -11    1    6    6    0    0 -0.31765951912E+02 -0.12251881048E+02  0.10074228970E+03  0.10633998883E+03  0.00000000000E+00 0.  1.
         12    1    6    6    0    0  0.45546372138E+02 -0.17607495901E+01  0.12970488168E+03  0.13748064804E+03  0.00000000000E+00 0. -1.
         -5    1    3    3    0  503 -0.93934457883E+01  0.36485982210E+02  0.36390005492E+02  0.52590742733E+02  0.47000000000E+01 0.  1.
         13    1    4    4    0    0  0.90703447256E+00 -0.14705616329E+02  0.26742571507E+02  0.30532654552E+02  0.00000000000E+00 0. -1.
        -14    1    4    4    0    0 -0.22806433619E+02  0.30612083322E+02  0.71368281161E+03  0.71470300730E+03  0.00000000000E+00 0.  1.
</event>
<event>
12    1  0.1066489E+000  0.2037287E+03  0.7818608E-02  0.1147260E+00
         21   -1    0    0  501  502  0.00000000000E+00  0.00000000000E+00  0.16804225267E+03  0.16804225267E+03  0.00000000000E+00 0.  1.
         21   -1    0    0  502  503 -0.00000000000E+00 -0.00000000000E+00 -0.31222910767E+03  0.31222910767E+03  0.00000000000E+00 0.  1.
         -6    2    1    2    0  503  0.10076325373E+03 -0.26340930873E+02  0.41129032654E+02  0.20486737954E+03  0.17155747704E+03 0.  0.
        -24    2    3    3    0    0  0.68777012841E+02 -0.40283710405E+01 -0.41199374254E+02  0.11364771873E+03  0.80448183732E+02 0.  0.
          6    2    1    2  501    0 -0.10076325373E+03  0.26340930873E+02 -0.18531588765E+03  0.27540398081E+03  0.17509510698E+03 0.  0.
         24    2    5    5    0    0 -0.13044974525E+02  0.45544996452E+02 -0.14902131649E+03  0.17843657114E+03  0.85951958030E+02 0.  0.
          5    1    5    5  501    0 -0.87718279210E+02 -0.19204065578E+02 -0.36294571160E+02  0.96967409669E+02  0.47000000000E+01 0. -1.
        -11    1    6    6    0    0 -0.37422566010E+02  0.58020058232E+02 -0.90534394570E+02  0.11385627872E+03  0.00000000000E+00 0.  1.
         12    1    6    6    0    0  0.24377591486E+02 -0.12475061780E+02 -0.58486921925E+02  0.64580292422E+02  0.00000000000E+00 0. -1.
         -5    1    3    3    0  503  0.31986240894E+02 -0.22312559833E+02  0.82328406908E+02  0.91219660802E+02  0.47000000000E+01 0.  1.
         11    1    4    4    0    0  0.88434428114E+01 -0.19966053413E+02 -0.46533277619E+02  0.51402292708E+02  0.00000000000E+00 0. -1.
        -12    1    4    4    0    0  0.59933570030E+02  0.15937682373E+02  0.53339033652E+01  0.62245426025E+02  0.00000000000E+00 0.  1.
</event>
<event>
12    1  0.1066489E+000  0.2350986E+03  0.7818608E-02  0.1123343E+00
         21   -1    0    0  503  502  0.00000000000E+00  0.00000000000E+00  0.49656818631E+03  0.49656818631E+03  0.00000000000E+00 0.  1.
         21   -1    0    0  501  503 -0.00000000000E+00 -0.00000000000E+00 -0.14043202248E+03  0.14043202248E+03  0.00000000000E+00 0.  1.
          6    2    1    2  501    0  0.40816895623E+02  0.15372233041E+03  0.30951309973E+02  0.23573151886E+03  0.17121562885E+03 0.  0.
         24    2    3    3    0    0  0.55501743326E+02  0.17918328981E+03  0.26190415365E+02  0.20558750912E+03  0.79957433616E+02 0.  0.
         -6    2    1    2    0  502 -0.40816895623E+02 -0.15372233041E+03  0.32518485386E+03  0.40126868994E+03  0.17313231504E+03 0.  0.
        -24    2    5    5    0    0 -0.23142331520E+02 -0.15957100160E+03  0.33473818550E+03  0.37982216769E+03  0.78846396084E+02 0.  0.
          5    1    3    3  501    0 -0.14684847703E+02 -0.25460959402E+02  0.47608946081E+01  0.30144009740E+02  0.47000000000E+01 0. -1.
        -11    1    4    4    0    0  0.11830483511E+02  0.18537373309E+02 -0.23173411241E+02  0.31946854897E+02  0.00000000000E+00 0.  1.
         12    1    4    4    0    0  0.43671259815E+02  0.16064591650E+03  0.49363826605E+02  0.17364065422E+03  0.00000000000E+00 0. -1.
         -5    1    5    5    0  502 -0.17674564103E+02  0.58486711936E+01 -0.95533316448E+01  0.21446522247E+02  0.47000000000E+01 0.  1.
         13    1    6    6    0    0 -0.18462834323E+02 -0.91005174175E+02  0.10570243785E+03  0.14069763091E+03  0.00000000000E+00 0. -1.
        -14    1    6    6    0    0 -0.46794971967E+01 -0.68565827425E+02  0.22903574766E+03  0.23912453678E+03  0.00000000000E+00 0.  1.
</event>
<event>
12    1  0.1066489E+000  0.8790747E+03  0.7818608E-02  0.9452235E-01
         21   -1    0    0  501  502  0.00000000000E+00  0.00000000000E+00  0.75592465448E+03  0.75592465448E+03  0.00000000000E+00 0.  1.
         21   -1    0    0  502  503 -0.00000000000E+00 -0.00000000000E+00 -0.12954969764E+04  0.12954969764E+04  0.00000000000E+00 0.  1.
         -6    2    1    2    0  503  0.79449492402E+03  0.33442299509E+03  0.20163717547E+03  0.90156781332E+03  0.17060494580E+03 0.  0.
        -24    2    3    3    0    0  0.50171169771E+03  0.20817184543E+03  0.19485392814E+03  0.58261723275E+03  0.80153862864E+02 0.  0.
          6    2    1    2  501    0 -0.79449492402E+03 -0.33442299509E+03 -0.74120949734E+03  0.11498538175E+04  0.17236983135E+03 0.  0.
         24    2    5    5    0    0 -0.24781595534E+03 -0.10635214965E+03 -0.30728118558E+03  0.41555818557E+03  0.74453684458E+02 0.  0.
          5    1    5    5  501    0 -0.54667896868E+03 -0.22807084544E+03 -0.43392831177E+03  0.73429563194E+03  0.47000000000E+01 0. -1.
        -11    1    6    6    0    0 -0.58366629951E+01  0.96626033357E+01 -0.10120461706E+02  0.15161011948E+02  0.00000000000E+00 0.  1.
         12    1    6    6    0    0 -0.24197929235E+03 -0.11601475299E+03 -0.29716072387E+03  0.40039717363E+03  0.00000000000E+00 0. -1.
         -5    1    3    3    0  503  0.29278322631E+03  0.12625114966E+03  0.67832473309E+01  0.31895058057E+03  0.47000000000E+01 0.  1.
         11    1    4    4    0    0  0.18825426332E+03  0.68135136089E+02  0.32416970556E+02  0.20281253514E+03  0.00000000000E+00 0. -1.
        -12    1    4    4    0    0  0.31345743439E+03  0.14003670934E+03  0.16243695759E+03  0.37980469761E+03  0.00000000000E+00 0.  1.
</event>
<event>
12    1  0.1066489E+000  0.1949583E+03  0.7818608E-02  0.1154539E+00
         21   -1    0    0  503  502  0.00000000000E+00  0.00000000000E+00  0.45346144917E+03  0.45346144917E+03  0.00000000000E+00 0.  1.
         21   -1    0    0  501  503 -0.00000000000E+00 -0.00000000000E+00 -0.10389256965E+03  0.10389256965E+03  0.00000000000E+00 0.  1.
          6    2    1    2  501    0 -0.86094777327E+02  0.11995026039E+02  0.29930144713E+03  0.35601956360E+03  0.17208248626E+03 0.  0.
         24    2    3    3    0    0 -0.18729983565E+02 -0.49460340796E+02  0.19344891033E+03  0.21622819370E+03  0.80839428789E+02 0.  0.
         -6    2    1    2    0  502  0.86094777327E+02 -0.11995026039E+02  0.50267432394E+02  0.20133445522E+03  0.17450660952E+03 0.  0.
        -24    2    5    5    0    0 -0.67741643520E+01  0.37985810617E+02  0.33592195820E+02  0.94456590921E+02  0.79402776006E+02 0.  0.
          5    1    3    3  501    0 -0.67364793762E+02  0.61455366835E+02  0.10585253680E+03  0.13979136990E+03  0.47000000000E+01 0. -1.
        -11    1    4    4    0    0  0.28629706787E+02 -0.17167377630E+02  0.38177628103E+02  0.50714004506E+02  0.00000000000E+00 0.  1.
         12    1    4    4    0    0 -0.47359690352E+02 -0.32292963166E+02  0.15527128223E+03  0.16551418919E+03  0.00000000000E+00 0. -1.
         -5    1    5    5    0  502  0.92868941679E+02 -0.49980836656E+02  0.16675236575E+02  0.10687786429E+03  0.47000000000E+01 0.  1.
         11    1    6    6    0    0  0.25788424731E+02 -0.11840563289E+02  0.15000555584E+02  0.32097639429E+02  0.00000000000E+00 0. -1.
        -12    1    6    6    0    0 -0.32562589083E+02  0.49826373906E+02  0.18591640236E+02  0.62358951492E+02  0.00000000000E+00 0.  1.
</event>
<event>
12    1  0.1066489E+000  0.2172139E+03  0.7818608E-02  0.1136024E+00
         21   -1    0    0  503  502  0.00000000000E+00  0.00000000000E+00  0.10518469531E+04  0.10518469531E+04  0.00000000000E+00 0.  1.
         21   -1    0    0  501  503 -0.00000000000E+00 -0.00000000000E+00 -0.63343059354E+02  0.63343059354E+02  0.00000000000E+00 0.  1.
          6    2    1    2  501    0 -0.10062491466E+03  0.86290044411E+02  0.79569947661E+03  0.82474992767E+03  0.17176565695E+03 0.  0.
         24    2    3    3    0    0 -0.15791775490E+02  0.98498389106E+02  0.54689794016E+03  0.56155798304E+03  0.79364340431E+02 0.  0.
         -6    2    1    2    0  502  0.10062491466E+03 -0.86290044411E+02  0.19280441718E+03  0.29044008482E+03  0.17207717563E+03 0.  0.
        -24    2    5    5    0    0  0.50366370142E+02 -0.20853346897E+02  0.18314185602E+03  0.20723348792E+03  0.80206893545E+02 0.  0.
          5    1    3    3  501    0 -0.84833139174E+02 -0.12208344696E+02  0.24880153645E+03  0.26319194464E+03  0.47000000000E+01 0. -1.
        -13    1    4    4    0    0 -0.35675451589E+02  0.60520525266E+02  0.19915731583E+03  0.21118500959E+03  0.00000000000E+00 0.  1.
         14    1    4    4    0    0  0.19883676099E+02  0.37977863841E+02  0.34774062433E+03  0.35037297345E+03  0.00000000000E+00 0. -1.
         -5    1    5    5    0  502  0.50258544521E+02 -0.65436697514E+02  0.96625611553E+01  0.83206596896E+02  0.47000000000E+01 0.  1.
         11    1    6    6    0    0  0.30079843249E+02 -0.47056320861E+02  0.71204922099E+02  0.90494393384E+02  0.00000000000E+00 0. -1.
        -12    1    6    6    0    0  0.20286526893E+02  0.26202973965E+02  0.11193693392E+03  0.11673909454E+03  0.00000000000E+00 0.  1.
</event>
<event>
12    1  0.1066489E+000  0.1727319E+03  0.7818608E-02  0.1175751E+00
         21   -1    0    0  503  502  0.00000000000E+00  0.00000000000E+00  0.13234268415E+04  0.13234268415E+04  0.00000000000E+00 0. -1.
         21   -1    0    0  501  503 -0.00000000000E+00 -0.00000000000E+00 -0.29042138387E+02  0.29042138387E+02  0.00000000000E+00 0. -1.
          6    2    1    2  501    0 -0.18885564322E+02 -0.23527275538E+02  0.97184224462E+03  0.98658656053E+03  0.16722887232E+03 0.  0.
         24    2    3    3    0    0 -0.32538041934E+02 -0.15082160477E+02  0.96427418062E+03  0.96822693890E+03  0.79702660387E+02 0.  0.
         -6    2    1    2    0  502  0.18885564322E+02  0.23527275538E+02  0.32254245847E+03  0.36588241934E+03  0.17007677688E+03 0.  0.
        -24    2    5    5    0    0  0.22783590375E+02  0.64475997319E+02  0.30217200774E+03  0.31974092299E+03  0.79057506618E+02 0.  0.
          5    1    3    3  501    0  0.13652477612E+02 -0.84451150613E+01  0.75680640076E+01  0.18359621624E+02  0.47000000000E+01 0. -1.
        -13    1    4    4    0    0 -0.77566014744E+01 -0.26188733440E+02  0.86127239750E+03  0.86170537733E+03  0.00000000000E+00 0.  1.
         14    1    4    4    0    0 -0.24781440459E+02  0.11106572963E+02  0.10300178312E+03  0.10652156157E+03  0.00000000000E+00 0. -1.
         -5    1    5    5    0  502 -0.38980260536E+01 -0.40948721780E+02  0.20370450727E+02  0.46141496350E+02  0.47000000000E+01 0.  1.
         11    1    6    6    0    0  0.29670967460E+02  0.15291101549E+02  0.22829178394E+03  0.23071914249E+03  0.00000000000E+00 0. -1.
        -12    1    6    6    0    0 -0.68873770848E+01  0.49184895769E+02  0.73880223805E+02  0.89021780506E+02  0.00000000000E+00 0.  1.
</event>
<event>
12    1  0.1066489E+000  0.1787905E+03  0.7818608E-02  0.1169285E+00
         21   -1    0    0  503  502  0.00000000000E+00  0.00000000000E+00  0.14960674625E+04  0.14960674625E+04  0.00000000000E+00 0. -1.
         21   -1    0    0  501  503 -0.00000000000E+00 -0.00000000000E+00 -0.22398509205E+02  0.22398509205E+02  0.00000000000E+00 0. -1.
          6    2    1    2  501    0 -0.15440468113E+02  0.50035036510E+02  0.90871253816E+03  0.92589379149E+03  0.16964351792E+03 0.  0.
         24    2    3    3    0    0  0.20480057993E+02  0.28092961987E+02  0.23138249588E+03  0.24724084999E+03  0.79884486700E+02 0.  0.
         -6    2    1    2    0  502  0.15440468113E+02 -0.50035036510E+02  0.56495641509E+03  0.59257218017E+03  0.17095065027E+03 0.  0.
        -24    2    5    5    0    0  0.70827475939E+02 -0.56137269767E+01  0.35608611318E+03  0.37191437633E+03  0.80466999711E+02 0.  0.
          5    1    3    3  501    0 -0.35920526106E+02  0.21942074523E+02  0.67733004228E+03  0.67865294150E+03  0.47000000000E+01 0. -1.
        -11    1    4    4    0    0  0.69977758940E+01  0.43233290446E+02  0.21932091042E+03  0.22365095130E+03  0.00000000000E+00 0.  1.
         12    1    4    4    0    0  0.13482282099E+02 -0.15140328458E+02  0.12061585464E+02  0.23589898693E+02  0.00000000000E+00 0. -1.
         -5    1    5    5    0  502 -0.55387007826E+02 -0.44421309534E+02  0.20887030191E+03  0.22065780384E+03  0.47000000000E+01 0.  1.
         11    1    6    6    0    0  0.31166557661E+02  0.32528927652E+02  0.22959387488E+03  0.23397186334E+03  0.00000000000E+00 0. -1.
        -12    1    6    6    0    0  0.39660918277E+02 -0.38142654628E+02  0.12649223830E+03  0.13794251299E+03  0.00000000000E+00 0.  1.
</event>
<event>
12    1  0.1066489E+000  0.1874891E+03  0.7818608E-02  0.1160883E+00
         21   -1    0    0  501  502  0.00000000000E+00  0.00000000000E+00  0.82131602047E+03  0.82131602047E+03  0.00000000000E+00 0.  1.
         21   -1    0    0  502  503 -0.00000000000E+00 -0.00000000000E+00 -0.43638325900E+02  0.43638325900E+02  0.00000000000E+00 0.  1.
         -6    2    1    2    0  503 -0.22282727165E+02 -0.69337698552E+02  0.32359551297E+03  0.37368782036E+03  0.17211709589E+03 0.  0.
        -24    2    3    3    0    0 -0.48056832233E+02 -0.94347277640E+02  0.17073432613E+03  0.21659416682E+03  0.80944147783E+02 0.  0.
          6    2    1    2  501    0  0.22282727165E+02  0.69337698552E+02  0.45408218160E+03  0.49126652601E+03  0.17276555086E+03 0.  0.
         24    2    5    5    0    0 -0.19615714761E+02 -0.24038258726E+02  0.23644508542E+03  0.25072018023E+03  0.77406176820E+02 0.  0.
          5    1    5    5  501    0  0.41898441926E+02  0.93375957278E+02  0.21763709618E+03  0.24054634578E+03  0.47000000000E+01 0. -1.
        -13    1    6    6    0    0  0.36190004137E+01  0.19132219402E+02  0.16946743090E+02  0.25813389638E+02  0.00000000000E+00 0.  1.
         14    1    6    6    0    0 -0.23234715175E+02 -0.43170478128E+02  0.21949834233E+03  0.22490679060E+03  0.00000000000E+00 0. -1.
         -5    1    3    3    0  503  0.25774105068E+02  0.25009579088E+02  0.15286118685E+03  0.15709365354E+03  0.47000000000E+01 0.  1.
         11    1    4    4    0    0 -0.12871858860E+02 -0.97131393959E+02  0.12503311877E+03  0.15885047445E+03  0.00000000000E+00 0. -1.
        -12    1    4    4    0    0 -0.35184973373E+02  0.27841163193E+01  0.45701207359E+02  0.57743692374E+02  0.00000000000E+00 0.  1.
</event>
<event>
12    1  0.1066489E+000  0.3387307E+03  0.7818608E-02  0.1067341E+00
         21   -1    0    0  501  502  0.00000000000E+00  0.00000000000E+00  0.56375517352E+03  0.56375517352E+03  0.00000000000E+00 0.  1.
         21   -1    0    0  502  503 -0.00000000000E+00 -0.00000000000E+00 -0.20476588784E+03  0.20476588784E+03  0.00000000000E+00 0.  1.
         -6    2    1    2    0  503 -0.15193561316E+01  0.29207257634E+03  0.20962449009E+03  0.39834776449E+03  0.17155120615E+03 0.  0.
        -24    2    3    3    0    0  0.16565443627E+02  0.13161274568E+03  0.41901162376E+02  0.16547951440E+03  0.89618265605E+02 0.  0.
          6    2    1    2  501    0  0.15193561316E+01 -0.29207257634E+03  0.14936479559E+03  0.37017329687E+03  0.17149265076E+03 0.  0.
         24    2    5    5    0    0  0.19724383966E+02 -0.22136855901E+03  0.41567414986E+02  0.23989341980E+03  0.80174264158E+02 0.  0.
          5    1    5    5  501    0 -0.18205027834E+02 -0.70704017324E+02  0.10779738060E+03  0.13027987707E+03  0.47000000000E+01 0. -1.
        -11    1    6    6    0    0 -0.16904505442E+02 -0.62358316558E+01  0.23868354154E+01  0.18175392265E+02  0.00000000000E+00 0.  1.
         12    1    6    6    0    0  0.36628889408E+02 -0.21513272736E+03  0.39180579570E+02  0.22171802753E+03  0.00000000000E+00 0. -1.
         -5    1    3    3    0  503 -0.18084799758E+02  0.16045983065E+03  0.16772332772E+03  0.23286825008E+03  0.47000000000E+01 0.  1.
         13    1    4    4    0    0  0.28673781468E+02  0.34150375003E+02  0.49926005241E+02  0.66940569581E+02  0.00000000000E+00 0. -1.
        -14    1    4    4    0    0 -0.12108337842E+02  0.97462370679E+02 -0.80248428644E+01  0.98538944822E+02  0.00000000000E+00 0.  1.
</event>
<event>
12    1  0.1066489E+000  0.2882165E+03  0.7818608E-02  0.1091616E+00
         21   -1    0    0  501  502  0.00000000000E+00  0.00000000000E+00  0.78985904616E+02  0.78985904616E+02  0.00000000000E+00 0. -1.
         21   -1    0    0  502  503 -0.00000000000E+00 -0.00000000000E+00 -0.10644248779E+04  0.10644248779E+04  0.00000000000E+00 0. -1.
         -6    2    1    2    0  503  0.19624440062E+03  0.11751477052E+03 -0.40862580016E+03  0.49859904119E+03  0.17118520162E+03 0.  0.
        -24    2    3    3    0    0  0.92843442389E+02 -0.69755581120E+01 -0.14760090430E+03  0.19144161194E+03  0.78710232026E+02 0.  0.
          6    2    1    2  501    0 -0.19624440062E+03 -0.11751477052E+03 -0.57681317314E+03  0.64481174134E+03  0.17534867837E+03 0.  0.
         24    2    5    5    0    0 -0.42104637156E+02 -0.29759035838E+02 -0.31265550335E+03  0.32659561957E+03  0.79074864934E+02 0.  0.
          5    1    5    5  501    0 -0.15413976346E+03 -0.87755734678E+02 -0.26415766978E+03  0.31821612177E+03  0.47000000000E+01 0. -1.
        -11    1    6    6    0    0 -0.50963985173E+02  0.71913815577E+01 -0.22903415455E+03  0.23474600679E+03  0.00000000000E+00 0.  1.
         12    1    6    6    0    0  0.88593480164E+01 -0.36950417396E+02 -0.83621348798E+02  0.91849612780E+02  0.00000000000E+00 0. -1.
         -5    1    3    3    0  503  0.10340095823E+03  0.12449032863E+03 -0.26102489586E+03  0.30715742925E+03  0.47000000000E+01 0.  1.
         13    1    4    4    0    0  0.68475421043E+02  0.77485204247E+01 -0.14768362120E+03  0.16297047225E+03  0.00000000000E+00 0. -1.
        -14    1    4    4    0    0  0.24368021346E+02 -0.14724078537E+02  0.82716894856E-01  0.28471139689E+02  0.00000000000E+00 0.  1.
</event>
<event>
12    1  0.1066489E+000  0.1928809E+03  0.7818608E-02  0.1156524E+00
         21   -1    0    0  501  502  0.00000000000E+00  0.00000000000E+00  0.26194164852E+03  0.26194164852E+03  0.00000000000E+00 0. -1.
         21   -1    0    0  502  503 -0.00000000000E+00 -0.00000000000E+00 -0.14054586259E+03  0.14054586259E+03  0.00000000000E+00 0. -1.
         -6    2    1    2    0  503 -0.87899249746E+02 -0.76781334465E+01  0.74407652788E+02  0.20673542034E+03  0.17151618988E+03 0.  0.
        -24    2    3    3    0    0 -0.89128342653E+02 -0.21285584084E+02  0.11264489281E+03  0.16585938939E+03  0.80146912722E+02 0.  0.
          6    2    1    2  501    0  0.87899249746E+02  0.76781334465E+01  0.46988133146E+02  0.19575209076E+03  0.16830259815E+03 0.  0.
         24    2    5    5    0    0  0.27664708815E+02  0.22920040821E+02  0.86829739051E+02  0.12179291809E+03  0.77481913556E+02 0.  0.
          5    1    5    5  501    0  0.60234540930E+02 -0.15241907374E+02 -0.39841605904E+02  0.73959172673E+02  0.47000000000E+01 0. -1.
        -11    1    6    6    0    0  0.19255748828E+02 -0.19274188637E+02  0.70831829725E+02  0.75890884253E+02  0.00000000000E+00 0.  1.
         12    1    6    6    0    0  0.84089599875E+01  0.42194229458E+02  0.15997909326E+02  0.45902033837E+02  0.00000000000E+00 0. -1.
         -5    1    3    3    0  503  0.12290929078E+01  0.13607450638E+02 -0.38237240018E+02  0.40876030953E+02  0.47000000000E+01 0.  1.
         13    1    4    4    0    0 -0.57933178713E+02  0.17677164168E+02  0.95492639295E+02  0.11308218024E+03  0.00000000000E+00 0. -1.
        -14    1    4    4    0    0 -0.31195163941E+02 -0.38962748253E+02  0.17152253510E+02  0.52777209145E+02  0.00000000000E+00 0.  1.
</event>
<event>
12    1  0.1066489E+000  0.2361672E+03  0.7818608E-02  0.1122750E+00
         21   -1    0    0  503  502  0.00000000000E+00  0.00000000000E+00  0.43682809353E+03  0.43682809353E+03  0.00000000000E+00 0.  1.
         21   -1    0    0  501  503 -0.00000000000E+00 -0.00000000000E+00 -0.19369436502E+03  0.19369436502E+03  0.00000000000E+00 0.  1.
          6    2    1    2  501    0  0.72471719732E+02  0.14051676640E+03  0.30763702847E+03  0.38783432552E+03  0.17543605948E+03 0.  0.
         24    2    3    3    0    0  0.61095742013E+02  0.11341945381E+03  0.11089107406E+03  0.18885006032E+03  0.82285191771E+02 0.  0.
         -6    2    1    2    0  502 -0.72471719732E+02 -0.14051676640E+03 -0.64503299970E+02  0.24268813303E+03  0.17245214526E+03 0.  0.
        -24    2    5    5    0    0 -0.44782892732E+02 -0.13777866605E+02 -0.68475218066E+02  0.11281401707E+03  0.76438274891E+02 0.  0.
          5    1    3    3  501    0  0.11375977719E+02  0.27097312596E+02  0.19674595441E+03  0.19898426520E+03  0.47000000000E+01 0. -1.
        -13    1    4    4    0    0 -0.54635150089E+01 -0.62029095718E+01  0.27137755993E+02  0.28368713114E+02  0.00000000000E+00 0.  1.
         14    1    4    4    0    0  0.66559257021E+02  0.11962236338E+03  0.83753318067E+02  0.16048134721E+03  0.00000000000E+00 0. -1.
         -5    1    5    5    0  502 -0.27688827000E+02 -0.12673889980E+03  0.39719180960E+01  0.12987411596E+03  0.47000000000E+01 0.  1.
         13    1    6    6    0    0  0.15021410903E+01 -0.94785062531E+01 -0.65538127514E+02  0.66237033951E+02  0.00000000000E+00 0. -1.
        -14    1    6    6    0    0 -0.46285033822E+02 -0.42993603523E+01 -0.29370905518E+01  0.46576983117E+02  0.00000000000E+00 0.  1.
</event>
<event>
12    1  0.1066489E+000  0.1991383E+03  0.7818608E-02  0.1150498E+00
         21   -1    0    0  501  502  0.00000000000E+00  0.00000000000E+00  0.48610270730E+03  0.48610270730E+03  0.00000000000E+00 0. -1.
         21   -1    0    0  502  503 -0.00000000000E+00 -0.00000000000E+00 -0.84159921688E+02  0.84159921688E+02  0.00000000000E+00 0. -1.
         -6    2    1    2    0  503 -0.99886881349E+02  0.48753168880E+01  0.25138407164E+03  0.32061488234E+03  0.17204299905E+03 0.  0.
        -24    2    3    3    0    0 -0.75539296130E+01  0.27203401035E+02  0.19263899351E+03  0.20882493859E+03  0.75504875847E+02 0.  0.
          6    2    1    2  501    0  0.99886881349E+02 -0.48753168880E+01  0.15055871397E+03  0.24964774665E+03  0.17220601986E+03 0.  0.
         24    2    5    5    0    0 -0.20606544074E+02 -0.91896953791E+01  0.44419555576E+02  0.88946500929E+02  0.73683803852E+02 0.  0.
          5    1    5    5  501    0  0.12049342542E+03  0.43143784911E+01  0.10613915840E+03  0.16070124572E+03  0.47000000000E+01 0. -1.
        -11    1    6    6    0    0  0.27811579653E+02 -0.60698261992E+01  0.18344494057E+02  0.33865132734E+02  0.00000000000E+00 0.  1.
         12    1    6    6    0    0 -0.48418123727E+02 -0.31198691799E+01  0.26075061519E+02  0.55081368195E+02  0.00000000000E+00 0. -1.
         -5    1    3    3    0  503 -0.92332951736E+02 -0.22328084147E+02  0.58745078129E+02  0.11178994374E+03  0.47000000000E+01 0.  1.
         11    1    4    4    0    0  0.27946867346E+02  0.33228635327E+02  0.87292139256E+02  0.97494036618E+02  0.00000000000E+00 0. -1.
        -12    1    4    4    0    0 -0.35500796959E+02 -0.60252342925E+01  0.10534685426E+03  0.11133090198E+03  0.00000000000E+00 0.  1.
</event>
<event>
12    1  0.1066489E+000  0.1860042E+03  0.7818608E-02  0.1164906E+00
         21   -1    0    0  503  502  0.00000000000E+00  0.00000000000E+00  0.36529912255E+03  0.36529912255E+03  0.00000000000E+00 0.  1.
         21   -1    0    0  501  503 -0.00000000000E+00 -0.00000000000E+00 -0.92050011287E+02  0.92050011287E+02  0.00000000000E+00 0.  1.
          6    2    1    2  501    0 -0.18617938119E+02  0.23400770475E+02  0.98476840662E+02  0.21046435074E+03  0.18358467014E+03 0.  0.
         24    2    3    3    0    0 -0.76470412096E+02  0.14795977559E+02  0.10370140452E+03  0.15155478213E+03  0.78410623069E+02 0.  0.
         -6    2    1    2    0  502  0.18617938119E+02 -0.23400770475E+02  0.17477227060E+03  0.24688478309E+03  0.17179210073E+03 0.  0.
        -24    2    5    5    0    0 -0.45121494045E+02 -0.40336636270E+02  0.62024101501E+02  0.11617985435E+03  0.77380720717E+02 0.  0.
          5    1    3    3  501    0  0.57852473977E+02  0.86047929163E+01 -0.52245638586E+01  0.58909568611E+02  0.47000000000E+01 0. -1.
        -13    1    4    4    0    0  0.85245512653E+01 -0.31449110485E+01 -0.65443083793E+01  0.11197607420E+02  0.00000000000E+00 0.  1.
         14    1    4    4    0    0 -0.84994963362E+02  0.17940888607E+02  0.11024571290E+03  0.14035717471E+03  0.00000000000E+00 0. -1.
         -5    1    5    5    0  502  0.63739432164E+02  0.16935865795E+02  0.11274816910E+03  0.13070492875E+03  0.47000000000E+01 0.  1.
         11    1    6    6    0    0 -0.45898519371E+02  0.10283437041E+02  0.23609008863E+02  0.52628969753E+02  0.00000000000E+00 0. -1.
        -12    1    6    6    0    0  0.77702532547E+00 -0.50620073310E+02  0.38415092638E+02  0.63550884594E+02  0.00000000000E+00 0.  1.
</event>
<event>
12    1  0.1066489E+000  0.1793297E+03  0.7818608E-02  0.1169126E+00
         21   -1    0    0  501  502  0.00000000000E+00  0.00000000000E+00  0.53056426968E+02  0.53056426968E+02  0.00000000000E+00 0.  1.
         21   -1    0    0  502  503 -0.00000000000E+00 -0.00000000000E+00 -0.10798713824E+04  0.10798713824E+04  0.00000000000E+00 0.  1.
         -6    2    1    2    0  503 -0.43135794798E+02 -0.22768573486E+02 -0.13238656474E+03  0.22069905936E+03  0.16971378126E+03 0.  0.
        -24    2    3    3    0    0 -0.73295987205E+02 -0.34785583868E+02 -0.14637725733E+03  0.18503569968E+03  0.78927625769E+02 0.  0.
          6    2    1    2  501    0  0.43135794798E+02  0.22768573486E+02 -0.89442839073E+03  0.91222875004E+03  0.17256894719E+03 0.  0.
         24    2    5    5    0    0  0.16805509168E+02  0.13392041370E+02 -0.87251215110E+03  0.87640117888E+03  0.79622864911E+02 0.  0.
          5    1    5    5  501    0  0.26330285630E+02  0.93765321161E+01 -0.21916239627E+02  0.35827571160E+02  0.47000000000E+01 0. -1.
        -11    1    6    6    0    0 -0.30922219323E+02  0.14511700370E+02 -0.31405614327E+03  0.31590826868E+03  0.00000000000E+00 0.  1.
         12    1    6    6    0    0  0.47727728490E+02 -0.11196589995E+01 -0.55845600783E+03  0.56049291020E+03  0.00000000000E+00 0. -1.
         -5    1    3    3    0  503  0.30160192407E+02  0.12017010381E+02  0.13990692586E+02  0.35663359679E+02  0.47000000000E+01 0.  1.
         11    1    4    4    0    0 -0.27679608326E+02  0.63289888106E+01 -0.23839001967E+01  0.28493855418E+02  0.00000000000E+00 0. -1.
        -12    1    4    4    0    0 -0.45616378879E+02 -0.41114572678E+02 -0.14399335713E+03  0.15654184427E+03  0.00000000000E+00 0.  1.
</event>
<event>
12    1  0.1066489E+000  0.1957575E+03  0.7818608E-02  0.1153870E+00
         21   -1    0    0  501  502  0.00000000000E+00  0.00000000000E+00  0.45601725281E+02  0.45601725281E+02  0.00000000000E+00 0.  1.
         21   -1    0    0  502  503 -0.00000000000E+00 -0.00000000000E+00 -0.10527050220E+04  0.10527050220E+04  0.00000000000E+00 0.  1.
         -6    2    1    2    0  503 -0.91467815898E+02  0.14694752754E+02 -0.75818459022E+03  0.78304844687E+03  0.17244912349E+03 0.  0.
        -24    2    3    3    0    0 -0.24781027893E+02  0.73149844337E+01 -0.15362393126E+03  0.17475799894E+03  0.79198722201E+02 0.  0.
          6    2    1    2  501    0  0.91467815898E+02 -0.14694752754E+02 -0.24891870651E+03  0.31525830043E+03  0.16983808887E+03 0.  0.
         24    2    5    5    0    0  0.99031741516E+02  0.43560238266E+02 -0.17447146640E+03  0.22030916399E+03  0.79944073981E+02 0.  0.
          5    1    5    5  501    0 -0.75639256185E+01 -0.58254991020E+02 -0.74447240114E+02  0.94949136437E+02  0.47000000000E+01 0. -1.
        -11    1    6    6    0    0 -0.20681905955E+01 -0.13995565413E+02 -0.55363055073E+01  0.15192232958E+02  0.00000000000E+00 0.  1.
         12    1    6    6    0    0  0.10109993211E+03  0.57555803680E+02 -0.16893516089E+03  0.20511693103E+03  0.00000000000E+00 0. -1.
         -5    1    3    3    0  503 -0.66686788004E+02  0.73797683201E+01 -0.60456065896E+03  0.60829044793E+03  0.47000000000E+01 0.  1.
         13    1    4    4    0    0 -0.44291582050E+02 -0.20634421426E+02 -0.98352668477E+02  0.10982154153E+03  0.00000000000E+00 0. -1.
        -14    1    4    4    0    0  0.19510554157E+02  0.27949405860E+02 -0.55271262780E+02  0.64936457408E+02  0.00000000000E+00 0.  1.
</event>
<event>
12    1  0.1066489E+000  0.2140627E+03  0.7818608E-02  0.1138630E+00
         21   -1    0    0  503  502  0.00000000000E+00  0.00000000000E+00  0.10348233933E+03  0.10348233933E+03  0.00000000000E+00 0.  1.
         21   -1    0    0  501  503 -0.00000000000E+00 -0.00000000000E+00 -0.44317567336E+03  0.44317567336E+03  0.00000000000E+00 0.  1.
          6    2    1    2  501    0 -0.39449367178E+02 -0.12197600861E+03 -0.19161048310E+03  0.28636707472E+03  0.16987385027E+03 0.  0.
         24    2    3    3    0    0  0.36810699518E+02 -0.10060336532E+03 -0.12848783625E+03  0.18498193676E+03  0.78950162457E+02 0.  0.
         -6    2    1    2    0  502  0.39449367178E+02  0.12197600861E+03 -0.14808285093E+03  0.26029093797E+03  0.17143057604E+03 0.  0.
        -24    2    5    5    0    0 -0.28164272523E+02  0.40646175293E+02 -0.23731192838E+02  0.96976606290E+02  0.79974713763E+02 0.  0.
          5    1    3    3  501    0 -0.76260066696E+02 -0.21372643291E+02 -0.63122646850E+02  0.10138513796E+03  0.47000000000E+01 0. -1.
        -11    1    4    4    0    0  0.19146680960E+02 -0.10103613315E+03 -0.71319721980E+02  0.12514550865E+03  0.00000000000E+00 0.  1.
         12    1    4    4    0    0  0.17664018559E+02  0.43276782982E+00 -0.57168114268E+02  0.59836428107E+02  0.00000000000E+00 0. -1.
         -5    1    5    5    0  502  0.67613639701E+02  0.81329833314E+02 -0.12435165810E+03  0.16331433168E+03  0.47000000000E+01 0.  1.
         13    1    6    6    0    0  0.18860522881E+02  0.42042406794E+02 -0.50393959465E+01  0.46353843464E+02  0.00000000000E+00 0. -1.
        -14    1    6    6    0    0 -0.47024795404E+02 -0.13962315009E+01 -0.18691796891E+02  0.50622762826E+02  0.00000000000E+00 0.  1.
</event>
<event>
12    1  0.1066489E+000  0.3895201E+03  0.7818608E-02  0.1047543E+00
         21   -1    0    0  501  502  0.00000000000E+00  0.00000000000E+00  0.22450192902E+03  0.22450192902E+03  0.00000000000E+00 0. -1.
         21   -1    0    0  502  503 -0.00000000000E+00 -0.00000000000E+00 -0.76856394252E+03  0.76856394252E+03  0.00000000000E+00 0.  1.
         -6    2    1    2    0  503 -0.13945170682E+03  0.32074273351E+03 -0.44606551002E+03  0.59219955447E+03  0.17147359402E+03 0.  0.
        -24    2    3    3    0    0 -0.10932247501E+03  0.17774149447E+03 -0.17074225564E+03  0.28045910252E+03  0.77207175362E+02 0.  0.
          6    2    1    2  501    0  0.13945170682E+03 -0.32074273351E+03 -0.97996503468E+02  0.40086631707E+03  0.16961075980E+03 0.  0.
         24    2    5    5    0    0  0.16559817466E+03 -0.29833678903E+03 -0.71772273966E+02  0.35732938630E+03  0.78137288564E+02 0.  0.
          5    1    5    5  501    0 -0.26146467836E+02 -0.22405944479E+02 -0.26224229502E+02  0.43536930775E+02  0.47000000000E+01 0. -1.
        -11    1    6    6    0    0  0.70244187422E+02 -0.15712651246E+03  0.83301610857E+00  0.17211531221E+03  0.00000000000E+00 0.  1.
         12    1    6    6    0    0  0.95353987238E+02 -0.14121027657E+03 -0.72605290075E+02  0.18521407408E+03  0.00000000000E+00 0. -1.
         -5    1    3    3    0  503 -0.30129231809E+02  0.14300123904E+03 -0.27532325438E+03  0.31174045195E+03  0.47000000000E+01 0.  1.
         11    1    4    4    0    0 -0.56443021174E+02  0.26714834117E+02 -0.50120833859E+02  0.80072435881E+02  0.00000000000E+00 0. -1.
        -12    1    4    4    0    0 -0.52879453840E+02  0.15102666035E+03 -0.12062142178E+03  0.20038666664E+03  0.00000000000E+00 0.  1.
</event>
<event>
12    1  0.1066489E+000  0.2047052E+03  0.7818608E-02  0.1145840E+00
         21   -1    0    0  501  502  0.00000000000E+00  0.00000000000E+00  0.10697314656E+03  0.10697314656E+03  0.00000000000E+00 0. -1.
         21   -1    0    0  502  503 -0.00000000000E+00 -0.00000000000E+00 -0.43985707582E+03  0.43985707582E+03  0.00000000000E+00 0. -1.
         -6    2    1    2    0  503  0.10952000163E+03 -0.14849176623E+02 -0.75886189581E+02  0.21826966596E+03  0.17224344546E+03 0.  0.
        -24    2    3    3    0    0  0.87377263324E+01  0.13246597634E+02  0.11343215706E+02  0.81970367748E+02  0.79615654464E+02 0.  0.
          6    2    1    2  501    0 -0.10952000163E+03  0.14849176623E+02 -0.25699773968E+03  0.32856055642E+03  0.17230517180E+03 0.  0.
         24    2    5    5    0    0 -0.17458378008E+02 -0.33685243909E+01 -0.37823443007E+02  0.90093180251E+02  0.79812444941E+02 0.  0.
          5    1    5    5  501    0 -0.92061623623E+02  0.18217701014E+02 -0.21917429668E+03  0.23846737617E+03  0.47000000000E+01 0. -1.
        -13    1    6    6    0    0 -0.29616253847E+02  0.59034994976E+01 -0.57635087306E+02  0.65067481025E+02  0.00000000000E+00 0.  1.
         14    1    6    6    0    0  0.12157875838E+02 -0.92720238885E+01  0.19811644299E+02  0.25025699225E+02  0.00000000000E+00 0. -1.
         -5    1    3    3    0  503  0.10078227530E+03 -0.28095774257E+02 -0.87229405287E+02  0.13629929821E+03  0.47000000000E+01 0.  1.
         13    1    4    4    0    0 -0.23209920133E+02  0.26439438917E+02 -0.15264867387E+02  0.38350495423E+02  0.00000000000E+00 0. -1.
        -14    1    4    4    0    0  0.31947646465E+02 -0.13192841283E+02  0.26608083093E+02  0.43619872325E+02  0.00000000000E+00 0.  1.
</event>
<event>
12    1  0.1066489E+000  0.2783585E+03  0.7818608E-02  0.1096862E+00
         21   -1    0    0  503  502  0.00000000000E+00  0.00000000000E+00  0.11867725500E+03  0.11867725500E+03  0.00000000000E+00 0.  1.
         21   -1    0    0  501  503 -0.00000000000E+00 -0.00000000000E+00 -0.89168903546E+03  0.89168903546E+03  0.00000000000E+00 0.  1.
          6    2    1    2  501    0  0.17374779095E+03 -0.13088777634E+03 -0.65146481869E+03  0.70844184177E+03  0.17367650481E+03 0.  0.
         24    2    3    3    0    0  0.22144227909E+02 -0.26233775815E+02 -0.14079622823E+03  0.16554166731E+03  0.80011798548E+02 0.  0.
         -6    2    1    2    0  502 -0.17374779095E+03  0.13088777634E+03 -0.12154696178E+03  0.30192444869E+03  0.17048402841E+03 0.  0.
        -24    2    5    5    0    0 -0.10124523558E+03  0.32311273418E+02 -0.12042916285E+03  0.17946103808E+03  0.80052887549E+02 0.  0.
          5    1    3    3  501    0  0.15160356304E+03 -0.10465400052E+03 -0.51066859046E+03  0.54290017447E+03  0.47000000000E+01 0. -1.
        -13    1    4    4    0    0 -0.16372874077E+02 -0.42231462656E+02 -0.76476708738E+02  0.88883375402E+02  0.00000000000E+00 0.  1.
         14    1    4    4    0    0  0.38517101986E+02  0.15997686840E+02 -0.64319519493E+02  0.76658291903E+02  0.00000000000E+00 0. -1.
         -5    1    5    5    0  502 -0.72502555375E+02  0.98576502921E+02 -0.11177989252E+01  0.12246341061E+03  0.47000000000E+01 0.  1.
         11    1    6    6    0    0 -0.53428150145E+01  0.30826724464E+02 -0.55260104799E+02  0.63502061351E+02  0.00000000000E+00 0. -1.
        -12    1    6    6    0    0 -0.95902420564E+02  0.14845489543E+01 -0.65169058053E+02  0.11595897673E+03  0.00000000000E+00 0.  1.
</event>
<event>
12    1  0.1066489E+000  0.1926028E+03  0.7818608E-02  0.1156278E+00
         21   -1    0    0  501  502  0.00000000000E+00  0.00000000000E+00  0.94510227359E+02  0.94510227359E+02  0.00000000000E+00 0. -1.
         21   -1    0    0  502  503 -0.00000000000E+00 -0.00000000000E+00 -0.40686561748E+03  0.40686561748E+03  0.00000000000E+00 0.  1.
         -6    2    1    2    0  503 -0.85410657732E+02 -0.16174170444E+02 -0.20512633347E+03  0.28093556666E+03  0.17114729237E+03 0.  0.
        -24    2    3    3    0    0 -0.84108999076E+02 -0.71297105288E+02 -0.15628077057E+03  0.20712356712E+03  0.79491457765E+02 0.  0.
          6    2    1    2  501    0  0.85410657732E+02  0.16174170444E+02 -0.10722905664E+03  0.22044027818E+03  0.17186989675E+03 0.  0.
         24    2    5    5    0    0  0.27750757773E+01  0.36096486052E+02 -0.10279359494E+03  0.13519180966E+03  0.79997780516E+02 0.  0.
          5    1    5    5  501    0  0.82635581954E+02 -0.19922315608E+02 -0.44354617066E+01  0.85248468518E+02  0.47000000000E+01 0. -1.
        -11    1    6    6    0    0  0.76709970041E-01  0.60755192688E+02 -0.85763332439E+02  0.10510256188E+03  0.00000000000E+00 0.  1.
         12    1    6    6    0    0  0.26983658073E+01 -0.24658706636E+02 -0.17030262499E+02  0.30089247777E+02  0.00000000000E+00 0. -1.
         -5    1    3    3    0  503 -0.13016586553E+01  0.55122934844E+02 -0.48845562902E+02  0.73811999541E+02  0.47000000000E+01 0.  1.
         13    1    4    4    0    0 -0.41671683579E+01 -0.40600280768E+02 -0.18296675548E+02  0.44727133003E+02  0.00000000000E+00 0. -1.
        -14    1    4    4    0    0 -0.79941830718E+02 -0.30696824520E+02 -0.13798409502E+03  0.16239643412E+03  0.00000000000E+00 0.  1.
</event>
<event>
12    1  0.1066489E+000  0.1825488E+03  0.7818608E-02  0.1166047E+00
         21   -1    0    0  503  502  0.00000000000E+00  0.00000000000E+00  0.15060575941E+03  0.15060575941E+03  0.00000000000E+00 0.  1.
         21   -1    0    0  501  503 -0.00000000000E+00 -0.00000000000E+00 -0.49172573479E+03  0.49172573479E+03  0.00000000000E+00 0.  1.
          6    2    1    2  501    0  0.60640003743E+02  0.19621135650E+02  0.69743578306E+02  0.19273955867E+03  0.16799455868E+03 0.  0.
         24    2    3    3    0    0 -0.21221770929E+02  0.19889850724E+02 -0.43097529428E+00  0.84813749281E+02  0.79669420760E+02 0.  0.
         -6    2    1    2    0  502 -0.60640003743E+02 -0.19621135650E+02 -0.41086355369E+03  0.44959193553E+03  0.17106095323E+03 0.  0.
        -24    2    5    5    0    0 -0.89008443082E+02 -0.41123627156E+02 -0.38552962983E+03  0.40564852658E+03  0.79397581758E+02 0.  0.
          5    1    3    3  501    0  0.81861774672E+02 -0.26871507396E+00  0.70174553600E+02  0.10792580939E+03  0.47000000000E+01 0. -1.
        -13    1    4    4    0    0  0.10588199955E+02 -0.15664840556E+02  0.24529663501E+02  0.30970979955E+02  0.00000000000E+00 0.  1.
         14    1    4    4    0    0 -0.31809970883E+02  0.35554691280E+02 -0.24960638795E+02  0.53842769326E+02  0.00000000000E+00 0. -1.
         -5    1    5    5    0  502  0.28368439339E+02  0.21502491507E+02 -0.25333923859E+02  0.43943408944E+02  0.47000000000E+01 0.  1.
         11    1    6    6    0    0 -0.72100469029E+02 -0.68870620580E+01 -0.14474392631E+03  0.16185398809E+03  0.00000000000E+00 0. -1.
        -12    1    6    6    0    0 -0.16907974053E+02 -0.34236565098E+02 -0.24078570352E+03  0.24379453849E+03  0.00000000000E+00 0.  1.
</event>
<event>
12    1  0.1066489E+000  0.2716195E+03  0.7818608E-02  0.1100550E+00
         21   -1    0    0  501  502  0.00000000000E+00  0.00000000000E+00  0.17324421096E+03  0.17324421096E+03  0.00000000000E+00 0. -1.
         21   -1    0    0  502  503 -0.00000000000E+00 -0.00000000000E+00 -0.42683854631E+03  0.42683854631E+03  0.00000000000E+00 0. -1.
         -6    2    1    2    0  503 -0.10196296326E+02 -0.20854763942E+03 -0.15274159950E+03  0.31162019043E+03  0.17372698265E+03 0.  0.
        -24    2    3    3    0    0 -0.25282183912E+02 -0.20747107087E+03 -0.17504683980E+03  0.28426408054E+03  0.80506131984E+02 0.  0.
          6    2    1    2  501    0  0.10196296326E+02  0.20854763942E+03 -0.10085273585E+03  0.28846256684E+03  0.17159048859E+03 0.  0.
         24    2    5    5    0    0  0.15367750654E+02  0.21019421122E+03 -0.42300776967E+02  0.22947208433E+03  0.80313806803E+02 0.  0.
          5    1    5    5  501    0 -0.51714543272E+01 -0.16465717983E+01 -0.58551958878E+02  0.58990482512E+02  0.47000000000E+01 0. -1.
        -13    1    6    6    0    0 -0.31391029864E+02  0.10824235988E+03 -0.30065249468E+02  0.11664357871E+03  0.00000000000E+00 0.  1.
         14    1    6    6    0    0  0.46758780518E+02  0.10195185134E+03 -0.12235527499E+02  0.11282850562E+03  0.00000000000E+00 0. -1.
         -5    1    3    3    0  503  0.15085887586E+02 -0.10765685491E+01  0.22305240295E+02  0.27356109897E+02  0.47000000000E+01 0.  1.
         11    1    4    4    0    0  0.50379890968E+01 -0.30695779662E+01 -0.32973329014E+02  0.33496926266E+02  0.00000000000E+00 0. -1.
        -12    1    4    4    0    0 -0.30320173009E+02 -0.20440149291E+03 -0.14207351079E+03  0.25076715427E+03  0.00000000000E+00 0.  1.
</event>
<event>
12    1  0.1066489E+000  0.2979702E+03  0.7818608E-02  0.1087063E+00
         21   -1    0    0  501  502  0.00000000000E+00  0.00000000000E+00  0.46477057709E+03  0.46477057709E+03  0.00000000000E+00 0.  1.
         21   -1    0    0  502  503 -0.00000000000E+00 -0.00000000000E+00 -0.18871632938E+03  0.18871632938E+03  0.00000000000E+00 0.  1.
         -6    2    1    2    0  503  0.24114927118E+03  0.76191483237E+01  0.17050722096E+03  0.34330591781E+03  0.17485770898E+03 0.  0.
        -24    2    3    3    0    0  0.90675571000E+02 -0.26519434304E+02  0.13940225638E+03  0.18583405972E+03  0.78587334193E+02 0.  0.
          6    2    1    2  501    0 -0.24114927118E+03 -0.76191483237E+01  0.10554702675E+03  0.31018098866E+03  0.16389340579E+03 0.  0.
         24    2    5    5    0    0 -0.16699407663E+03  0.44704165787E+02  0.10746404835E+03  0.21928276509E+03  0.81553205384E+02 0.  0.
          5    1    5    5  501    0 -0.74155194543E+02 -0.52323314111E+02 -0.19170215976E+01  0.90898223575E+02  0.47000000000E+01 0. -1.
        -13    1    6    6    0    0 -0.98240463323E+01 -0.17956840672E+02  0.37035461889E+01  0.20800871800E+02  0.00000000000E+00 0.  1.
         14    1    6    6    0    0 -0.15717003030E+03  0.62661006459E+02  0.10376050216E+03  0.19848189329E+03  0.00000000000E+00 0. -1.
         -5    1    3    3    0  503  0.15047370018E+03  0.34138582628E+02  0.31104964586E+02  0.15747185809E+03  0.47000000000E+01 0.  1.
         13    1    4    4    0    0  0.10463947489E+03 -0.27636503484E+02  0.12899206978E+03  0.16838096714E+03  0.00000000000E+00 0. -1.
        -14    1    4    4    0    0 -0.13963903890E+02  0.11170691794E+01  0.10410186599E+02  0.17453092575E+02  0.00000000000E+00 0.  1.
</event>
<event>
12    1  0.1066489E+000  0.5246482E+03  0.7818608E-02  0.1007644E+00
         21   -1    0    0  503  502  0.00000000000E+00  0.00000000000E+00  0.40760347280E+03  0.40760347280E+03  0.00000000000E+00 0.  1.
         21   -1    0    0  501  503 -0.00000000000E+00 -0.00000000000E+00 -0.68816684245E+03  0.68816684245E+03  0.00000000000E+00 0.  1.
          6    2    1    2  501    0  0.48500893387E+03 -0.10328914261E+03 -0.22158367201E+03  0.56952176927E+03  0.17132836616E+03 0.  0.
         24    2    3    3    0    0  0.41944837196E+03 -0.76501411918E+02 -0.24233704195E+03  0.49557204204E+03  0.71239063561E+02 0.  0.
         -6    2    1    2    0  502 -0.48500893387E+03  0.10328914261E+03 -0.58979697642E+02  0.52624854599E+03  0.16600185091E+03 0.  0.
        -24    2    5    5    0    0 -0.25428187195E+03  0.71150981681E+02  0.28871322461E+02  0.27723503185E+03  0.79397588304E+02 0.  0.
          5    1    3    3  501    0  0.65560561907E+02 -0.26787730694E+02  0.20753369944E+02  0.73949727230E+02  0.47000000000E+01 0. -1.
        -13    1    4    4    0    0  0.70679091580E+02 -0.39791448788E+02 -0.54733386359E+02  0.97850073917E+02  0.00000000000E+00 0.  1.
         14    1    4    4    0    0  0.34876928038E+03 -0.36709963129E+02 -0.18760365559E+03  0.39772196812E+03  0.00000000000E+00 0. -1.
         -5    1    5    5    0  502 -0.23072706192E+03  0.32138160931E+02 -0.87851020103E+02  0.24901351414E+03  0.47000000000E+01 0.  1.
         13    1    6    6    0    0 -0.83113373168E+02  0.83744224392E+01  0.43776051938E+02  0.94309630865E+02  0.00000000000E+00 0. -1.
        -14    1    6    6    0    0 -0.17116849878E+03  0.62776559241E+02 -0.14904729477E+02  0.18292540099E+03  0.00000000000E+00 0.  1.
</event>
<event>
12    1  0.1066489E+000  0.2337129E+03  0.7818608E-02  0.1124526E+00
         21   -1    0    0  503  502  0.00000000000E+00  0.00000000000E+00  0.22731482999E+03  0.22731482999E+03  0.00000000000E+00 0.  1.
         21   -1    0    0  501  503 -0.00000000000E+00 -0.00000000000E+00 -0.30583359771E+03  0.30583359771E+03  0.00000000000E+00 0.  1.
          6    2    1    2  501    0 -0.15479922093E+03 -0.33061357570E+02  0.86567672792E+02  0.24923017189E+03  0.17194727228E+03 0.  0.
         24    2    3    3    0    0 -0.11926986542E+02 -0.25090037937E+02  0.78276398321E+01  0.85834639253E+02  0.80836565604E+02 0.  0.
         -6    2    1    2    0  502  0.15479922093E+03  0.33061357570E+02 -0.16508644052E+03  0.28391825582E+03  0.16822660604E+03 0.  0.
        -24    2    5    5    0    0  0.71658630884E+02  0.14054811222E+02 -0.16501064101E+03  0.19850337267E+03  0.82719890097E+02 0.  0.
          5    1    3    3  501    0 -0.14287223438E+03 -0.79713196324E+01  0.78740032960E+02  0.16339553264E+03  0.47000000000E+01 0. -1.
        -13    1    4    4    0    0 -0.16461080864E+02  0.38304640142E+01  0.39343908804E+02  0.42820354947E+02  0.00000000000E+00 0.  1.
         14    1    4    4    0    0  0.45340943222E+01 -0.28920501951E+02 -0.31516268972E+02  0.43014284306E+02  0.00000000000E+00 0. -1.
         -5    1    5    5    0  502  0.83140590043E+02  0.19006546348E+02 -0.75799507332E-01  0.85414883143E+02  0.47000000000E+01 0.  1.
         11    1    6    6    0    0  0.37399984964E+02  0.22593709449E+02 -0.17906578955E+02  0.47221606832E+02  0.00000000000E+00 0. -1.
        -12    1    6    6    0    0  0.34258645920E+02 -0.85388982269E+01 -0.14710406205E+03  0.15128176584E+03  0.00000000000E+00 0.  1.
</event>
<event>
12    1  0.1066489E+000  0.3510585E+03  0.7818608E-02  0.1062217E+00
         21   -1    0    0  503  502  0.00000000000E+00  0.00000000000E+00  0.25829254994E+03  0.25829254994E+03  0.00000000000E+00 0. -1.
         21   -1    0    0  501  503 -0.00000000000E+00 -0.00000000000E+00 -0.47854048804E+03  0.47854048804E+03  0.00000000000E+00 0. -1.
          6    2    1    2  501    0  0.29992072268E+03 -0.60126590713E+02 -0.13309100573E+03  0.37511712263E+03  0.17155755033E+03 0.  0.
         24    2    3    3    0    0  0.13820668097E+03 -0.89609127069E+02 -0.38873641224E+02  0.18559231419E+03  0.76173911455E+02 0.  0.
         -6    2    1    2    0  502 -0.29992072268E+03  0.60126590713E+02 -0.87156932363E+02  0.36171591536E+03  0.17226266502E+03 0.  0.
        -24    2    5    5    0    0 -0.22475892988E+03  0.54159868734E+02 -0.94832276444E+01  0.25336375214E+03  0.10321526705E+03 0.  0.
          5    1    3    3  501    0  0.16171404171E+03  0.29482536355E+02 -0.94217364508E+02  0.18952480843E+03  0.47000000000E+01 0. -1.
        -13    1    4    4    0    0  0.63210674367E+02 -0.65534216474E+02 -0.53317538912E+02  0.10551342492E+03  0.00000000000E+00 0.  1.
         14    1    4    4    0    0  0.74996006603E+02 -0.24074910594E+02  0.14443897688E+02  0.80078889271E+02  0.00000000000E+00 0. -1.
         -5    1    5    5    0  502 -0.75161792805E+02  0.59667219796E+01 -0.77673704719E+02  0.10835216322E+03  0.47000000000E+01 0.  1.
         13    1    6    6    0    0 -0.48101570193E+02  0.59404518258E+02 -0.16515912164E+01  0.76455121464E+02  0.00000000000E+00 0. -1.
        -14    1    6    6    0    0 -0.17665735968E+03 -0.52446495240E+01 -0.78316364280E+01  0.17690863068E+03  0.00000000000E+00 0.  1.
</event>
<event>
12    1  0.1066489E+000  0.2094846E+03  0.7818608E-02  0.1145156E+00
         21   -1    0    0  501  502  0.00000000000E+00  0.00000000000E+00  0.51425068190E+03  0.51425068190E+03  0.00000000000E+00 0.  1.
         21   -1    0    0  502  503 -0.00000000000E+00 -0.00000000000E+00 -0.96155749029E+02  0.96155749029E+02  0.00000000000E+00 0.  1.
         -6    2    1    2    0  503 -0.94427139442E+02 -0.55935829363E+02  0.33062825785E+03  0.38339489616E+03  0.16009778213E+03 0.  0.
        -24    2    3    3    0    0 -0.10904408762E+02 -0.67657164924E+02  0.14616139784E+03  0.18050687609E+03  0.80766205801E+02 0.  0.
          6    2    1    2  501    0  0.94427139442E+02  0.55935829363E+02  0.87466675030E+02  0.22701153478E+03  0.17843350586E+03 0.  0.
         24    2    5    5    0    0  0.13537125108E+03  0.45779201976E+02  0.50783195469E+02  0.17091033131E+03  0.78805440511E+02 0.  0.
          5    1    5    5  501    0 -0.40944111639E+02  0.10156627387E+02  0.36683479561E+02  0.56101203467E+02  0.47000000000E+01 0. -1.
        -11    1    6    6    0    0  0.39011414832E+02  0.69648971945E+01  0.53995825979E+02  0.66977231231E+02  0.00000000000E+00 0.  1.
         12    1    6    6    0    0  0.96359836248E+02  0.38814304782E+02 -0.32126305107E+01  0.10393310008E+03  0.00000000000E+00 0. -1.
         -5    1    3    3    0  503 -0.83522730679E+02  0.11721335560E+02  0.18446686001E+03  0.20288802007E+03  0.47000000000E+01 0.  1.
         13    1    4    4    0    0 -0.45230382192E+01 -0.26370630996E+02  0.13449671152E+03  0.13713217516E+03  0.00000000000E+00 0. -1.
        -14    1    4    4    0    0 -0.63813705429E+01 -0.41286533928E+02  0.11664686323E+02  0.43374700930E+02  0.00000000000E+00 0.  1.
</event>
<event>
12    1  0.1066489E+000  0.1731960E+03  0.7818608E-02  0.1174675E+00
         21   -1    0    0  501  502  0.00000000000E+00  0.00000000000E+00  0.14566920827E+03  0.14566920827E+03  0.00000000000E+00 0. -1.
         21   -1    0    0  502  503 -0.00000000000E+00 -0.00000000000E+00 -0.20922133365E+03  0.20922133365E+03  0.00000000000E+00 0. -1.
         -6    2    1    2    0  503  0.73578716173E+01 -0.22158836381E+02 -0.55898966462E+02  0.18199328074E+03  0.17161499782E+03 0.  0.
        -24    2    3    3    0    0  0.53636528472E+02  0.51597141093E+01  0.10138259137E+02  0.96722990214E+02  0.79680943151E+02 0.  0.
          6    2    1    2  501    0 -0.73578716173E+01  0.22158836381E+02 -0.76531589205E+01  0.17289726118E+03  0.17114245464E+03 0.  0.
         24    2    5    5    0    0  0.15865004172E+02 -0.15753622508E+02 -0.59254038345E+02  0.10462283511E+03  0.83276776990E+02 0.  0.
          5    1    5    5  501    0 -0.23222875790E+02  0.37912458889E+02  0.51600879424E+02  0.68274426078E+02  0.47000000000E+01 0. -1.
        -11    1    6    6    0    0  0.18111410108E+02  0.13823857743E+02  0.13200130729E+02  0.26331837578E+02  0.00000000000E+00 0.  1.
         12    1    6    6    0    0 -0.22464059351E+01 -0.29577480252E+02 -0.72454169074E+02  0.78290997527E+02  0.00000000000E+00 0. -1.
         -5    1    3    3    0  503 -0.46278656854E+02 -0.27318550490E+02 -0.66037225600E+02  0.85270290524E+02  0.47000000000E+01 0.  1.
         11    1    4    4    0    0 -0.16701714768E+02  0.48902156700E+01  0.19072592837E+02  0.25819087571E+02  0.00000000000E+00 0. -1.
        -12    1    4    4    0    0  0.70338243239E+02  0.26949843936E+00 -0.89343336998E+01  0.70903902643E+02  0.00000000000E+00 0.  1.
</event>
<event>
12    1  0.1066489E+000  0.7212325E+03  0.7818608E-02  0.9683115E-01
         21   -1    0    0  503  502  0.00000000000E+00  0.00000000000E+00  0.12220683010E+04  0.12220683010E+04  0.00000000000E+00 0.  1.
         21   -1    0    0  501  503 -0.00000000000E+00 -0.00000000000E+00 -0.43607893148E+03  0.43607893148E+03  0.00000000000E+00 0. -1.
          6    2    1    2  501    0 -0.56362912337E+03 -0.41401479154E+03  0.25112005622E+03  0.76022657425E+03  0.16061483504E+03 0.  0.
         24    2    3    3    0    0 -0.47045197119E+03 -0.30418334765E+03  0.24277471535E+03  0.61587747495E+03  0.80702760490E+02 0.  0.
         -6    2    1    2    0  502  0.56362912337E+03  0.41401479154E+03  0.53486931328E+03  0.89792065822E+03  0.17632438812E+03 0.  0.
        -24    2    5    5    0    0  0.29357079984E+03  0.30543186974E+03  0.31946433752E+03  0.53578374682E+03  0.74393002618E+02 0.  0.
          5    1    3    3  501    0 -0.93177152182E+02 -0.10983144388E+03  0.83453408674E+01  0.14434909930E+03  0.47000000000E+01 0. -1.
        -13    1    4    4    0    0 -0.35534204996E+03 -0.24520177084E+03  0.15137001551E+03  0.45749837430E+03  0.00000000000E+00 0.  1.
         14    1    4    4    0    0 -0.11510992123E+03 -0.58981576810E+02  0.91404699843E+02  0.15837910065E+03  0.00000000000E+00 0. -1.
         -5    1    5    5    0  502  0.27005832354E+03  0.10858292179E+03  0.21540497576E+03  0.36213691140E+03  0.47000000000E+01 0.  1.
         13    1    6    6    0    0  0.55635075347E+02  0.73502406162E+02  0.10771368674E+03  0.14177483427E+03  0.00000000000E+00 0. -1.
        -14    1    6    6    0    0  0.23793572449E+03  0.23192946358E+03  0.21175065078E+03  0.39400891255E+03  0.00000000000E+00 0.  1.
</event>
<event>
12    1  0.1066489E+000  0.2276479E+03  0.7818608E-02  0.1128730E+00
         21   -1    0    0  503  502  0.00000000000E+00  0.00000000000E+00  0.36743061116E+03  0.36743061116E+03  0.00000000000E+00 0.  1.
         21   -1    0    0  501  503 -0.00000000000E+00 -0.00000000000E+00 -0.21739219336E+03  0.21739219336E+03  0.00000000000E+00 0. -1.
          6    2    1    2  501    0 -0.44335971886E+02 -0.14038150864E+03 -0.99667797920E+02  0.24850999301E+03  0.17364014603E+03 0.  0.
         24    2    3    3    0    0 -0.15787037042E+02 -0.39471331251E+02  0.18301031793E+02  0.90596597871E+02  0.77881957165E+02 0.  0.
         -6    2    1    2    0  502  0.44335971886E+02  0.14038150864E+03  0.24970621572E+03  0.33631281151E+03  0.17052995820E+03 0.  0.
        -24    2    5    5    0    0 -0.36999165359E+02  0.62015563300E+02  0.89573285474E+02  0.14029936480E+03  0.80284929872E+02 0.  0.
          5    1    3    3  501    0 -0.28548934844E+02 -0.10091017739E+03 -0.11796882971E+03  0.15791339514E+03  0.47000000000E+01 0. -1.
        -11    1    4    4    0    0 -0.16299926852E+02  0.21831501571E+02  0.29917787876E+01  0.27408991527E+02  0.00000000000E+00 0.  1.
         12    1    4    4    0    0  0.51288981005E+00 -0.61302832821E+02  0.15309253005E+02  0.63187606344E+02  0.00000000000E+00 0. -1.
         -5    1    5    5    0  502  0.81335137245E+02  0.78365945339E+02  0.16013293025E+03  0.19601344670E+03  0.47000000000E+01 0.  1.
         13    1    6    6    0    0 -0.97355858902E+01  0.64704842425E+02  0.24807969379E+02  0.69978093791E+02  0.00000000000E+00 0. -1.
        -14    1    6    6    0    0 -0.27263579469E+02 -0.26892791257E+01  0.64765316096E+02  0.70321271011E+02  0.00000000000E+00 0.  1.
</event>
<event>
12    1  0.1066489E+000  0.1992260E+03  0.7818608E-02  0.1150854E+00
         21   -1    0    0  503  502  0.00000000000E+00  0.00000000000E+00  0.12966576514E+04  0.12966576514E+04  0.00000000000E+00 0. -1.
         21   -1    0    0  501  503 -0.00000000000E+00 -0.00000000000E+00 -0.34009711898E+02  0.34009711898E+02  0.00000000000E+00 0. -1.
          6    2    1    2  501    0  0.70030892793E+02 -0.67106801821E+02  0.41404124220E+03  0.45947923665E+03  0.17402117653E+03 0.  0.
         24    2    3    3    0    0  0.10431559271E+03 -0.87286320500E+02  0.31188453735E+03  0.34974894928E+03  0.80942684990E+02 0.  0.
         -6    2    1    2    0  502 -0.70030892793E+02  0.67106801821E+02  0.84860669734E+03  0.87118812668E+03  0.17154526080E+03 0.  0.
        -24    2    5    5    0    0 -0.17325768810E+02  0.11933385764E+02  0.17759700138E+03  0.19583781906E+03  0.79807070573E+02 0.  0.
          5    1    3    3  501    0 -0.34284699918E+02  0.20179518679E+02  0.10215670484E+03  0.10973028737E+03  0.47000000000E+01 0. -1.
        -13    1    4    4    0    0  0.83068056670E+02 -0.53207566990E+02  0.12839236626E+03  0.16191339332E+03  0.00000000000E+00 0.  1.
         14    1    4    4    0    0  0.21247536040E+02 -0.34078753509E+02  0.18349217109E+03  0.18783555596E+03  0.00000000000E+00 0. -1.
         -5    1    5    5    0  502 -0.52705123983E+02  0.55173416057E+02  0.67100969595E+03  0.67535030762E+03  0.47000000000E+01 0.  1.
         11    1    6    6    0    0  0.20387913557E+02  0.32575279275E+02  0.67967376427E+02  0.78079319268E+02  0.00000000000E+00 0. -1.
        -12    1    6    6    0    0 -0.37713682366E+02 -0.20641893510E+02  0.10962962496E+03  0.11775849979E+03  0.00000000000E+00 0.  1.
</event>
<event>
12    1  0.1066489E+000  0.2240521E+03  0.7818608E-02  0.1131569E+00
         21   -1    0    0  503  502  0.00000000000E+00  0.00000000000E+00  0.47103408895E+02  0.47103408895E+02  0.00000000000E+00 0.  1.
         21   -1    0    0  501  503 -0.00000000000E+00 -0.00000000000E+00 -0.10526714979E+04  0.10526714979E+04  0.00000000000E+00 0.  1.
          6    2    1    2  501    0  0.12333985646E+03 -0.73838568214E+02 -0.53365562838E+03  0.57737591800E+03  0.16706216400E+03 0.  0.
         24    2    3    3    0    0  0.58989224589E+02 -0.70188820910E+02 -0.47056620816E+03  0.48706152589E+03  0.85966124433E+02 0.  0.
         -6    2    1    2    0  502 -0.12333985646E+03  0.73838568214E+02 -0.47191246066E+03  0.52239898883E+03  0.17185598230E+03 0.  0.
        -24    2    5    5    0    0 -0.13357839435E+03  0.10712007308E+03 -0.40607198959E+03  0.44776961220E+03  0.79279678298E+02 0.  0.
          5    1    3    3  501    0  0.64350631871E+02 -0.36497473032E+01 -0.63089420220E+02  0.90314392105E+02  0.47000000000E+01 0. -1.
        -13    1    4    4    0    0  0.18683415287E+02  0.15323676756E+02 -0.44538181209E+02  0.50670846268E+02  0.00000000000E+00 0.  1.
         14    1    4    4    0    0  0.40305809302E+02 -0.85512497666E+02 -0.42602802695E+03  0.43639067963E+03  0.00000000000E+00 0. -1.
         -5    1    5    5    0  502  0.10238537885E+02 -0.33281504867E+02 -0.65840471072E+02  0.74629376623E+02  0.47000000000E+01 0.  1.
         11    1    6    6    0    0 -0.12330255365E+02 -0.84395917409E+01 -0.77945575354E+02  0.79364819810E+02  0.00000000000E+00 0. -1.
        -12    1    6    6    0    0 -0.12124813898E+03  0.11555966482E+03 -0.32812641424E+03  0.36840479239E+03  0.00000000000E+00 0.  1.
</event>
<event>
12    1  0.1066489E+000  0.2440611E+03  0.7818608E-02  0.1117334E+00
         21   -1    0    0  501  502  0.00000000000E+00  0.00000000000E+00  0.68943369568E+03  0.68943369568E+03  0.00000000000E+00 0. -1.
         21   -1    0    0  502  503 -0.00000000000E+00 -0.00000000000E+00 -0.86040249716E+02  0.86040249716E+02  0.00000000000E+00 0. -1.
         -6    2    1    2    0  503  0.52022509453E+02 -0.16403047372E+03  0.31484854163E+03  0.39755332610E+03  0.17119201244E+03 0.  0.
        -24    2    3    3    0    0  0.41727293097E+02 -0.84812586783E+02  0.75072703416E+02  0.14477672970E+03  0.79937780804E+02 0.  0.
          6    2    1    2  501    0 -0.52022509453E+02  0.16403047372E+03  0.28854490433E+03  0.37792061930E+03  0.17307077997E+03 0.  0.
         24    2    5    5    0    0 -0.97793723917E+02  0.10166793541E+03  0.22321687011E+03  0.27656021128E+03  0.82217989728E+02 0.  0.
          5    1    5    5  501    0  0.45771214464E+02  0.62362538313E+02  0.65328034221E+02  0.10136040802E+03  0.47000000000E+01 0. -1.
        -11    1    6    6    0    0 -0.17308406078E+02  0.73398433033E+02  0.80601111604E+02  0.11037866680E+03  0.00000000000E+00 0.  1.
         12    1    6    6    0    0 -0.80485317839E+02  0.28269502373E+02  0.14261575850E+03  0.16618154448E+03  0.00000000000E+00 0. -1.
         -5    1    3    3    0  503  0.10295216355E+02 -0.79217886936E+02  0.23977583822E+03  0.25277659639E+03  0.47000000000E+01 0.  1.
         13    1    4    4    0    0  0.62397671693E+02 -0.42203769547E+02  0.55337620686E+02  0.93471278262E+02  0.00000000000E+00 0. -1.
        -14    1    4    4    0    0 -0.20670378595E+02 -0.42608817235E+02  0.19735082729E+02  0.51305451443E+02  0.00000000000E+00 0.  1.
</event>
<event>
12    1  0.1066489E+000  0.1959075E+03  0.7818608E-02  0.1153350E+00
         21   -1    0    0  503  502  0.00000000000E+00  0.00000000000E+00  0.48427973592E+03  0.48427973592E+03  0.00000000000E+00 0.  1.
         21   -1    0    0  501  503 -0.00000000000E+00 -0.00000000000E+00 -0.17159282484E+03  0.17159282484E+03  0.00000000000E+00 0.  1.
          6    2    1    2  501    0  0.50800254343E+02  0.77302875356E+02  0.39727731204E+03  0.44295487096E+03  0.17269439674E+03 0.  0.
         24    2    3    3    0    0 -0.10347373702E+02  0.85118702874E+02  0.16165197105E+03  0.19935374023E+03  0.79109369092E+02 0.  0.
         -6    2    1    2    0  502 -0.50800254343E+02 -0.77302875356E+02 -0.84590400963E+02  0.21291768979E+03  0.17211044800E+03 0.  0.
        -24    2    5    5    0    0  0.58087589888E+01  0.71340211169E+01 -0.70849761733E+02  0.11022852268E+03  0.83940470190E+02 0.  0.
          5    1    3    3  501    0  0.61147628045E+02 -0.78158275177E+01  0.23562534099E+03  0.24360113073E+03  0.47000000000E+01 0. -1.
        -13    1    4    4    0    0  0.14433854223E+02  0.71259699677E+02  0.61418113428E+02  0.95175971773E+02  0.00000000000E+00 0.  1.
         14    1    4    4    0    0 -0.24781227926E+02  0.13859003197E+02  0.10023385762E+03  0.10417776846E+03  0.00000000000E+00 0. -1.
         -5    1    5    5    0  502 -0.56609013332E+02 -0.84436896473E+02 -0.13740639230E+02  0.10268916712E+03  0.47000000000E+01 0.  1.
         13    1    6    6    0    0 -0.76101774164E+01 -0.33986975850E+02 -0.53034520857E+02  0.63448323305E+02  0.00000000000E+00 0. -1.
        -14    1    6    6    0    0  0.13418936405E+02  0.41120996967E+02 -0.17815240877E+02  0.46780199372E+02  0.00000000000E+00 0.  1.
</event>
<event>
12    1  0.1066489E+000  0.1789850E+03  0.7818608E-02  0.1168987E+00
         21   -1    0    0  503  502  0.00000000000E+00  0.00000000000E+00  0.14235941583E+03  0.14235941583E+03  0.00000000000E+00 0.  1.
         21   -1    0    0  501  503 -0.00000000000E+00 -0.00000000000E+00 -0.22464408199E+03  0.22464408199E+03  0.00000000000E+00 0.  1.
          6    2    1    2  501    0  0.30854199470E+02 -0.40249096154E+02 -0.31518800913E+02  0.18173902468E+03  0.17164983808E+03 0.  0.
         24    2    3    3    0    0  0.78114974080E+02 -0.52852342041E+02 -0.34707330574E+00  0.12354805265E+03  0.79804020068E+02 0.  0.
         -6    2    1    2    0  502 -0.30854199470E+02  0.40249096154E+02 -0.50765865248E+02  0.18526447313E+03  0.17080333886E+03 0.  0.
        -24    2    5    5    0    0  0.12003848424E+02  0.38670443817E+01 -0.86753263559E+02  0.11834923722E+03  0.79507023604E+02 0.  0.
          5    1    3    3  501    0 -0.47260774610E+02  0.12603245887E+02 -0.31171727607E+02  0.58190972029E+02  0.47000000000E+01 0. -1.
        -11    1    4    4    0    0  0.71706407715E+02 -0.24678712625E+02 -0.30544338259E+02  0.81754537268E+02  0.00000000000E+00 0.  1.
         12    1    4    4    0    0  0.64085663644E+01 -0.28173629416E+02  0.30197264953E+02  0.41793515382E+02  0.00000000000E+00 0. -1.
         -5    1    5    5    0  502 -0.42858047894E+02  0.36382051773E+02  0.35987398311E+02  0.66915235916E+02  0.47000000000E+01 0.  1.
         11    1    6    6    0    0 -0.93820309275E+01  0.21509721078E+02  0.36873333814E+01  0.23754726532E+02  0.00000000000E+00 0. -1.
        -12    1    6    6    0    0  0.21385879352E+02 -0.17642676696E+02 -0.90440596941E+02  0.94594510684E+02  0.00000000000E+00 0.  1.
</event>
<event>
12    1  0.1066489E+000  0.4174000E+03  0.7818608E-02  0.1037925E+00
         21   -1    0    0  503  502  0.00000000000E+00  0.00000000000E+00  0.44259895601E+03  0.44259895601E+03  0.00000000000E+00 0.  1.
         21   -1    0    0  501  503 -0.00000000000E+00 -0.00000000000E+00 -0.44082199106E+03  0.44082199106E+03  0.00000000000E+00 0.  1.
          6    2    1    2  501    0 -0.37273687172E+03  0.79135763127E+02 -0.14378012692E+03  0.44146967896E+03  0.17037461079E+03 0.  0.
         24    2    3    3    0    0 -0.27441257146E+03  0.35476496984E+02 -0.42463294873E+02  0.29361505442E+03  0.88576676154E+02 0.  0.
         -6    2    1    2    0  502  0.37273687172E+03 -0.79135763127E+02  0.14555709188E+03  0.44195126811E+03  0.17011411418E+03 0.  0.
        -24    2    5    5    0    0  0.17912496763E+03 -0.66712300411E+02  0.13569678519E+03  0.24763393106E+03  0.79828949921E+02 0.  0.
          5    1    3    3  501    0 -0.98324300256E+02  0.43659266143E+02 -0.10131683205E+03  0.14785462454E+03  0.47000000000E+01 0. -1.
        -13    1    4    4    0    0  0.42490375946E+00  0.96426576784E+01 -0.12721300301E+02  0.15968496224E+02  0.00000000000E+00 0.  1.
         14    1    4    4    0    0 -0.27483747522E+03  0.25833839305E+02 -0.29741994573E+02  0.27764655820E+03  0.00000000000E+00 0. -1.
         -5    1    5    5    0  502  0.19361190409E+03 -0.12423462715E+02  0.98603066873E+01  0.19431733705E+03  0.47000000000E+01 0.  1.
         13    1    6    6    0    0  0.18226904686E+03 -0.75855475289E+02  0.13050819709E+03  0.23666104049E+03  0.00000000000E+00 0. -1.
        -14    1    6    6    0    0 -0.31440792321E+01  0.91431748776E+01  0.51885880959E+01  0.10972890571E+02  0.00000000000E+00 0.  1.
</event>
<event>
12    1  0.1066489E+000  0.1975458E+03  0.7818608E-02  0.1152003E+00
         21   -1    0    0  501  502  0.00000000000E+00  0.00000000000E+00  0.10251556058E+03  0.10251556058E+03  0.00000000000E+00 0. -1.
         21   -1    0    0  502  503 -0.00000000000E+00 -0.00000000000E+00 -0.86052576061E+03  0.86052576061E+03  0.00000000000E+00 0. -1.
         -6    2    1    2    0  503  0.87618310027E+02  0.47620128454E+02 -0.19185436892E+02  0.19847528785E+03  0.17052775144E+03 0.  0.
        -24    2    3    3    0    0  0.86468016515E+02  0.62095533632E+02 -0.67357363250E+02  0.14794326810E+03  0.77573339595E+02 0.  0.
          6    2    1    2  501    0 -0.87618310027E+02 -0.47620128454E+02 -0.73882476314E+03  0.76456603335E+03  0.16957164812E+03 0.  0.
         24    2    5    5    0    0 -0.51496945300E+01  0.11982057662E+02 -0.47993308854E+03  0.48635661168E+03  0.77697459349E+02 0.  0.
          5    1    5    5  501    0 -0.82468615497E+02 -0.59602186116E+02 -0.25889167460E+03  0.27820942167E+03  0.47000000000E+01 0. -1.
        -13    1    6    6    0    0 -0.65081925221E+01  0.37441217326E+02 -0.41279517460E+03  0.41454077905E+03  0.00000000000E+00 0.  1.
         14    1    6    6    0    0  0.13584979921E+01 -0.25459159664E+02 -0.67137913935E+02  0.71815832622E+02  0.00000000000E+00 0. -1.
         -5    1    3    3    0  503  0.11502935118E+01 -0.14475405178E+02  0.48171926358E+02  0.50532019742E+02  0.47000000000E+01 0.  1.
         13    1    4    4    0    0  0.90076732104E+02  0.23706437710E+02 -0.48738961805E+02  0.10512515994E+03  0.00000000000E+00 0. -1.
        -14    1    4    4    0    0 -0.36087155893E+01  0.38389095922E+02 -0.18618401445E+02  0.42818108159E+02  0.00000000000E+00 0.  1.
</event>
<event>
12    1  0.1066489E+000  0.3165961E+03  0.7818608E-02  0.1077273E+00
         21   -1    0    0  503  502  0.00000000000E+00  0.00000000000E+00  0.82647510486E+02  0.82647510486E+02  0.00000000000E+00 0. -1.
         21   -1    0    0  501  503 -0.00000000000E+00 -0.00000000000E+00 -0.16549406906E+04  0.16549406906E+04  0.00000000000E+00 0. -1.
          6    2    1    2  501    0  0.23531348751E+03  0.12409174153E+03 -0.33666434206E+03  0.46214280259E+03  0.17164467091E+03 0.  0.
         24    2    3    3    0    0  0.39779204675E+02  0.38296995242E+02 -0.73051409892E+02  0.12286671699E+03  0.81918720009E+02 0.  0.
         -6    2    1    2    0  502 -0.23531348751E+03 -0.12409174153E+03 -0.12356288380E+04  0.12754453985E+04  0.17091267182E+03 0.  0.
        -24    2    5    5    0    0 -0.16832955453E+03 -0.14211004290E+02 -0.76717868509E+03  0.78961800167E+03  0.79979135614E+02 0.  0.
          5    1    3    3  501    0  0.19553428284E+03  0.85794746283E+02 -0.26361293216E+03  0.33927608560E+03  0.47000000000E+01 0. -1.
        -11    1    4    4    0    0  0.18874460042E+02  0.42967023890E+02 -0.85903550568E+02  0.97886824364E+02  0.00000000000E+00 0.  1.
         12    1    4    4    0    0  0.20904744633E+02 -0.46700286483E+01  0.12852140676E+02  0.24979892628E+02  0.00000000000E+00 0. -1.
         -5    1    5    5    0  502 -0.66983932985E+02 -0.10988073724E+03 -0.46845015295E+03  0.48582739682E+03  0.47000000000E+01 0.  1.
         13    1    6    6    0    0  0.26927519988E+01  0.11737738359E+02 -0.28198826756E+02  0.30662668597E+02  0.00000000000E+00 0. -1.
        -14    1    6    6    0    0 -0.17102230652E+03 -0.25948742649E+02 -0.73897985834E+03  0.75895533308E+03  0.00000000000E+00 0.  1.
</event>
<event>
12    1  0.1066489E+000  0.2086517E+03  0.7818608E-02  0.1144939E+00
         21   -1    0    0  501  502  0.00000000000E+00  0.00000000000E+00  0.41491499406E+02  0.41491499406E+02  0.00000000000E+00 0.  1.
         21   -1    0    0  502  503 -0.00000000000E+00 -0.00000000000E+00 -0.12098044910E+04  0.12098044910E+04  0.00000000000E+00 0.  1.
         -6    2    1    2    0  503  0.54974912084E+02 -0.10413996235E+03 -0.33306465914E+03  0.39302367755E+03  0.17224451001E+03 0.  0.
        -24    2    3    3    0    0  0.93952119742E+02 -0.85724391064E+02 -0.30700263197E+03  0.34243044438E+03  0.82657856072E+02 0.  0.
          6    2    1    2  501    0 -0.54974912084E+02  0.10413996235E+03 -0.83524833240E+03  0.85827231281E+03  0.15850619367E+03 0.  0.
         24    2    5    5    0    0 -0.89226924546E+02  0.10959406564E+03 -0.68525915553E+03  0.70425351272E+03  0.80128625706E+02 0.  0.
          5    1    5    5  501    0  0.34252012463E+02 -0.54541032885E+01 -0.14998917687E+03  0.15401880009E+03  0.47000000000E+01 0. -1.
        -11    1    6    6    0    0  0.43947367195E+00 -0.10904477458E+02 -0.74585941826E+02  0.75380126584E+02  0.00000000000E+00 0.  1.
         12    1    6    6    0    0 -0.89666398218E+02  0.12049854310E+03 -0.61067321370E+03  0.62887338614E+03  0.00000000000E+00 0. -1.
         -5    1    3    3    0  503 -0.38977207658E+02 -0.18415571289E+02 -0.26062027172E+02  0.50593233174E+02  0.47000000000E+01 0.  1.
         11    1    4    4    0    0  0.24368165620E+02 -0.73164066240E+02 -0.12147484459E+03  0.14388511372E+03  0.00000000000E+00 0. -1.
        -12    1    4    4    0    0  0.69583954122E+02 -0.12560324824E+02 -0.18552778739E+03  0.19854533065E+03  0.00000000000E+00 0.  1.
</event>
<event>
12    1  0.1066489E+000  0.2132049E+03  0.7818608E-02  0.1139089E+00
         21   -1    0    0  503  502  0.00000000000E+00  0.00000000000E+00  0.25545476702E+03  0.25545476702E+03  0.00000000000E+00 0.  1.
         21   -1    0    0  501  503 -0.00000000000E+00 -0.00000000000E+00 -0.17938468819E+03  0.17938468819E+03  0.00000000000E+00 0.  1.
          6    2    1    2  501    0  0.12232599061E+03 -0.28846502592E+02  0.17495077880E+02  0.21373458159E+03  0.17199018846E+03 0.  0.
         24    2    3    3    0    0  0.14687679649E+03  0.50541695840E+00 -0.75157123012E+01  0.16777909361E+03  0.80748309752E+02 0.  0.
         -6    2    1    2    0  502 -0.12232599061E+03  0.28846502592E+02  0.58575000945E+02  0.22110487362E+03  0.17222243092E+03 0.  0.
        -24    2    5    5    0    0 -0.14841486906E+03  0.45414078410E+02  0.26690986980E+02  0.17645294764E+03  0.79585313137E+02 0.  0.
          5    1    3    3  501    0 -0.24550805876E+02 -0.29351919551E+02  0.25010790181E+02  0.45955487985E+02  0.47000000000E+01 0. -1.
        -13    1    4    4    0    0  0.60797936298E+02 -0.33465802179E+02 -0.24686333295E+02  0.73659785671E+02  0.00000000000E+00 0.  1.
         14    1    4    4    0    0  0.86078860191E+02  0.33971219137E+02  0.17170620994E+02  0.94119307939E+02  0.00000000000E+00 0. -1.
         -5    1    5    5    0  502  0.26088878450E+02 -0.16567575818E+02  0.31884013965E+02  0.44651925980E+02  0.47000000000E+01 0.  1.
         11    1    6    6    0    0  0.22902567552E+01  0.20847649619E+02  0.86868130848E+01  0.22700891882E+02  0.00000000000E+00 0. -1.
        -12    1    6    6    0    0 -0.15070512582E+03  0.24566428791E+02  0.18004173895E+02  0.15375205576E+03  0.00000000000E+00 0.  1.
</event>
<event>
12    1  0.1066489E+000  0.3652189E+03  0.7818608E-02  0.1056780E+00
         21   -1    0    0  503  502  0.00000000000E+00  0.00000000000E+00  0.29128206757E+03  0.29128206757E+03  0.00000000000E+00 0.  1.
         21   -1    0    0  501  503 -0.00000000000E+00 -0.00000000000E+00 -0.46981397408E+03  0.46981397408E+03  0.00000000000E+00 0.  1.
          6    2    1    2  501    0  0.31567887038E+03 -0.46187113573E+02 -0.21533719518E+02  0.36585314681E+03  0.17775945908E+03 0.  0.
         24    2    3    3    0    0  0.12525440476E+03 -0.83681359072E+02  0.44142190757E+01  0.16998921172E+03  0.78648655450E+02 0.  0.
         -6    2    1    2    0  502 -0.31567887038E+03  0.46187113573E+02 -0.15699818699E+03  0.39524289484E+03  0.17257495919E+03 0.  0.
        -24    2    5    5    0    0 -0.29020455382E+03  0.55646528069E+02 -0.18342392159E+03  0.35704825155E+03  0.80770661658E+02 0.  0.
          5    1    3    3  501    0  0.19042446561E+03  0.37494245499E+02 -0.25947938594E+02  0.19586393509E+03  0.47000000000E+01 0. -1.
        -13    1    4    4    0    0  0.27715981937E+02 -0.63912147365E+02  0.96587490840E+01  0.70329436721E+02  0.00000000000E+00 0.  1.
         14    1    4    4    0    0  0.97538422825E+02 -0.19769211707E+02 -0.52445300082E+01  0.99659775003E+02  0.00000000000E+00 0. -1.
         -5    1    5    5    0  502 -0.25474316556E+02 -0.94594144954E+01  0.26425734597E+02  0.38194643284E+02  0.47000000000E+01 0.  1.
         13    1    6    6    0    0 -0.74320495502E+02  0.81494895797E+01 -0.86705151563E+01  0.75267045014E+02  0.00000000000E+00 0. -1.
        -14    1    6    6    0    0 -0.21588405832E+03  0.47497038489E+02 -0.17475340643E+03  0.28178120654E+03  0.00000000000E+00 0.  1.
</event>
<event>
12    1  0.1066489E+000  0.2205362E+03  0.7818608E-02  0.1134128E+00
         21   -1    0    0  503  502  0.00000000000E+00  0.00000000000E+00  0.41449393342E+03  0.41449393342E+03  0.00000000000E+00 0. -1.
         21   -1    0    0  501  503 -0.00000000000E+00 -0.00000000000E+00 -0.11704173559E+03  0.11704173559E+03  0.00000000000E+00 0. -1.
          6    2    1    2  501    0  0.94209951169E+02  0.98472352198E+02  0.17790320317E+03  0.28068079096E+03  0.16899656111E+03 0.  0.
         24    2    3    3    0    0  0.73375068926E+02  0.89422020471E+02  0.20331478986E+03  0.24627382131E+03  0.77030466694E+02 0.  0.
         -6    2    1    2    0  502 -0.94209951169E+02 -0.98472352198E+02  0.11954899467E+03  0.25085487805E+03  0.17338941337E+03 0.  0.
        -24    2    5    5    0    0 -0.91914009222E+02 -0.16849084511E+02  0.11831561881E+03  0.16905487564E+03  0.76478026816E+02 0.  0.
          5    1    3    3  501    0  0.20834882244E+02  0.90503317271E+01 -0.25411586691E+02  0.34406969652E+02  0.47000000000E+01 0. -1.
        -13    1    4    4    0    0  0.70540924221E+02  0.69831453138E+02  0.99338190132E+02  0.14042980402E+03  0.00000000000E+00 0.  1.
         14    1    4    4    0    0  0.28341447047E+01  0.19590567332E+02  0.10397659973E+03  0.10584401729E+03  0.00000000000E+00 0. -1.
         -5    1    5    5    0  502 -0.22959419469E+01 -0.81623267687E+02  0.12333758602E+01  0.81800002404E+02  0.47000000000E+01 0.  1.
         13    1    6    6    0    0  0.53607019823E+01 -0.20318924423E+02  0.95130037176E+01  0.23067142328E+02  0.00000000000E+00 0. -1.
        -14    1    6    6    0    0 -0.97274711205E+02  0.34698399122E+01  0.10880261509E+03  0.14598773332E+03  0.00000000000E+00 0.  1.
</event>
<event>
12    1  0.1066489E+000  0.3702325E+03  0.7818608E-02  0.1054687E+00
         21   -1    0    0  503  502  0.00000000000E+00  0.00000000000E+00  0.69904917915E+02  0.69904917915E+02  0.00000000000E+00 0.  1.
         21   -1    0    0  501  503 -0.00000000000E+00 -0.00000000000E+00 -0.22897926830E+04  0.22897926830E+04  0.00000000000E+00 0.  1.
          6    2    1    2  501    0  0.32633280591E+03  0.30408188505E+02 -0.65850622732E+03  0.75502180339E+03  0.17032238261E+03 0.  0.
         24    2    3    3    0    0  0.16645245802E+03 -0.49248746847E+02 -0.37757617952E+03  0.42207926367E+03  0.73859824219E+02 0.  0.
         -6    2    1    2    0  502 -0.32633280591E+03 -0.30408188505E+02 -0.15613815377E+04  0.16046757975E+04  0.17220438604E+03 0.  0.
        -24    2    5    5    0    0 -0.26406488339E+03 -0.45361761486E+02 -0.14437969364E+04  0.14707014269E+04  0.81394971165E+02 0.  0.
          5    1    3    3  501    0  0.15988034789E+03  0.79656935352E+02 -0.28093004781E+03  0.33294253972E+03  0.47000000000E+01 0. -1.
        -11    1    4    4    0    0  0.95077883350E+01 -0.16301354420E+02 -0.97777958469E+02  0.99582434984E+02  0.00000000000E+00 0.  1.
         12    1    4    4    0    0  0.15694466968E+03 -0.32947392427E+02 -0.27979822105E+03  0.32249682868E+03  0.00000000000E+00 0. -1.
         -5    1    5    5    0  502 -0.62267922525E+02  0.14953572981E+02 -0.11758460130E+03  0.13397437062E+03  0.47000000000E+01 0.  1.
         11    1    6    6    0    0 -0.15776374067E+03  0.95758579742E+01 -0.72667489497E+03  0.74366490969E+03  0.00000000000E+00 0. -1.
        -12    1    6    6    0    0 -0.10630114272E+03 -0.54937619460E+02 -0.71712204145E+03  0.72703651718E+03  0.00000000000E+00 0.  1.
</event>
<event>
12    1  0.1066489E+000  0.3917011E+03  0.7818608E-02  0.1046851E+00
         21   -1    0    0  503  502  0.00000000000E+00  0.00000000000E+00  0.74264379708E+03  0.74264379708E+03  0.00000000000E+00 0.  1.
         21   -1    0    0  501  503 -0.00000000000E+00 -0.00000000000E+00 -0.20662801075E+03  0.20662801075E+03  0.00000000000E+00 0. -1.
          6    2    1    2  501    0  0.14679117666E+03 -0.31893503726E+03  0.23609791664E+03  0.45735318985E+03  0.17367356302E+03 0.  0.
         24    2    3    3    0    0  0.17598561990E+03 -0.24503828210E+03  0.18802759527E+03  0.36436990245E+03  0.79977191258E+02 0.  0.
         -6    2    1    2    0  502 -0.14679117666E+03  0.31893503726E+03  0.29991786970E+03  0.49191861798E+03  0.16960539679E+03 0.  0.
        -24    2    5    5    0    0 -0.14866685397E+03  0.17189825848E+03  0.16325502337E+03  0.29111484300E+03  0.80279539266E+02 0.  0.
          5    1    3    3  501    0 -0.29194443249E+02 -0.73896755157E+02  0.48070321370E+02  0.92983287401E+02  0.47000000000E+01 0. -1.
        -11    1    4    4    0    0  0.16429168060E+03 -0.17125571203E+03  0.14661242873E+03  0.27895426054E+03  0.00000000000E+00 0.  1.
         12    1    4    4    0    0  0.11693939301E+02 -0.73782570071E+02  0.41415166539E+02  0.85415641905E+02  0.00000000000E+00 0. -1.
         -5    1    5    5    0  502  0.18756773161E+01  0.14703677878E+03  0.13666284633E+03  0.20080377498E+03  0.47000000000E+01 0.  1.
         11    1    6    6    0    0 -0.12642819725E+03  0.16039177746E+03  0.16939028912E+03  0.26533503610E+03  0.00000000000E+00 0. -1.
        -12    1    6    6    0    0 -0.22238656721E+02  0.11506481018E+02 -0.61352657455E+01  0.25779806903E+02  0.00000000000E+00 0.  1.
</event>
<event>
12    1  0.1066489E+000  0.5967202E+03  0.7818608E-02  0.9912313E-01
         21   -1    0    0  503  502  0.00000000000E+00  0.00000000000E+00  0.54739185060E+03  0.54739185060E+03  0.00000000000E+00 0. -1.
         21   -1    0    0  501  503 -0.00000000000E+00 -0.00000000000E+00 -0.69698638766E+03  0.69698638766E+03  0.00000000000E+00 0. -1.
          6    2    1    2  501    0 -0.44247545987E+03  0.36135748635E+03  0.86189447788E+02  0.60276376198E+03  0.17184809082E+03 0.  0.
         24    2    3    3    0    0 -0.16707320079E+03  0.20733015326E+03  0.64989068110E+02  0.28646901061E+03  0.83316674168E+02 0.  0.
         -6    2    1    2    0  502  0.44247545987E+03 -0.36135748635E+03 -0.23578398484E+03  0.64161447628E+03  0.17236961200E+03 0.  0.
        -24    2    5    5    0    0  0.17199163969E+03 -0.16221627371E+03 -0.16130535378E+03  0.29753908333E+03  0.81331699676E+02 0.  0.
          5    1    3    3  501    0 -0.27540225908E+03  0.15402733309E+03  0.21200379678E+02  0.31629475137E+03  0.47000000000E+01 0. -1.
        -13    1    4    4    0    0 -0.16796739296E+03  0.16332482344E+03  0.47164196158E+02  0.23898222622E+03  0.00000000000E+00 0.  1.
         14    1    4    4    0    0  0.89419216744E+00  0.44005329815E+02  0.17824871952E+02  0.47486784391E+02  0.00000000000E+00 0. -1.
         -5    1    5    5    0  502  0.27048382018E+03 -0.19914121263E+03 -0.74478631062E+02  0.34407539295E+03  0.47000000000E+01 0.  1.
         13    1    6    6    0    0  0.13795651367E+02  0.32821690627E+01  0.44808866474E+01  0.14871818165E+02  0.00000000000E+00 0. -1.
        -14    1    6    6    0    0  0.15819598832E+03 -0.16549844278E+03 -0.16578624043E+03  0.28266726517E+03  0.00000000000E+00 0.  1.
</event>
<event>
12    1  0.1066489E+000  0.1928915E+03  0.7818608E-02  0.1156131E+00
         21   -1    0    0  501  502  0.00000000000E+00  0.00000000000E+00  0.72448611691E+02  0.72448611691E+02  0.00000000000E+00 0.  1.
         21   -1    0    0  502  503 -0.00000000000E+00 -0.00000000000E+00 -0.60390401329E+03  0.60390401329E+03  0.00000000000E+00 0.  1.
         -6    2    1    2    0  503 -0.15092764104E+00  0.85703774082E+02 -0.39803137983E+03  0.44181243207E+03  0.17153450420E+03 0.  0.
        -24    2    3    3    0    0  0.25618134427E+02  0.12086755584E+03 -0.29093153521E+03  0.32608429018E+03  0.80153298495E+02 0.  0.
          6    2    1    2  501    0  0.15092764104E+00 -0.85703774082E+02 -0.13342402177E+03  0.23454019291E+03  0.17280617129E+03 0.  0.
         24    2    5    5    0    0 -0.27537241678E+02 -0.12079468097E+03 -0.93434420293E+02  0.17437986800E+03  0.79553081897E+02 0.  0.
          5    1    5    5  501    0  0.27688169319E+02  0.35090906890E+02 -0.39989601478E+02  0.60160324907E+02  0.47000000000E+01 0. -1.
        -13    1    6    6    0    0 -0.87826377552E+01 -0.10440121296E+03 -0.34346739450E+02  0.11025627649E+03  0.00000000000E+00 0.  1.
         14    1    6    6    0    0 -0.18754603923E+02 -0.16393468010E+02 -0.59087680843E+02  0.64123591517E+02  0.00000000000E+00 0. -1.
         -5    1    3    3    0  503 -0.25769062068E+02 -0.35163781753E+02 -0.10709984462E+03  0.11572814189E+03  0.47000000000E+01 0.  1.
         11    1    4    4    0    0 -0.28543520578E+02  0.48492901916E+02 -0.97500282557E+02  0.11257263967E+03  0.00000000000E+00 0. -1.
        -12    1    4    4    0    0  0.54161655005E+02  0.72374653920E+02 -0.19343125265E+03  0.21351165051E+03  0.00000000000E+00 0.  1.
</event>
<event>
12    1  0.1066489E+000  0.3420988E+03  0.7818608E-02  0.1065908E+00
         21   -1    0    0  503  502  0.00000000000E+00  0.00000000000E+00  0.10067432363E+04  0.10067432363E+04  0.00000000000E+00 0.  1.
         21   -1    0    0  501  503 -0.00000000000E+00 -0.00000000000E+00 -0.12598870756E+03  0.12598870756E+03  0.00000000000E+00 0.  1.
          6    2    1    2  501    0 -0.75713008544E+01  0.29583334028E+03  0.28280789385E+03  0.44384026578E+03  0.17157851523E+03 0.  0.
         24    2    3    3    0    0 -0.50822318364E+02  0.21805895462E+03  0.25990671959E+03  0.35182907427E+03  0.78099800774E+02 0.  0.
         -6    2    1    2    0  502  0.75713008544E+01 -0.29583334028E+03  0.59794663492E+03  0.68889167810E+03  0.17163005600E+03 0.  0.
        -24    2    5    5    0    0  0.33789689917E+02 -0.22562024940E+03  0.32145178659E+03  0.40238029401E+03  0.80823324765E+02 0.  0.
          5    1    3    3  501    0  0.43251017509E+02  0.77774385665E+02  0.22901174256E+02  0.92011191512E+02  0.47000000000E+01 0. -1.
        -13    1    4    4    0    0 -0.38059732353E+02  0.32746829095E+02  0.41697824486E+02  0.65265661794E+02  0.00000000000E+00 0.  1.
         14    1    4    4    0    0 -0.12762586011E+02  0.18531212552E+03  0.21820889510E+03  0.28656341247E+03  0.00000000000E+00 0. -1.
         -5    1    5    5    0  502 -0.26218389062E+02 -0.70213090884E+02  0.27649484833E+03  0.28651138409E+03  0.47000000000E+01 0.  1.
         11    1    6    6    0    0  0.23820873573E+02 -0.20598944330E+03  0.31865799747E+03  0.38018680161E+03  0.00000000000E+00 0. -1.
        -12    1    6    6    0    0  0.99688163440E+01 -0.19630806098E+02  0.27937891207E+01  0.22193492403E+02  0.00000000000E+00 0.  1.
</event>
<event>
12    1  0.1066489E+000  0.3348281E+03  0.7818608E-02  0.1069102E+00
         21   -1    0    0  503  502  0.00000000000E+00  0.00000000000E+00  0.59922604451E+03  0.59922604451E+03  0.00000000000E+00 0. -1.
         21   -1    0    0  501  503 -0.00000000000E+00 -0.00000000000E+00 -0.34341202530E+03  0.34341202530E+03  0.00000000000E+00 0.  1.
          6    2    1    2  501    0 -0.46182407987E+00  0.28767151133E+03  0.44624667754E+03  0.55744400318E+03  0.16986055386E+03 0.  0.
         24    2    3    3    0    0 -0.70406175306E+01  0.14361949170E+03  0.33971204660E+03  0.37809522992E+03  0.82919235343E+02 0.  0.
         -6    2    1    2    0  502  0.46182407987E+00 -0.28767151133E+03 -0.19043265833E+03  0.38519406662E+03  0.17133230837E+03 0.  0.
        -24    2    5    5    0    0 -0.27287602164E+02 -0.25624212801E+03 -0.20664877336E+03  0.33999573502E+03  0.80552733710E+02 0.  0.
          5    1    3    3  501    0  0.65787934507E+01  0.14405201963E+03  0.10653463094E+03  0.17934877326E+03  0.47000000000E+01 0. -1.
        -13    1    4    4    0    0 -0.33176640697E+02  0.12305109796E+03  0.30213129432E+03  0.32791093486E+03  0.00000000000E+00 0.  1.
         14    1    4    4    0    0  0.26136023167E+02  0.20568393743E+02  0.37580752287E+02  0.50184295060E+02  0.00000000000E+00 0. -1.
         -5    1    5    5    0  502  0.27749426244E+02 -0.31429383325E+02  0.16216115024E+02  0.45198331601E+02  0.47000000000E+01 0.  1.
         13    1    6    6    0    0 -0.53509810403E+02 -0.14247086434E+03 -0.13164947105E+03  0.20122830373E+03  0.00000000000E+00 0. -1.
        -14    1    6    6    0    0  0.26222208238E+02 -0.11377126367E+03 -0.74999302308E+02  0.13876743129E+03  0.00000000000E+00 0.  1.
</event>
<event>
12    1  0.1066489E+000  0.2263651E+03  0.7818608E-02  0.1129251E+00
         21   -1    0    0  501  502  0.00000000000E+00  0.00000000000E+00  0.30900216371E+03  0.30900216371E+03  0.00000000000E+00 0. -1.
         21   -1    0    0  502  503 -0.00000000000E+00 -0.00000000000E+00 -0.31914858509E+03  0.31914858509E+03  0.00000000000E+00 0. -1.
         -6    2    1    2    0  503 -0.14535505828E+03  0.21664791020E+02  0.21269405183E+03  0.31050467451E+03  0.17197946700E+03 0.  0.
        -24    2    3    3    0    0 -0.69878209667E+02  0.23775844901E+02  0.29800530729E+02  0.11258211065E+03  0.79614100628E+02 0.  0.
          6    2    1    2  501    0  0.14535505828E+03 -0.21664791020E+02 -0.22284047320E+03  0.31764607429E+03  0.17217344708E+03 0.  0.
         24    2    5    5    0    0  0.95122608313E+02 -0.63754550715E+02 -0.81090589305E+02  0.16140918209E+03  0.79776481743E+02 0.  0.
          5    1    5    5  501    0  0.50232449968E+02  0.42089759695E+02 -0.14174988390E+03  0.15623689220E+03  0.47000000000E+01 0. -1.
        -11    1    6    6    0    0  0.70876527603E+02  0.48219208979E+00 -0.39742064191E+02  0.81259746126E+02  0.00000000000E+00 0.  1.
         12    1    6    6    0    0  0.24246080710E+02 -0.64236742804E+02 -0.41348525114E+02  0.80149435962E+02  0.00000000000E+00 0. -1.
         -5    1    3    3    0  503 -0.75476848614E+02 -0.21110538807E+01  0.18289352110E+03  0.19792256386E+03  0.47000000000E+01 0.  1.
         11    1    4    4    0    0 -0.96168786838E+01  0.21751539255E+02  0.44557438913E+02  0.50507219069E+02  0.00000000000E+00 0. -1.
        -12    1    4    4    0    0 -0.60261330983E+02  0.20243056452E+01 -0.14756908183E+02  0.62074891577E+02  0.00000000000E+00 0.  1.
</event>
<event>
12    1  0.1066489E+000  0.2833285E+03  0.7818608E-02  0.1094036E+00
         21   -1    0    0  503  502  0.00000000000E+00  0.00000000000E+00  0.34179077160E+03  0.34179077160E+03  0.00000000000E+00 0.  1.
         21   -1    0    0  501  503 -0.00000000000E+00 -0.00000000000E+00 -0.31238873326E+03  0.31238873326E+03  0.00000000000E+00 0.  1.
          6    2    1    2  501    0  0.64718001944E+01  0.22445236207E+03 -0.14923935290E+03  0.31923506115E+03  0.17093242166E+03 0.  0.
         24    2    3    3    0    0 -0.43015381407E+02  0.67639074565E+02 -0.36725565470E+02  0.11993420655E+03  0.81302394163E+02 0.  0.
         -6    2    1    2    0  502 -0.64718001944E+01 -0.22445236207E+03  0.17864139123E+03  0.33494444372E+03  0.17278393061E+03 0.  0.
        -24    2    5    5    0    0 -0.11117713382E+02 -0.99748693016E+02  0.16585310076E+03  0.20941269491E+03  0.79202401788E+02 0.  0.
          5    1    3    3  501    0  0.49487181601E+02  0.15681328750E+03 -0.11251378743E+03  0.19930085459E+03  0.47000000000E+01 0. -1.
        -11    1    4    4    0    0  0.16784857456E+01  0.42702323845E+02  0.16762113113E+02  0.45905056498E+02  0.00000000000E+00 0.  1.
         12    1    4    4    0    0 -0.44693867152E+02  0.24936750721E+02 -0.53487678583E+02  0.74029150054E+02  0.00000000000E+00 0. -1.
         -5    1    5    5    0  502  0.46459131879E+01 -0.12470366905E+03  0.12788290475E+02  0.12553174880E+03  0.47000000000E+01 0.  1.
         11    1    6    6    0    0 -0.99362889133E+01  0.61317148005E+01 -0.10837680913E+01  0.11726138198E+02  0.00000000000E+00 0. -1.
        -12    1    6    6    0    0 -0.11814244691E+01 -0.10588040782E+03  0.16693686885E+03  0.19768655671E+03  0.00000000000E+00 0.  1.
</event>
<event>
12    1  0.1066489E+000  0.1904648E+03  0.7818608E-02  0.1158234E+00
         21   -1    0    0  501  502  0.00000000000E+00  0.00000000000E+00  0.57091871622E+03  0.57091871622E+03  0.00000000000E+00 0.  1.
         21   -1    0    0  502  503 -0.00000000000E+00 -0.00000000000E+00 -0.64796297005E+02  0.64796297005E+02  0.00000000000E+00 0.  1.
         -6    2    1    2    0  503 -0.78431837145E+02  0.17892220008E+02  0.30146926457E+03  0.35614437107E+03  0.17170734100E+03 0.  0.
        -24    2    3    3    0    0 -0.26001658037E+01 -0.43750386740E+02  0.17827718586E+03  0.19882739296E+03  0.76346054197E+02 0.  0.
          6    2    1    2  501    0  0.78431837145E+02 -0.17892220008E+02  0.20465315464E+03  0.27957064215E+03  0.17264166830E+03 0.  0.
         24    2    5    5    0    0  0.66009156093E+02  0.55417674516E+02  0.11657302225E+03  0.16420659506E+03  0.77111665827E+02 0.  0.
          5    1    5    5  501    0  0.12422681053E+02 -0.73309894524E+02  0.88080132391E+02  0.11536404709E+03  0.47000000000E+01 0. -1.
        -13    1    6    6    0    0 -0.51186353709E+01  0.16476785709E+00 -0.85931124563E+01  0.10003457312E+02  0.00000000000E+00 0.  1.
         14    1    6    6    0    0  0.71127791464E+02  0.55252906659E+02  0.12516613471E+03  0.15420313774E+03  0.00000000000E+00 0. -1.
         -5    1    3    3    0  503 -0.75831671342E+02  0.61642606748E+02  0.12319207870E+03  0.15731697811E+03  0.47000000000E+01 0.  1.
         13    1    4    4    0    0 -0.36337985818E+02 -0.52300034215E+01  0.79452735855E+02  0.87524507333E+02  0.00000000000E+00 0. -1.
        -14    1    4    4    0    0  0.33737820014E+02 -0.38520383318E+02  0.98824450010E+02  0.11130288563E+03  0.00000000000E+00 0.  1.
</event>
<event>
12    1  0.1066489E+000  0.4029283E+03  0.7818608E-02  0.1042794E+00
         21   -1    0    0  503  502  0.00000000000E+00  0.00000000000E+00  0.16726273150E+04  0.16726273150E+04  0.00000000000E+00 0. -1.
         21   -1    0    0  501  503 -0.00000000000E+00 -0.00000000000E+00 -0.97457699795E+02  0.97457699795E+02  0.00000000000E+00 0. -1.
          6    2    1    2  501    0 -0.34685333084E+03  0.10976248512E+03  0.72651278913E+03  0.83063324708E+03  0.17255643172E+03 0.  0.
         24    2    3    3    0    0 -0.26691378843E+03  0.75835022152E+02  0.66361514128E+03  0.72330381361E+03  0.76088303997E+02 0.  0.
         -6    2    1    2    0  502  0.34685333084E+03 -0.10976248512E+03  0.84865682604E+03  0.93945176768E+03  0.17319405062E+03 0.  0.
        -24    2    5    5    0    0  0.10446095129E+03 -0.37580793378E+02  0.18599926375E+03  0.23015535775E+03  0.77790463496E+02 0.  0.
          5    1    3    3  501    0 -0.79939542407E+02  0.33927462965E+02  0.62897647851E+02  0.10732943347E+03  0.47000000000E+01 0. -1.
        -11    1    4    4    0    0 -0.72646621289E+02  0.38313321763E+02  0.27818305702E+03  0.29005388366E+03  0.00000000000E+00 0.  1.
         12    1    4    4    0    0 -0.19426716714E+03  0.37521700389E+02  0.38543208426E+03  0.43324992995E+03  0.00000000000E+00 0. -1.
         -5    1    5    5    0  502  0.24239237955E+03 -0.72181691739E+02  0.66265756228E+03  0.70929640993E+03  0.47000000000E+01 0.  1.
         13    1    6    6    0    0  0.11292622720E+03 -0.31794104618E+02  0.13825299628E+03  0.18132040387E+03  0.00000000000E+00 0. -1.
        -14    1    6    6    0    0 -0.84652759168E+01 -0.57866887597E+01  0.47746267476E+02  0.48834953886E+02  0.00000000000E+00 0.  1.
</event>
<event>
12    1  0.1066489E+000  0.2608586E+03  0.7818608E-02  0.1107703E+00
         21   -1    0    0  501  502  0.00000000000E+00  0.00000000000E+00  0.17151367971E+03  0.17151367971E+03  0.00000000000E+00 0.  1.
         21   -1    0    0  502  503 -0.00000000000E+00 -0.00000000000E+00 -0.44146239628E+03  0.44146239628E+03  0.00000000000E+00 0.  1.
         -6    2    1    2    0  503 -0.15637555693E+03 -0.11930161586E+03 -0.28022198142E+02  0.26235937280E+03  0.17135053707E+03 0.  0.
        -24    2    3    3    0    0 -0.55296667415E+02 -0.13714910211E+00 -0.39762468521E+02  0.10558872506E+03  0.80685715714E+02 0.  0.
          6    2    1    2  501    0  0.15637555693E+03  0.11930161586E+03 -0.24192651842E+03  0.35061670319E+03  0.16036658595E+03 0.  0.
         24    2    5    5    0    0  0.13951954506E+03  0.12859539658E+03 -0.14543472295E+03  0.25211159627E+03  0.80040732496E+02 0.  0.
          5    1    5    5  501    0  0.16856011871E+02 -0.92937807172E+01 -0.96491795478E+02  0.98505106927E+02  0.47000000000E+01 0. -1.
        -13    1    6    6    0    0  0.38325017607E+02  0.73088424188E+02 -0.95877888997E+02  0.12650412769E+03  0.00000000000E+00 0.  1.
         14    1    6    6    0    0  0.10119452745E+03  0.55506972392E+02 -0.49556833949E+02  0.12560746857E+03  0.00000000000E+00 0. -1.
         -5    1    3    3    0  503 -0.10107888951E+03 -0.11916446676E+03  0.11740270379E+02  0.15677064774E+03  0.47000000000E+01 0.  1.
         11    1    4    4    0    0 -0.23911500242E+02  0.20239067738E+02  0.18472571878E+02  0.36367782700E+02  0.00000000000E+00 0. -1.
        -12    1    4    4    0    0 -0.31385167173E+02 -0.20376216840E+02 -0.58235040399E+02  0.69220942362E+02  0.00000000000E+00 0.  1.
</event>
<event>
12    1  0.1066489E+000  0.2059442E+03  0.7818608E-02  0.1145005E+00
         21   -1    0    0  501  502  0.00000000000E+00  0.00000000000E+00  0.40354159660E+03  0.40354159660E+03  0.00000000000E+00 0. -1.
         21   -1    0    0  502  503 -0.00000000000E+00 -0.00000000000E+00 -0.11681570252E+03  0.11681570252E+03  0.00000000000E+00 0. -1.
         -6    2    1    2    0  503 -0.96158744538E+02  0.57601804894E+02  0.59636279359E+02  0.21440498335E+03  0.17276729722E+03 0.  0.
        -24    2    3    3    0    0 -0.38210423639E+02  0.53133232571E+02 -0.30325945893E+02  0.10719832308E+03  0.79300949542E+02 0.  0.
          6    2    1    2  501    0  0.96158744538E+02 -0.57601804894E+02  0.22708961473E+03  0.30595231577E+03  0.17167601560E+03 0.  0.
         24    2    5    5    0    0  0.60791373789E+02  0.13286657595E+02  0.19427071095E+03  0.22007335751E+03  0.82577522084E+02 0.  0.
          5    1    5    5  501    0  0.35367370750E+02 -0.70888462489E+02  0.32818903778E+02  0.85878958267E+02  0.47000000000E+01 0. -1.
        -11    1    6    6    0    0  0.39290384601E+02 -0.27618552854E+02  0.53415648052E+02  0.71831401494E+02  0.00000000000E+00 0.  1.
         12    1    6    6    0    0  0.21500989188E+02  0.40905210449E+02  0.14085506290E+03  0.14824195601E+03  0.00000000000E+00 0. -1.
         -5    1    3    3    0  503 -0.57948320899E+02  0.44685723231E+01  0.89962225252E+02  0.10720666027E+03  0.47000000000E+01 0.  1.
         11    1    4    4    0    0 -0.21489476055E+01 -0.15490852335E+02 -0.25005960894E+02  0.29493771581E+02  0.00000000000E+00 0. -1.
        -12    1    4    4    0    0 -0.36061476034E+02  0.68624084905E+02 -0.53199849988E+01  0.77704551496E+02  0.00000000000E+00 0.  1.
</event>
<event>
12    1  0.1066489E+000  0.2133934E+03  0.7818608E-02  0.1139009E+00
         21   -1    0    0  501  502  0.00000000000E+00  0.00000000000E+00  0.30553884328E+03  0.30553884328E+03  0.00000000000E+00 0. -1.
         21   -1    0    0  502  503 -0.00000000000E+00 -0.00000000000E+00 -0.30307887415E+03  0.30307887415E+03  0.00000000000E+00 0.  1.
         -6    2    1    2    0  503  0.70331245865E+02 -0.10476154675E+03  0.21843583119E+03  0.30500229553E+03  0.17143722498E+03 0.  0.
        -24    2    3    3    0    0  0.34238276002E+02 -0.12846635291E+03  0.20917681912E+03  0.26059013939E+03  0.80476181028E+02 0.  0.
          6    2    1    2  501    0 -0.70331245865E+02  0.10476154675E+03 -0.21597586206E+03  0.30361542189E+03  0.17209092247E+03 0.  0.
         24    2    5    5    0    0 -0.65718158122E+02 -0.43709385879E+01 -0.13981386051E+03  0.17037158371E+03  0.71697834920E+02 0.  0.
          5    1    5    5  501    0 -0.46130877428E+01  0.10913248534E+03 -0.76162001547E+02  0.13324383819E+03  0.47000000000E+01 0. -1.
        -11    1    6    6    0    0 -0.14935314332E+02 -0.34986557979E+02 -0.56296255860E+02  0.67944030475E+02  0.00000000000E+00 0.  1.
         12    1    6    6    0    0 -0.50782843790E+02  0.30615619391E+02 -0.83517604651E+02  0.10242755323E+03  0.00000000000E+00 0. -1.
         -5    1    3    3    0  503  0.36092969863E+02  0.23704806162E+02  0.92590120655E+01  0.44412156142E+02  0.47000000000E+01 0.  1.
         11    1    4    4    0    0  0.54260687442E+02 -0.48912969146E+02  0.10693778142E+03  0.12950826169E+03  0.00000000000E+00 0. -1.
        -12    1    4    4    0    0 -0.20022411440E+02 -0.79553383768E+02  0.10223903771E+03  0.13108187770E+03  0.00000000000E+00 0.  1.
</event>
<event>
12    1  0.1066489E+000  0.2165210E+03  0.7818608E-02  0.1137121E+00
         21   -1    0    0  501  502  0.00000000000E+00  0.00000000000E+00  0.48884905038E+02  0.48884905038E+02  0.00000000000E+00 0. -1.
         21   -1    0    0  502  503 -0.00000000000E+00 -0.00000000000E+00 -0.96511026604E+03  0.96511026604E+03  0.00000000000E+00 0. -1.
         -6    2    1    2    0  503 -0.58471332060E+02  0.11296158058E+03 -0.53499987947E+03  0.57715354539E+03  0.17522022877E+03 0.  0.
        -24    2    3    3    0    0 -0.62177253172E+01 -0.86113981186E+01 -0.15086236979E+03  0.17083575732E+03  0.79451778292E+02 0.  0.
          6    2    1    2  501    0  0.58471332060E+02 -0.11296158058E+03 -0.38122548153E+03  0.43684162568E+03  0.17122652481E+03 0.  0.
         24    2    5    5    0    0 -0.27873576072E+02 -0.44821995614E+02 -0.11934562800E+03  0.15276136609E+03  0.79414787759E+02 0.  0.
          5    1    5    5  501    0  0.86344908132E+02 -0.68139584965E+02 -0.26187985354E+03  0.28408025959E+03  0.47000000000E+01 0. -1.
        -11    1    6    6    0    0 -0.20049265130E+01  0.12751966972E+02  0.45723071458E+01  0.13694465474E+02  0.00000000000E+00 0.  1.
         12    1    6    6    0    0 -0.25868649559E+02 -0.57573962586E+02 -0.12391793514E+03  0.13906690062E+03  0.00000000000E+00 0. -1.
         -5    1    3    3    0  503 -0.52253606743E+02  0.12157297870E+03 -0.38413750967E+03  0.40631778807E+03  0.47000000000E+01 0.  1.
         13    1    4    4    0    0  0.32191243666E+02 -0.59741218979E+01 -0.31560108486E+02  0.45475342207E+02  0.00000000000E+00 0. -1.
        -14    1    4    4    0    0 -0.38408968983E+02 -0.26372762207E+01 -0.11930226131E+03  0.12536041511E+03  0.00000000000E+00 0.  1.
</event>
<event>
12    1  0.1066489E+000  0.1884198E+03  0.7818608E-02  0.1161041E+00
         21   -1    0    0  501  502  0.00000000000E+00  0.00000000000E+00  0.15199138437E+03  0.15199138437E+03  0.00000000000E+00 0. -1.
         21   -1    0    0  502  503 -0.00000000000E+00 -0.00000000000E+00 -0.23687488692E+03  0.23687488692E+03  0.00000000000E+00 0. -1.
         -6    2    1    2    0  503  0.64346680696E+02 -0.39517263877E+02 -0.80637057691E+02  0.20039866970E+03  0.16719803314E+03 0.  0.
        -24    2    3    3    0    0  0.32719602854E+02  0.41277436479E+02 -0.40900268520E+02  0.10485204196E+03  0.80911801155E+02 0.  0.
          6    2    1    2  501    0 -0.64346680696E+02  0.39517263877E+02 -0.42464448633E+01  0.18846760158E+03  0.17262646116E+03 0.  0.
         24    2    5    5    0    0 -0.44249111624E+02 -0.33536892379E+02  0.36863418344E+02  0.10213723102E+03  0.77397644137E+02 0.  0.
          5    1    5    5  501    0 -0.20097569072E+02  0.73054156256E+02 -0.41109863207E+02  0.86330370564E+02  0.47000000000E+01 0. -1.
        -13    1    6    6    0    0 -0.47779476484E+02  0.12251597100E+02  0.18671395373E+02  0.52740885560E+02  0.00000000000E+00 0.  1.
         14    1    6    6    0    0  0.35303648596E+01 -0.45788489478E+02  0.18192022971E+02  0.49396345457E+02  0.00000000000E+00 0. -1.
         -5    1    3    3    0  503  0.31627077842E+02 -0.80794700356E+02 -0.39736789172E+02  0.95546627738E+02  0.47000000000E+01 0.  1.
         11    1    4    4    0    0 -0.15485162479E+01  0.30073230094E+02  0.18517928366E+02  0.35351248094E+02  0.00000000000E+00 0. -1.
        -12    1    4    4    0    0  0.34268119101E+02  0.11204206385E+02 -0.59418196886E+02  0.69500793870E+02  0.00000000000E+00 0.  1.
</event>
<event>
12    1  0.1066489E+000  0.2170918E+03  0.7818608E-02  0.1136495E+00
         21   -1    0    0  501  502  0.00000000000E+00  0.00000000000E+00  0.77722790285E+03  0.77722790285E+03  0.00000000000E+00 0. -1.
         21   -1    0    0  502  503 -0.00000000000E+00 -0.00000000000E+00 -0.60016930293E+02  0.60016930293E+02  0.00000000000E+00 0. -1.
         -6    2    1    2    0  503  0.13424513362E+03 -0.57452315220E+01  0.35545691918E+03  0.41535047734E+03  0.16766524401E+03 0.  0.
        -24    2    3    3    0    0  0.47973622240E+02 -0.68130143633E+01  0.29602889919E+03  0.31048058940E+03  0.80107438149E+02 0.  0.
          6    2    1    2  501    0 -0.13424513362E+03  0.57452315220E+01  0.36175405338E+03  0.42189435581E+03  0.17051125692E+03 0.  0.
         24    2    5    5    0    0 -0.84747633468E+02 -0.63845434646E+02  0.22608740354E+03  0.26151856830E+03  0.77576069911E+02 0.  0.
          5    1    5    5  501    0 -0.49497500150E+02  0.69590666168E+02  0.13566664984E+03  0.16037578751E+03  0.47000000000E+01 0. -1.
        -13    1    6    6    0    0 -0.77337236414E+02 -0.28463004842E+02  0.20177092034E+03  0.21795113002E+03  0.00000000000E+00 0.  1.
         14    1    6    6    0    0 -0.74103970546E+01 -0.35382429804E+02  0.24316483199E+02  0.43567438282E+02  0.00000000000E+00 0. -1.
         -5    1    3    3    0  503  0.86271511378E+02  0.10677828413E+01  0.59428019991E+02  0.10486988794E+03  0.47000000000E+01 0.  1.
         13    1    4    4    0    0 -0.20841037111E+02  0.11860426842E+01  0.11016443609E+03  0.11212474528E+03  0.00000000000E+00 0. -1.
        -14    1    4    4    0    0  0.68814659352E+02 -0.79990570475E+01  0.18586446309E+03  0.19835584412E+03  0.00000000000E+00 0.  1.
</event>
<event>
12    1  0.1066489E+000  0.2499380E+03  0.7818608E-02  0.1113511E+00
         21   -1    0    0  503  502  0.00000000000E+00  0.00000000000E+00  0.24736311927E+03  0.24736311927E+03  0.00000000000E+00 0.  1.
         21   -1    0    0  501  503 -0.00000000000E+00 -0.00000000000E+00 -0.26339065983E+03  0.26339065983E+03  0.00000000000E+00 0.  1.
          6    2    1    2  501    0  0.43157872938E+02  0.17455470030E+03  0.46282053276E+02  0.25418698798E+03  0.17360026211E+03 0.  0.
         24    2    3    3    0    0 -0.17895578729E+02  0.39421770216E+02 -0.24188415130E+02  0.89941410648E+02  0.75033660565E+02 0.  0.
         -6    2    1    2    0  502 -0.43157872938E+02 -0.17455470030E+03 -0.62309593835E+02  0.25656679113E+03  0.17208163014E+03 0.  0.
        -24    2    5    5    0    0 -0.80882761412E+01 -0.82577526197E+02  0.32589556961E+02  0.11975445251E+03  0.79966128018E+02 0.  0.
          5    1    3    3  501    0  0.61053451667E+02  0.13513293009E+03  0.70470468406E+02  0.16424557733E+03  0.47000000000E+01 0. -1.
        -13    1    4    4    0    0 -0.42135243713E+02  0.81189663149E+01  0.11689988616E+01  0.42926249954E+02  0.00000000000E+00 0.  1.
         14    1    4    4    0    0  0.24239664984E+02  0.31302803901E+02 -0.25357413992E+02  0.47015160693E+02  0.00000000000E+00 0. -1.
         -5    1    5    5    0  502 -0.35069596797E+02 -0.91977174106E+02 -0.94899150796E+02  0.13681233862E+03  0.47000000000E+01 0.  1.
         11    1    6    6    0    0 -0.14639454169E+02 -0.15043149005E+02 -0.23652794602E+02  0.31623798678E+02  0.00000000000E+00 0. -1.
        -12    1    6    6    0    0  0.65511780273E+01 -0.67534377192E+02  0.56242351563E+02  0.88130653836E+02  0.00000000000E+00 0.  1.
</event>
<event>
12    1  0.1066489E+000  0.1950547E+03  0.7818608E-02  0.1154047E+00
         21   -1    0    0  501  502  0.00000000000E+00  0.00000000000E+00  0.27960487298E+03  0.27960487298E+03  0.00000000000E+00 0.  1.
         21   -1    0    0  502  503 -0.00000000000E+00 -0.00000000000E+00 -0.22802051767E+03  0.22802051767E+03  0.00000000000E+00 0.  1.
         -6    2    1    2    0  503  0.89187697515E+02 -0.87222029717E+01  0.18716948224E+03  0.27033080572E+03  0.17325070628E+03 0.  0.
        -24    2    3    3    0    0  0.21433371289E+02 -0.24908905841E+02  0.17976769899E+03  0.20012016217E+03  0.81558633588E+02 0.  0.
          6    2    1    2  501    0 -0.89187697515E+02  0.87222029717E+01 -0.13558512692E+03  0.23729458493E+03  0.17290133366E+03 0.  0.
         24    2    5    5    0    0 -0.25373348221E+02 -0.27658902053E+02 -0.64792011083E+01  0.88680029587E+02  0.80083368672E+02 0.  0.
          5    1    5    5  501    0 -0.63814349294E+02  0.36381105024E+02 -0.12910592582E+03  0.14861455534E+03  0.47000000000E+01 0. -1.
        -13    1    6    6    0    0 -0.37652919816E+02 -0.19463245901E+02  0.28253853391E+02  0.50939577375E+02  0.00000000000E+00 0.  1.
         14    1    6    6    0    0  0.12279571595E+02 -0.81956561520E+01 -0.34733054499E+02  0.37740452212E+02  0.00000000000E+00 0. -1.
         -5    1    3    3    0  503  0.67754326227E+02  0.16186702870E+02  0.74017832511E+01  0.70210643549E+02  0.47000000000E+01 0.  1.
         13    1    4    4    0    0  0.31463270728E+02 -0.51012777273E+02  0.12011698276E+03  0.13423982418E+03  0.00000000000E+00 0. -1.
        -14    1    4    4    0    0 -0.10029899439E+02  0.26103871432E+02  0.59650716231E+02  0.65880337988E+02  0.00000000000E+00 0.  1.
</event>
<event>
12    1  0.1129660E+000  0.2072131E+03  0.7818608E-02  0.1144384E+00
         21   -1    0    0  503  502  0.00000000000E+00  0.00000000000E+00  0.39476625300E+03  0.39476625300E+03  0.00000000000E+00 0.  1.
         21   -1    0    0  501  503 -0.00000000000E+00 -0.00000000000E+00 -0.24412545283E+03  0.24412545283E+03  0.00000000000E+00 0.  1.
          6    2    1    2  501    0  0.10995340827E+03 -0.35580753623E+02  0.31475583235E+03  0.37684016455E+03  0.17199283007E+03 0.  0.
         24    2    3    3    0    0  0.75302962129E+02 -0.29057533135E+02  0.32175275974E+03  0.34058753959E+03  0.77202055600E+02 0.  0.
         -6    2    1    2    0  502 -0.10995340827E+03  0.35580753623E+02 -0.16411503219E+03  0.26205154128E+03  0.16846817052E+03 0.  0.
        -24    2    5    5    0    0 -0.27194303424E+02 -0.28662763711E+00 -0.14300528891E+03  0.16929783658E+03  0.86438605499E+02 0.  0.
          5    1    3    3  501    0  0.34650446141E+02 -0.65232204878E+01 -0.69969273844E+01  0.36252624955E+02  0.47000000000E+01 0. -1.
        -11    1    4    4    0    0  0.32416524380E+01 -0.83789337803E+01  0.18005869068E+03  0.18028268616E+03  0.00000000000E+00 0.  1.
         12    1    4    4    0    0  0.72061309691E+02 -0.20678599355E+02  0.14169406906E+03  0.16030485343E+03  0.00000000000E+00 0. -1.
         -5    1    5    5    0  502 -0.82759104847E+02  0.35867381260E+02 -0.21109743273E+02  0.92753704695E+02  0.47000000000E+01 0.  1.
         13    1    6    6    0    0 -0.82609421074E+01  0.78850289394E+01  0.98358336971E+01  0.15071843630E+02  0.00000000000E+00 0. -1.
        -14    1    6    6    0    0 -0.18933361316E+02 -0.81716565766E+01 -0.15284112261E+03  0.15422599295E+03  0.00000000000E+00 0.  1.
</event>
<event>
12    1  0.1066489E+000  0.2605932E+03  0.7818608E-02  0.1106874E+00
         21   -1    0    0  503  502  0.00000000000E+00  0.00000000000E+00  0.10844548554E+03  0.10844548554E+03  0.00000000000E+00 0.  1.
         21   -1    0    0  501  503 -0.00000000000E+00 -0.00000000000E+00 -0.62567958208E+03  0.62567958208E+03  0.00000000000E+00 0.  1.
          6    2    1    2  501    0 -0.11452941869E+03 -0.15864239343E+03 -0.24469820405E+03  0.35705127669E+03  0.17124253672E+03 0.  0.
         24    2    3    3    0    0 -0.11895654753E+02 -0.61562901121E+02 -0.46514130529E+02  0.11362339348E+03  0.82554308253E+02 0.  0.
         -6    2    1    2    0  502  0.11452941869E+03  0.15864239343E+03 -0.27253589250E+03  0.37707379093E+03  0.17211750162E+03 0.  0.
        -24    2    5    5    0    0  0.45279855012E+02  0.13044974860E+03 -0.25429372323E+03  0.29996870658E+03  0.79047612702E+02 0.  0.
          5    1    3    3  501    0 -0.10263376394E+03 -0.97079492309E+02 -0.19818407352E+03  0.24342788321E+03  0.47000000000E+01 0. -1.
        -13    1    4    4    0    0  0.19347793964E+02  0.97921431992E+01 -0.24413660825E+02  0.32653484264E+02  0.00000000000E+00 0.  1.
         14    1    4    4    0    0 -0.31243448717E+02 -0.71355044320E+02 -0.22100469704E+02  0.80969909218E+02  0.00000000000E+00 0. -1.
         -5    1    5    5    0  502  0.69249563679E+02  0.28192644834E+02 -0.18242169266E+02  0.77105084346E+02  0.47000000000E+01 0.  1.
         11    1    6    6    0    0  0.43495956393E+02  0.62178202687E+02 -0.19600694069E+03  0.21018265369E+03  0.00000000000E+00 0. -1.
        -12    1    6    6    0    0  0.17838986190E+01  0.68271545909E+02 -0.58286782539E+02  0.89786052892E+02  0.00000000000E+00 0.  1.
</event>
<event>
12    1  0.1066489E+000  0.4037659E+03  0.7818608E-02  0.1042494E+00
         21   -1    0    0  501  502  0.00000000000E+00  0.00000000000E+00  0.91580021891E+03  0.91580021891E+03  0.00000000000E+00 0.  1.
         21   -1    0    0  502  503 -0.00000000000E+00 -0.00000000000E+00 -0.17824526093E+03  0.17824526093E+03  0.00000000000E+00 0. -1.
         -6    2    1    2    0  503 -0.36519264146E+03  0.13841937057E+02  0.34694694040E+03  0.53235237665E+03  0.17166714559E+03 0.  0.
        -24    2    3    3    0    0 -0.25169011065E+03  0.47837183256E+02  0.16530746777E+03  0.31543421401E+03  0.80844768344E+02 0.  0.
          6    2    1    2  501    0  0.36519264146E+03 -0.13841937057E+02  0.39060801758E+03  0.56169310320E+03  0.17136876665E+03 0.  0.
         24    2    5    5    0    0  0.37187794442E+03 -0.35622299497E+02  0.37452305217E+03  0.53341071334E+03  0.68536988086E+02 0.  0.
          5    1    5    5  501    0 -0.66853029591E+01  0.21780362440E+02  0.16084965416E+02  0.28282389858E+02  0.47000000000E+01 0. -1.
        -13    1    6    6    0    0  0.13467614212E+03  0.19954221585E+02  0.13042507779E+03  0.18853788779E+03  0.00000000000E+00 0.  1.
         14    1    6    6    0    0  0.23720180230E+03 -0.55576521082E+02  0.24409797437E+03  0.34487282555E+03  0.00000000000E+00 0. -1.
         -5    1    3    3    0  503 -0.11350253081E+03 -0.33995246199E+02  0.18163947263E+03  0.21691816264E+03  0.47000000000E+01 0.  1.
         11    1    4    4    0    0 -0.11538521953E+03  0.53517289383E+02  0.11023611624E+03  0.16831473635E+03  0.00000000000E+00 0. -1.
        -12    1    4    4    0    0 -0.13630489112E+03 -0.56801061275E+01  0.55071351529E+02  0.14711947766E+03  0.00000000000E+00 0.  1.
</event>
<event>
12    1  0.1066489E+000  0.1839631E+03  0.7818608E-02  0.1164066E+00
         21   -1    0    0  501  502  0.00000000000E+00  0.00000000000E+00  0.51507860830E+03  0.51507860830E+03  0.00000000000E+00 0.  1.
         21   -1    0    0  502  503 -0.00000000000E+00 -0.00000000000E+00 -0.89905313958E+02  0.89905313958E+02  0.00000000000E+00 0.  1.
         -6    2    1    2    0  503 -0.33776060432E+02  0.56045087611E+02  0.36983045399E+03  0.41305807412E+03  0.17193177074E+03 0.  0.
        -24    2    3    3    0    0  0.23105871730E+02  0.82142913408E+02  0.19555513571E+03  0.22782679361E+03  0.79886777692E+02 0.  0.
          6    2    1    2  501    0  0.33776060432E+02 -0.56045087611E+02  0.55342840353E+02  0.19192584814E+03  0.17172893496E+03 0.  0.
         24    2    5    5    0    0 -0.45174370724E+02 -0.28680528402E+02  0.12394713948E+02  0.97858737833E+02  0.80990167037E+02 0.  0.
          5    1    5    5  501    0  0.78950431157E+02 -0.27364559209E+02  0.42948126405E+02  0.94067110311E+02  0.47000000000E+01 0. -1.
        -11    1    6    6    0    0 -0.16706130476E+02  0.75493948374E+01 -0.30057429189E+02  0.35207061896E+02  0.00000000000E+00 0.  1.
         12    1    6    6    0    0 -0.28468240249E+02 -0.36229923240E+02  0.42452143137E+02  0.62651675937E+02  0.00000000000E+00 0. -1.
         -5    1    3    3    0  503 -0.56881932163E+02 -0.26097825797E+02  0.17427531828E+03  0.18523128051E+03  0.47000000000E+01 0.  1.
         11    1    4    4    0    0 -0.20930788047E+02  0.53781809283E+01  0.76425776871E+02  0.79422428122E+02  0.00000000000E+00 0. -1.
        -12    1    4    4    0    0  0.44036659778E+02  0.76764732480E+02  0.11912935884E+03  0.14840436549E+03  0.00000000000E+00 0.  1.
</event>
<event>
12    1  0.1066489E+000  0.2113617E+03  0.7818608E-02  0.1141040E+00
         21   -1    0    0  503  502  0.00000000000E+00  0.00000000000E+00  0.20813415727E+03  0.20813415727E+03  0.00000000000E+00 0.  1.
         21   -1    0    0  501  503 -0.00000000000E+00 -0.00000000000E+00 -0.43829531721E+03  0.43829531721E+03  0.00000000000E+00 0.  1.
          6    2    1    2  501    0 -0.26628683223E+02 -0.11589996002E+03 -0.34704009008E+03  0.40490422953E+03  0.17137305351E+03 0.  0.
         24    2    3    3    0    0  0.31499151871E+02 -0.11157697527E+03 -0.29384257118E+03  0.32584982152E+03  0.79956435432E+02 0.  0.
         -6    2    1    2    0  502  0.26628683223E+02  0.11589996002E+03  0.11687893013E+03  0.24152524495E+03  0.17473371779E+03 0.  0.
        -24    2    5    5    0    0  0.31033790177E+02  0.15045511608E+03  0.81550393103E+02  0.19168891978E+03  0.80587451045E+02 0.  0.
          5    1    3    3  501    0 -0.58127835095E+02 -0.43229847553E+01 -0.53197518901E+02  0.79054408019E+02  0.47000000000E+01 0. -1.
        -11    1    4    4    0    0  0.12605901253E+02 -0.68382965265E+02 -0.25635145415E+03  0.26561477130E+03  0.00000000000E+00 0.  1.
         12    1    4    4    0    0  0.18893250618E+02 -0.43194010004E+02 -0.37491117026E+02  0.60235050220E+02  0.00000000000E+00 0. -1.
         -5    1    5    5    0  502 -0.44051069537E+01 -0.34555156053E+02  0.35328537029E+02  0.49836325162E+02  0.47000000000E+01 0.  1.
         11    1    6    6    0    0  0.37718625339E+02  0.87639500214E+02  0.95243902813E+01  0.95885821191E+02  0.00000000000E+00 0. -1.
        -12    1    6    6    0    0 -0.66848351619E+01  0.62815615864E+02  0.72026002822E+02  0.95803098593E+02  0.00000000000E+00 0.  1.
</event>
<event>
12    1  0.1066489E+000  0.2658877E+03  0.7818608E-02  0.1103764E+00
         21   -1    0    0  501  502  0.00000000000E+00  0.00000000000E+00  0.33695439773E+04  0.33695439773E+04  0.00000000000E+00 0.  1.
         21   -1    0    0  502  503 -0.00000000000E+00 -0.00000000000E+00 -0.21430733008E+02  0.21430733008E+02  0.00000000000E+00 0.  1.
         -6    2    1    2    0  503 -0.20041809138E+03 -0.26657750740E+02  0.19327928115E+04  0.19508954858E+04  0.17154328048E+03 0.  0.
        -24    2    3    3    0    0 -0.21679410994E+03 -0.38297713404E+02  0.15486748809E+04  0.15662237590E+04  0.78718331408E+02 0.  0.
          6    2    1    2  501    0  0.20041809138E+03  0.26657750740E+02  0.14153204328E+04  0.14400792246E+04  0.17267946756E+03 0.  0.
         24    2    5    5    0    0  0.16973084695E+03  0.40307364845E+02  0.75763204145E+03  0.78151705663E+03  0.79557246669E+02 0.  0.
          5    1    5    5  501    0  0.30687244432E+02 -0.13649614105E+02  0.65768839134E+03  0.65856216794E+03  0.47000000000E+01 0. -1.
        -11    1    6    6    0    0  0.19310961584E+02  0.22703868245E+02  0.25013896984E+03  0.25190848160E+03  0.00000000000E+00 0.  1.
         12    1    6    6    0    0  0.15041988536E+03  0.17603496600E+02  0.50749307161E+03  0.52960857502E+03  0.00000000000E+00 0. -1.
         -5    1    3    3    0  503  0.16376018556E+02  0.11639962664E+02  0.38411793067E+03  0.38467172677E+03  0.47000000000E+01 0.  1.
         13    1    4    4    0    0 -0.13487142791E+03 -0.59998099697E+02  0.89772579375E+03  0.90978111367E+03  0.00000000000E+00 0. -1.
        -14    1    4    4    0    0 -0.81922682030E+02  0.21700386293E+02  0.65094908711E+03  0.65644264533E+03  0.00000000000E+00 0.  1.
</event>
<event>
12    1  0.1066489E+000  0.1789993E+03  0.7818608E-02  0.1169864E+00
         21   -1    0    0  501  502  0.00000000000E+00  0.00000000000E+00  0.67253748514E+03  0.67253748514E+03  0.00000000000E+00 0.  1.
         21   -1    0    0  502  503 -0.00000000000E+00 -0.00000000000E+00 -0.61146129636E+02  0.61146129636E+02  0.00000000000E+00 0.  1.
         -6    2    1    2    0  503 -0.42121279983E+02  0.22214385389E+02  0.48827312242E+03  0.52004941499E+03  0.17254874910E+03 0.  0.
        -24    2    3    3    0    0 -0.32865760304E+02  0.13233165084E+02  0.49639697015E+03  0.50409905874E+03  0.80315840228E+02 0.  0.
          6    2    1    2  501    0  0.42121279983E+02 -0.22214385389E+02  0.12311823309E+03  0.21363419978E+03  0.16796961288E+03 0.  0.
         24    2    5    5    0    0 -0.36513069873E+02 -0.29466280688E+02  0.44844033429E+02  0.10234677329E+03  0.79135382098E+02 0.  0.
          5    1    5    5  501    0  0.78634349855E+02  0.72518952986E+01  0.78274199662E+02  0.11128742649E+03  0.47000000000E+01 0. -1.
        -13    1    6    6    0    0 -0.43158864034E+02  0.51789002593E+01  0.50486777322E+02  0.66621492305E+02  0.00000000000E+00 0.  1.
         14    1    6    6    0    0  0.66457941618E+01 -0.34645180947E+02 -0.56427438927E+01  0.35725280986E+02  0.00000000000E+00 0. -1.
         -5    1    3    3    0  503 -0.92555196786E+01  0.89812203055E+01 -0.81238477322E+01  0.15950356255E+02  0.47000000000E+01 0.  1.
         11    1    4    4    0    0  0.11940300139E+02  0.31288619089E+02  0.11898760714E+03  0.12361067552E+03  0.00000000000E+00 0. -1.
        -12    1    4    4    0    0 -0.44806060443E+02 -0.18055454005E+02  0.37740936301E+03  0.38048838321E+03  0.00000000000E+00 0.  1.
</event>
<event>
12    1  0.1066489E+000  0.2079758E+03  0.7818608E-02  0.1143194E+00
         21   -1    0    0  501  502  0.00000000000E+00  0.00000000000E+00  0.27556695616E+02  0.27556695616E+02  0.00000000000E+00 0. -1.
         21   -1    0    0  502  503 -0.00000000000E+00 -0.00000000000E+00 -0.15711581123E+04  0.15711581123E+04  0.00000000000E+00 0. -1.
         -6    2    1    2    0  503  0.28677872539E+02 -0.11393656888E+03 -0.74252798874E+03  0.77108411270E+03  0.17151948196E+03 0.  0.
        -24    2    3    3    0    0 -0.36631055588E+02 -0.47448250336E+02 -0.52826776862E+03  0.53738455232E+03  0.78244175599E+02 0.  0.
          6    2    1    2  501    0 -0.28677872539E+02  0.11393656888E+03 -0.80107342793E+03  0.82763069521E+03  0.17160993155E+03 0.  0.
         24    2    5    5    0    0 -0.11901657897E+02  0.14894516066E+03 -0.64916288399E+03  0.67076786902E+03  0.78681470652E+02 0.  0.
          5    1    5    5  501    0 -0.16776214643E+02 -0.35008591782E+02 -0.15191054395E+03  0.15686282618E+03  0.47000000000E+01 0. -1.
        -13    1    6    6    0    0  0.17067713295E+02  0.13277844095E+03 -0.47657150353E+03  0.49501698880E+03  0.00000000000E+00 0.  1.
         14    1    6    6    0    0 -0.28969371192E+02  0.16166719709E+02 -0.17259138045E+03  0.17575088022E+03  0.00000000000E+00 0. -1.
         -5    1    3    3    0  503  0.65308928127E+02 -0.66488318540E+02 -0.21426022012E+03  0.23369956038E+03  0.47000000000E+01 0.  1.
         11    1    4    4    0    0 -0.24322621929E+01 -0.47104831486E+02 -0.44314554774E+03  0.44564869295E+03  0.00000000000E+00 0. -1.
        -12    1    4    4    0    0 -0.34198793395E+02 -0.34341884984E+00 -0.85122220883E+02  0.91735859370E+02  0.00000000000E+00 0.  1.
</event>
<event>
12    1  0.1066489E+000  0.2189696E+03  0.7818608E-02  0.1135104E+00
         21   -1    0    0  501  502  0.00000000000E+00  0.00000000000E+00  0.11500072744E+03  0.11500072744E+03  0.00000000000E+00 0.  1.
         21   -1    0    0  502  503 -0.00000000000E+00 -0.00000000000E+00 -0.87033310544E+03  0.87033310544E+03  0.00000000000E+00 0.  1.
         -6    2    1    2    0  503  0.11738527832E+03  0.61998143601E+02 -0.19324529197E+02  0.21744369913E+03  0.17112934139E+03 0.  0.
        -24    2    3    3    0    0  0.11813122356E+03  0.43967574703E+02  0.40902186889E+02  0.15439605699E+03  0.79227646163E+02 0.  0.
          6    2    1    2  501    0 -0.11738527832E+03 -0.61998143601E+02 -0.73600784880E+03  0.76789013375E+03  0.17413968713E+03 0.  0.
         24    2    5    5    0    0 -0.24450400301E+02 -0.18475370090E+02 -0.54336338267E+03  0.54956674129E+03  0.76424316306E+02 0.  0.
          5    1    5    5  501    0 -0.92934878020E+02 -0.43522773511E+02 -0.19264446613E+03  0.21832339246E+03  0.47000000000E+01 0. -1.
        -13    1    6    6    0    0  0.10415831575E+02  0.24411319555E+02 -0.20660313359E+03  0.20830088065E+03  0.00000000000E+00 0.  1.
         14    1    6    6    0    0 -0.34866231876E+02 -0.42886689645E+02 -0.33676024908E+03  0.34126586063E+03  0.00000000000E+00 0. -1.
         -5    1    3    3    0  503 -0.74594523785E+00  0.18030568898E+02 -0.60226716086E+02  0.63047642141E+02  0.47000000000E+01 0.  1.
         13    1    4    4    0    0  0.56619084867E+02 -0.17563860775E+02  0.30805851321E+02  0.66807263469E+02  0.00000000000E+00 0. -1.
        -14    1    4    4    0    0  0.61512138692E+02  0.61531435478E+02  0.10096335568E+02  0.87588793520E+02  0.00000000000E+00 0.  1.
</event>
<event>
12    1  0.1066489E+000  0.2523217E+03  0.7818608E-02  0.1113258E+00
         21   -1    0    0  501  502  0.00000000000E+00  0.00000000000E+00  0.11491251854E+04  0.11491251854E+04  0.00000000000E+00 0.  1.
         21   -1    0    0  502  503 -0.00000000000E+00 -0.00000000000E+00 -0.54707041566E+02  0.54707041566E+02  0.00000000000E+00 0.  1.
         -6    2    1    2    0  503 -0.12094191333E+03  0.12427081368E+03  0.44726281789E+03  0.50922710230E+03  0.17087431615E+03 0.  0.
        -24    2    3    3    0    0 -0.60473642415E+02  0.61637779144E+02  0.10809573559E+03  0.15903328665E+03  0.78425894742E+02 0.  0.
          6    2    1    2  501    0  0.12094191333E+03 -0.12427081368E+03  0.64715532595E+03  0.69460512467E+03  0.18329233965E+03 0.  0.
         24    2    5    5    0    0  0.38758715076E+02  0.35578482443E+01  0.33920483088E+03  0.35116685903E+03  0.82117898873E+02 0.  0.
          5    1    5    5  501    0  0.82183198259E+02 -0.12782866193E+03  0.30795049508E+03  0.34343826564E+03  0.47000000000E+01 0. -1.
        -11    1    6    6    0    0  0.34223810164E+02  0.38277219579E+02  0.14480429390E+03  0.15363820570E+03  0.00000000000E+00 0.  1.
         12    1    6    6    0    0  0.45349049119E+01 -0.34719371335E+02  0.19440053698E+03  0.19752865333E+03  0.00000000000E+00 0. -1.
         -5    1    3    3    0  503 -0.60468270920E+02  0.62633034541E+02  0.33916708230E+03  0.35019381565E+03  0.47000000000E+01 0.  1.
         11    1    4    4    0    0 -0.42909245050E+02  0.74315249850E+02  0.10724958385E+03  0.13735513426E+03  0.00000000000E+00 0. -1.
        -12    1    4    4    0    0 -0.17564397365E+02 -0.12677470707E+02  0.84615173524E+00  0.21678152391E+02  0.00000000000E+00 0.  1.
</event>
<event>
12    1  0.1066489E+000  0.1777061E+03  0.7818608E-02  0.1170249E+00
         21   -1    0    0  501  502  0.00000000000E+00  0.00000000000E+00  0.28000140228E+03  0.28000140228E+03  0.00000000000E+00 0.  1.
         21   -1    0    0  502  503 -0.00000000000E+00 -0.00000000000E+00 -0.11725764244E+03  0.11725764244E+03  0.00000000000E+00 0.  1.
         -6    2    1    2    0  503  0.31340757032E+02  0.39474093254E+02  0.40514769622E+02  0.18226601970E+03  0.17040835746E+03 0.  0.
        -24    2    3    3    0    0  0.80214897653E+02  0.55040595377E+02  0.34441702098E+02  0.13040110132E+03  0.79713985204E+02 0.  0.
          6    2    1    2  501    0 -0.31340757032E+02 -0.39474093254E+02  0.12222899023E+03  0.21499302502E+03  0.16953355911E+03 0.  0.
         24    2    5    5    0    0 -0.55538349909E+02 -0.81754296132E+02  0.91148429088E+02  0.15701690634E+03  0.81104867322E+02 0.  0.
          5    1    5    5  501    0  0.24197592877E+02  0.42280202878E+02  0.31080561137E+02  0.57976118679E+02  0.47000000000E+01 0. -1.
        -11    1    6    6    0    0 -0.58393476331E+02 -0.60746846411E+02  0.10272435687E+03  0.13286184901E+03  0.00000000000E+00 0.  1.
         12    1    6    6    0    0  0.28551264221E+01 -0.21007449720E+02 -0.11575927781E+02  0.24155057330E+02  0.00000000000E+00 0. -1.
         -5    1    3    3    0  503 -0.48874140621E+02 -0.15566502123E+02  0.60730675241E+01  0.51864918384E+02  0.47000000000E+01 0.  1.
         11    1    4    4    0    0  0.23693008477E+02  0.56507689647E+02  0.40632966673E+02  0.73522211750E+02  0.00000000000E+00 0. -1.
        -12    1    4    4    0    0  0.56521889177E+02 -0.14670942698E+01 -0.61912645756E+01  0.56878889570E+02  0.00000000000E+00 0.  1.
</event>
<event>
12    1  0.1066489E+000  0.1757360E+03  0.7818608E-02  0.1172079E+00
         21   -1    0    0  503  502  0.00000000000E+00  0.00000000000E+00  0.65714927380E+03  0.65714927380E+03  0.00000000000E+00 0.  1.
         21   -1    0    0  501  503 -0.00000000000E+00 -0.00000000000E+00 -0.47698664462E+02  0.47698664462E+02  0.00000000000E+00 0.  1.
          6    2    1    2  501    0 -0.30111044514E+02  0.24517637326E+02  0.34988502378E+03  0.39138749069E+03  0.17104633424E+03 0.  0.
         24    2    3    3    0    0 -0.51705794528E+02 -0.44092413535E+02  0.19951915445E+03  0.22463720743E+03  0.77693962760E+02 0.  0.
         -6    2    1    2    0  502  0.30111044514E+02 -0.24517637326E+02  0.25956558556E+03  0.31346044758E+03  0.17139244279E+03 0.  0.
        -24    2    5    5    0    0  0.39362206792E+02 -0.58484071785E+02  0.88427283486E+02  0.13867569106E+03  0.80260780278E+02 0.  0.
          5    1    3    3  501    0  0.21594750015E+02  0.68610050861E+02  0.15036586933E+03  0.16675028326E+03  0.47000000000E+01 0. -1.
        -13    1    4    4    0    0 -0.46761893301E+02 -0.16941932134E+02  0.18845048854E+03  0.19490328463E+03  0.00000000000E+00 0.  1.
         14    1    4    4    0    0 -0.49439012276E+01 -0.27150481401E+02  0.11068665906E+02  0.29733922792E+02  0.00000000000E+00 0. -1.
         -5    1    5    5    0  502 -0.92511622782E+01  0.33966434459E+02  0.17113830207E+03  0.17478475652E+03  0.47000000000E+01 0.  1.
         13    1    6    6    0    0  0.63422492810E+02 -0.31993255585E+02  0.59334168824E+02  0.92555521646E+02  0.00000000000E+00 0. -1.
        -14    1    6    6    0    0 -0.24060286018E+02 -0.26490816201E+02  0.29093114662E+02  0.46120169416E+02  0.00000000000E+00 0.  1.
</event>
<event>
12    1  0.1066489E+000  0.3244617E+03  0.7818608E-02  0.1073788E+00
         21   -1    0    0  501  502  0.00000000000E+00  0.00000000000E+00  0.98332704603E+02  0.98332704603E+02  0.00000000000E+00 0.  1.
         21   -1    0    0  502  503 -0.00000000000E+00 -0.00000000000E+00 -0.13434926809E+04  0.13434926809E+04  0.00000000000E+00 0. -1.
         -6    2    1    2    0  503  0.27163941852E+03 -0.25406922813E+02 -0.95165019141E+03  0.10054419339E+04  0.17561864996E+03 0.  0.
        -24    2    3    3    0    0  0.19742933392E+03 -0.71078509411E+02 -0.79304710113E+03  0.82441690600E+03  0.81908692450E+02 0.  0.
          6    2    1    2  501    0 -0.27163941852E+03  0.25406922813E+02 -0.29350978486E+03  0.43638345157E+03  0.17276874016E+03 0.  0.
         24    2    5    5    0    0 -0.27090560178E+03 -0.10567068183E+02 -0.23590686287E+03  0.36830369587E+03  0.80585708633E+02 0.  0.
          5    1    5    5  501    0 -0.73381674164E+00  0.35973990996E+02 -0.57602921989E+02  0.68079755705E+02  0.47000000000E+01 0. -1.
        -13    1    6    6    0    0 -0.68363195505E+02 -0.16868405967E+02 -0.22276652569E+02  0.73853360582E+02  0.00000000000E+00 0.  1.
         14    1    6    6    0    0 -0.20254240628E+03  0.63013377840E+01 -0.21363021030E+03  0.29445033529E+03  0.00000000000E+00 0. -1.
         -5    1    3    3    0  503  0.74210084607E+02  0.45671586598E+02 -0.15860309028E+03  0.18102502790E+03  0.47000000000E+01 0.  1.
         13    1    4    4    0    0  0.11559515617E+03  0.29270634109E+00 -0.36862163865E+03  0.38632141836E+03  0.00000000000E+00 0. -1.
        -14    1    4    4    0    0  0.81834177748E+02 -0.71371215752E+02 -0.42442546248E+03  0.43809548764E+03  0.00000000000E+00 0.  1.
</event>
<event>
12    1  0.1066489E+000  0.2454347E+03  0.7818608E-02  0.1116327E+00
         21   -1    0    0  503  502  0.00000000000E+00  0.00000000000E+00  0.51138509763E+02  0.51138509763E+02  0.00000000000E+00 0. -1.
         21   -1    0    0  501  503 -0.00000000000E+00 -0.00000000000E+00 -0.12186073218E+04  0.12186073218E+04  0.00000000000E+00 0. -1.
          6    2    1    2  501    0  0.68930554826E+02  0.15982160228E+03 -0.70469464167E+03  0.74621226546E+03  0.17304288826E+03 0.  0.
         24    2    3    3    0    0  0.84536359163E+02  0.15123766916E+03 -0.42545733726E+03  0.46636804592E+03  0.80411316558E+02 0.  0.
         -6    2    1    2    0  502 -0.68930554826E+02 -0.15982160228E+03 -0.46277417036E+03  0.52353356610E+03  0.17214266216E+03 0.  0.
        -24    2    5    5    0    0 -0.17548743276E+02 -0.36933546980E+02 -0.17940040716E+03  0.21038129585E+03  0.10199871700E+03 0.  0.
          5    1    3    3  501    0 -0.15605804337E+02  0.85839331224E+01 -0.27923730441E+03  0.27984421954E+03  0.47000000000E+01 0. -1.
        -13    1    4    4    0    0 -0.10123548480E+02  0.46715320809E+01 -0.74521873678E+01  0.13410613050E+02  0.00000000000E+00 0.  1.
         14    1    4    4    0    0  0.94659907642E+02  0.14656613708E+03 -0.41800514989E+03  0.45295743287E+03  0.00000000000E+00 0. -1.
         -5    1    5    5    0  502 -0.51381811550E+02 -0.12288805530E+03 -0.28337376320E+03  0.31315227025E+03  0.47000000000E+01 0.  1.
         13    1    6    6    0    0  0.37221901908E+02 -0.39588956274E+02 -0.77313008657E+02  0.94498977498E+02  0.00000000000E+00 0. -1.
        -14    1    6    6    0    0 -0.54770645185E+02  0.26554092945E+01 -0.10208739850E+03  0.11588231835E+03  0.00000000000E+00 0.  1.
</event>
<event>
12    1  0.1066489E+000  0.1948233E+03  0.7818608E-02  0.1154653E+00
         21   -1    0    0  503  502  0.00000000000E+00  0.00000000000E+00  0.30384447338E+02  0.30384447338E+02  0.00000000000E+00 0. -1.
         21   -1    0    0  501  503 -0.00000000000E+00 -0.00000000000E+00 -0.12495452415E+04  0.12495452415E+04  0.00000000000E+00 0. -1.
          6    2    1    2  501    0 -0.57148764518E+02  0.67696652935E+02 -0.68085948422E+03  0.70818483913E+03  0.17351458444E+03 0.  0.
         24    2    3    3    0    0  0.21802363594E+02  0.32058356686E+02 -0.49767205245E+03  0.50549518979E+03  0.79654465170E+02 0.  0.
         -6    2    1    2    0  502  0.57148764518E+02 -0.67696652935E+02 -0.53830130990E+03  0.57174484967E+03  0.17109954640E+03 0.  0.
        -24    2    5    5    0    0  0.60734936900E+02 -0.31724511116E+02 -0.52070079389E+03  0.53126369623E+03  0.80103813979E+02 0.  0.
          5    1    3    3  501    0 -0.78951128112E+02  0.35638296249E+02 -0.18318743177E+03  0.20268964934E+03  0.47000000000E+01 0. -1.
        -11    1    4    4    0    0 -0.27121807561E+02  0.23718893816E+02 -0.14821503700E+03  0.15253155595E+03  0.00000000000E+00 0.  1.
         12    1    4    4    0    0  0.48924171155E+02  0.83394628703E+01 -0.34945701545E+03  0.35296363383E+03  0.00000000000E+00 0. -1.
         -5    1    5    5    0  502 -0.35861723818E+01 -0.35972141819E+02 -0.17600516011E+02  0.40481153433E+02  0.47000000000E+01 0.  1.
         11    1    6    6    0    0  0.51918007521E+02 -0.51819338891E+02 -0.27601496644E+03  0.28559584221E+03  0.00000000000E+00 0. -1.
        -12    1    6    6    0    0  0.88169293788E+01  0.20094827776E+02 -0.24468582745E+03  0.24566785402E+03  0.00000000000E+00 0.  1.
</event>
<event>
12    1  0.1066489E+000  0.2285335E+03  0.7818608E-02  0.1127721E+00
         21   -1    0    0  501  502  0.00000000000E+00  0.00000000000E+00  0.22497476722E+03  0.22497476722E+03  0.00000000000E+00 0. -1.
         21   -1    0    0  502  503 -0.00000000000E+00 -0.00000000000E+00 -0.31633382388E+03  0.31633382388E+03  0.00000000000E+00 0. -1.
         -6    2    1    2    0  503 -0.82903957936E+02  0.12462927710E+03 -0.18553546904E+03  0.29436537047E+03  0.17269058488E+03 0.  0.
        -24    2    3    3    0    0 -0.38683809169E+02  0.77456415711E+02 -0.19605476843E+03  0.22868853994E+03  0.79781217415E+02 0.  0.
          6    2    1    2  501    0  0.82903957936E+02 -0.12462927710E+03  0.94176412381E+02  0.24694322064E+03  0.17235496691E+03 0.  0.
         24    2    5    5    0    0  0.29269181196E+02 -0.12245857105E+03  0.13702851896E+02  0.15009547839E+03  0.80548729924E+02 0.  0.
          5    1    5    5  501    0  0.53634776741E+02 -0.21707060440E+01  0.80473560485E+02  0.96847742244E+02  0.47000000000E+01 0. -1.
        -11    1    6    6    0    0  0.36846413057E+02 -0.20002664655E+02  0.21400640149E+02  0.47071776547E+02  0.00000000000E+00 0.  1.
         12    1    6    6    0    0 -0.75772318618E+01 -0.10245590640E+03 -0.76977882536E+01  0.10302370185E+03  0.00000000000E+00 0. -1.
         -5    1    3    3    0  503 -0.44220148767E+02  0.47172861385E+02  0.10519299385E+02  0.65676830525E+02  0.47000000000E+01 0.  1.
         11    1    4    4    0    0 -0.16505517189E+02 -0.12198543732E+02 -0.66419304367E+02  0.69518059233E+02  0.00000000000E+00 0. -1.
        -12    1    4    4    0    0 -0.22178291980E+02  0.89654959443E+02 -0.12963546406E+03  0.15917048071E+03  0.00000000000E+00 0.  1.
</event>
<event>
12    1  0.1066489E+000  0.2211445E+03  0.7818608E-02  0.1133038E+00
         21   -1    0    0  501  502  0.00000000000E+00  0.00000000000E+00  0.14004266433E+03  0.14004266433E+03  0.00000000000E+00 0.  1.
         21   -1    0    0  502  503 -0.00000000000E+00 -0.00000000000E+00 -0.52410243749E+03  0.52410243749E+03  0.00000000000E+00 0.  1.
         -6    2    1    2    0  503 -0.85900040119E+02 -0.10947376888E+03 -0.38387206345E+03  0.44300049207E+03  0.17183815617E+03 0.  0.
        -24    2    3    3    0    0 -0.10577252675E+03 -0.11627230436E+03 -0.22911425745E+03  0.28675323826E+03  0.70901343463E+02 0.  0.
          6    2    1    2  501    0  0.85900040119E+02  0.10947376888E+03 -0.18770971140E+00  0.22114460974E+03  0.17187664244E+03 0.  0.
         24    2    5    5    0    0  0.42661331347E+02 -0.68705959452E+01  0.29161802724E+02  0.93515925495E+02  0.77637769816E+02 0.  0.
          5    1    5    5  501    0  0.43238708771E+02  0.11634436482E+03 -0.29349512436E+02  0.12762868425E+03  0.47000000000E+01 0. -1.
        -13    1    6    6    0    0 -0.18846467266E+02  0.13484845501E+02  0.19865272809E+01  0.23258905332E+02  0.00000000000E+00 0.  1.
         14    1    6    6    0    0  0.61507798613E+02 -0.20355441446E+02  0.27175275444E+02  0.70257020163E+02  0.00000000000E+00 0. -1.
         -5    1    3    3    0  503  0.19872486626E+02  0.67985354878E+01 -0.15475780599E+03  0.15624725382E+03  0.47000000000E+01 0.  1.
         11    1    4    4    0    0 -0.22032972684E+02 -0.19926046383E+02 -0.69218883908E+01  0.30502651502E+02  0.00000000000E+00 0. -1.
        -12    1    4    4    0    0 -0.83739554061E+02 -0.96346257981E+02 -0.22219236906E+03  0.25625058675E+03  0.00000000000E+00 0.  1.
</event>
<event>
12    1  0.1066489E+000  0.2094651E+03  0.7818608E-02  0.1143088E+00
         21   -1    0    0  503  502  0.00000000000E+00  0.00000000000E+00  0.40188707822E+03  0.40188707822E+03  0.00000000000E+00 0. -1.
         21   -1    0    0  501  503 -0.00000000000E+00 -0.00000000000E+00 -0.10821107470E+03  0.10821107470E+03  0.00000000000E+00 0. -1.
          6    2    1    2  501    0 -0.89248458076E+02 -0.67852452637E+02  0.11531950823E+03  0.23911128237E+03  0.17693607258E+03 0.  0.
         24    2    3    3    0    0 -0.91587220402E+02 -0.10936495459E+03  0.11306779455E+03  0.19720760899E+03  0.75878868248E+02 0.  0.
         -6    2    1    2    0  502  0.89248458076E+02  0.67852452637E+02  0.17835649530E+03  0.27098687056E+03  0.17045117190E+03 0.  0.
        -24    2    5    5    0    0 -0.45490324303E+00  0.78485631408E+02  0.79190170481E+02  0.13676389376E+03  0.79202766751E+02 0.  0.
          5    1    3    3  501    0  0.23387623258E+01  0.41512501952E+02  0.22517136747E+01  0.41903673371E+02  0.47000000000E+01 0. -1.
        -11    1    4    4    0    0 -0.55993290872E+02 -0.17393090180E+02  0.20964666141E+02  0.62267852340E+02  0.00000000000E+00 0.  1.
         12    1    4    4    0    0 -0.35593929530E+02 -0.91971864410E+02  0.92103128413E+02  0.13493975665E+03  0.00000000000E+00 0. -1.
         -5    1    5    5    0  502  0.89703361319E+02 -0.10633178771E+02  0.99166324817E+02  0.13422297680E+03  0.47000000000E+01 0.  1.
         11    1    6    6    0    0 -0.19685176033E+02  0.11111943898E+00  0.45006218201E+02  0.49123092123E+02  0.00000000000E+00 0. -1.
        -12    1    6    6    0    0  0.19230272790E+02  0.78374511969E+02  0.34183952280E+02  0.87640801636E+02  0.00000000000E+00 0.  1.
</event>
<event>
12    1  0.1066489E+000  0.1800266E+03  0.7818608E-02  0.1167812E+00
         21   -1    0    0  503  502  0.00000000000E+00  0.00000000000E+00  0.25881281689E+03  0.25881281689E+03  0.00000000000E+00 0. -1.
         21   -1    0    0  501  503 -0.00000000000E+00 -0.00000000000E+00 -0.14262363247E+03  0.14262363247E+03  0.00000000000E+00 0. -1.
          6    2    1    2  501    0 -0.37475415555E+02 -0.36409621659E+02  0.12842122504E+03  0.22113701109E+03  0.17227739061E+03 0.  0.
         24    2    3    3    0    0 -0.48456194029E+02 -0.86957877581E+02  0.81292111100E+02  0.15100180557E+03  0.79268295971E+02 0.  0.
         -6    2    1    2    0  502  0.37475415555E+02  0.36409621659E+02 -0.12232040616E+02  0.18029943827E+03  0.17212843258E+03 0.  0.
        -24    2    5    5    0    0 -0.34086097008E+02  0.56007681305E+01  0.29994875249E+02  0.91555773934E+02  0.79306598632E+02 0.  0.
          5    1    3    3  501    0  0.10980778474E+02  0.50548255923E+02  0.47129113936E+02  0.70135205519E+02  0.47000000000E+01 0. -1.
        -13    1    4    4    0    0  0.81027462045E+01 -0.64999929005E+02  0.51973321055E+02  0.83617410676E+02  0.00000000000E+00 0.  1.
         14    1    4    4    0    0 -0.56558940233E+02 -0.21957948576E+02  0.29318790045E+02  0.67384394898E+02  0.00000000000E+00 0. -1.
         -5    1    5    5    0  502  0.71561512563E+02  0.30808853528E+02 -0.42226915865E+02  0.88743664334E+02  0.47000000000E+01 0.  1.
         13    1    6    6    0    0 -0.55341590498E+02  0.18135396084E+02  0.85465831104E+01  0.58861093371E+02  0.00000000000E+00 0. -1.
        -14    1    6    6    0    0  0.21255493490E+02 -0.12534627954E+02  0.21448292139E+02  0.32694680563E+02  0.00000000000E+00 0.  1.
</event>
<event>
12    1  0.1066489E+000  0.2092869E+03  0.7818608E-02  0.1142181E+00
         21   -1    0    0  501  502  0.00000000000E+00  0.00000000000E+00  0.94711986371E+02  0.94711986371E+02  0.00000000000E+00 0.  1.
         21   -1    0    0  502  503 -0.00000000000E+00 -0.00000000000E+00 -0.47746750705E+03  0.47746750705E+03  0.00000000000E+00 0.  1.
         -6    2    1    2    0  503  0.96816734171E+02  0.66901164944E+02 -0.13964453885E+03  0.25139301968E+03  0.17276749471E+03 0.  0.
        -24    2    3    3    0    0  0.10236725985E+03  0.71913602312E+01 -0.41412213337E+02  0.13620730490E+03  0.79414651939E+02 0.  0.
          6    2    1    2  501    0 -0.96816734171E+02 -0.66901164944E+02 -0.24311098182E+03  0.32078647373E+03  0.17306578622E+03 0.  0.
         24    2    5    5    0    0 -0.34679657337E+02  0.13143087313E+02 -0.18318306480E+03  0.20296650991E+03  0.79145116953E+02 0.  0.
          5    1    5    5  501    0 -0.62137076835E+02 -0.80044252257E+02 -0.59927917022E+02  0.11781996382E+03  0.47000000000E+01 0. -1.
        -13    1    6    6    0    0  0.61189127543E+01  0.17192674450E+02 -0.33940424104E+01  0.18562022302E+02  0.00000000000E+00 0.  1.
         14    1    6    6    0    0 -0.40798570091E+02 -0.40495871371E+01 -0.17978902239E+03  0.18440448761E+03  0.00000000000E+00 0. -1.
         -5    1    3    3    0  503 -0.55505256827E+01  0.59709804713E+02 -0.98232325515E+02  0.11518571478E+03  0.47000000000E+01 0.  1.
         11    1    4    4    0    0  0.66506500060E+02  0.42903819677E+02 -0.24693054053E+02  0.82907172257E+02  0.00000000000E+00 0. -1.
        -12    1    4    4    0    0  0.35860759793E+02 -0.35712459445E+02 -0.16719159284E+02  0.53300132643E+02  0.00000000000E+00 0.  1.
</event>
<event>
12    1  0.1066489E+000  0.1919617E+03  0.7818608E-02  0.1156738E+00
         21   -1    0    0  503  502  0.00000000000E+00  0.00000000000E+00  0.41920015119E+02  0.41920015119E+02  0.00000000000E+00 0. -1.
         21   -1    0    0  501  503 -0.00000000000E+00 -0.00000000000E+00 -0.88225706900E+03  0.88225706900E+03  0.00000000000E+00 0. -1.
          6    2    1    2  501    0 -0.71670267988E+01  0.84307636497E+02 -0.45084837038E+03  0.48995279031E+03  0.17213465606E+03 0.  0.
         24    2    3    3    0    0 -0.35288270415E+02 -0.19320647718E+01 -0.30255066609E+03  0.31604939899E+03  0.84269342853E+02 0.  0.
         -6    2    1    2    0  502  0.71670267988E+01 -0.84307636497E+02 -0.38948868351E+03  0.43422429381E+03  0.17230832513E+03 0.  0.
        -24    2    5    5    0    0  0.15132149470E+02  0.16904475526E+02 -0.12757140819E+03  0.15327931004E+03  0.81886137146E+02 0.  0.
          5    1    3    3  501    0  0.28121243616E+02  0.86239701269E+02 -0.14829770428E+03  0.17390339132E+03  0.47000000000E+01 0. -1.
        -11    1    4    4    0    0 -0.60210685645E+02  0.12318325350E+02 -0.18080879387E+03  0.19096828990E+03  0.00000000000E+00 0.  1.
         12    1    4    4    0    0  0.24922415230E+02 -0.14250390121E+02 -0.12174187222E+03  0.12508110909E+03  0.00000000000E+00 0. -1.
         -5    1    5    5    0  502 -0.79651226712E+01 -0.10121211202E+03 -0.26191727532E+03  0.28094498377E+03  0.47000000000E+01 0.  1.
         13    1    6    6    0    0  0.35378763453E+02 -0.10993463599E+02 -0.10677903292E+03  0.11302333837E+03  0.00000000000E+00 0. -1.
        -14    1    6    6    0    0 -0.20246613983E+02  0.27897939125E+02 -0.20792375272E+02  0.40255971665E+02  0.00000000000E+00 0.  1.
</event>
<event>
12    1  0.1066489E+000  0.1780061E+03  0.7818608E-02  0.1169851E+00
         21   -1    0    0  501  502  0.00000000000E+00  0.00000000000E+00  0.99487382872E+03  0.99487382872E+03  0.00000000000E+00 0. -1.
         21   -1    0    0  502  503 -0.00000000000E+00 -0.00000000000E+00 -0.60593908081E+02  0.60593908081E+02  0.00000000000E+00 0. -1.
         -6    2    1    2    0  503  0.10601513994E+02 -0.44459213195E+02  0.83080515756E+03  0.84957168881E+03  0.17159787548E+03 0.  0.
        -24    2    3    3    0    0 -0.44654956247E+02 -0.15043639410E+02  0.27442293824E+03  0.28965935866E+03  0.79838705036E+02 0.  0.
          6    2    1    2  501    0 -0.10601513994E+02  0.44459213195E+02  0.10347476308E+03  0.20589604799E+03  0.17203819996E+03 0.  0.
         24    2    5    5    0    0  0.51197953346E+02  0.53681928341E+02  0.90533520473E+02  0.14191325031E+03  0.80250061856E+02 0.  0.
          5    1    5    5  501    0 -0.61799467340E+02 -0.92227151459E+01  0.12941242607E+02  0.63982797676E+02  0.47000000000E+01 0. -1.
        -13    1    6    6    0    0  0.84389140519E+00  0.52456327909E+02  0.70098701696E+02  0.87556875629E+02  0.00000000000E+00 0.  1.
         14    1    6    6    0    0  0.50354061940E+02  0.12256004324E+01  0.20434818776E+02  0.54356374684E+02  0.00000000000E+00 0. -1.
         -5    1    3    3    0  503  0.55256470241E+02 -0.29415573786E+02  0.55638221932E+03  0.55991233015E+03  0.47000000000E+01 0.  1.
         11    1    4    4    0    0 -0.32707771222E+02 -0.29560058438E+02  0.26497658410E+03  0.26861903409E+03  0.00000000000E+00 0. -1.
        -12    1    4    4    0    0 -0.11947185025E+02  0.14516419028E+02  0.94463541379E+01  0.21040324568E+02  0.00000000000E+00 0.  1.
</event>
<event>
12    1  0.1066489E+000  0.3316983E+03  0.7818608E-02  0.1070995E+00
         21   -1    0    0  503  502  0.00000000000E+00  0.00000000000E+00  0.11704725657E+04  0.11704725657E+04  0.00000000000E+00 0. -1.
         21   -1    0    0  501  503 -0.00000000000E+00 -0.00000000000E+00 -0.11260359823E+03  0.11260359823E+03  0.00000000000E+00 0. -1.
          6    2    1    2  501    0 -0.58633594405E+01 -0.27633040672E+03  0.26117354515E+03  0.42217932754E+03  0.18338727125E+03 0.  0.
         24    2    3    3    0    0 -0.63014323316E+02 -0.11228592655E+03  0.16415042532E+03  0.22315068657E+03  0.79195533588E+02 0.  0.
         -6    2    1    2    0  502  0.58633594405E+01  0.27633040672E+03  0.79669542230E+03  0.86089683637E+03  0.17328270054E+03 0.  0.
        -24    2    5    5    0    0  0.15306296718E+02  0.77592369362E+02  0.17588314275E+03  0.20896436058E+03  0.80475869593E+02 0.  0.
          5    1    3    3  501    0  0.57150963875E+02 -0.16404448017E+03  0.97023119834E+02  0.19902864098E+03  0.47000000000E+01 0. -1.
        -11    1    4    4    0    0 -0.55325380221E+02 -0.31045464273E+02  0.41412276739E+02  0.75760776218E+02  0.00000000000E+00 0.  1.
         12    1    4    4    0    0 -0.76889430949E+01 -0.81240462273E+02  0.12273814858E+03  0.14738991035E+03  0.00000000000E+00 0. -1.
         -5    1    5    5    0  502 -0.94429372771E+01  0.19873803736E+03  0.62081227955E+03  0.65193247579E+03  0.47000000000E+01 0.  1.
         11    1    6    6    0    0 -0.13336303415E+02  0.63744621230E+01 -0.22912023352E+01  0.14957953211E+02  0.00000000000E+00 0. -1.
        -12    1    6    6    0    0  0.28642600132E+02  0.71217907239E+02  0.17817434509E+03  0.19400640737E+03  0.00000000000E+00 0.  1.
</event>
<event>
12    1  0.1066489E+000  0.2236321E+03  0.7818608E-02  0.1131231E+00
         21   -1    0    0  501  502  0.00000000000E+00  0.00000000000E+00  0.99669830260E+02  0.99669830260E+02  0.00000000000E+00 0.  1.
         21   -1    0    0  502  503 -0.00000000000E+00 -0.00000000000E+00 -0.81658286810E+03  0.81658286810E+03  0.00000000000E+00 0.  1.
         -6    2    1    2    0  503 -0.11573423112E+03  0.83596595301E+02 -0.64298740413E+03  0.68071855953E+03  0.17193647789E+03 0.  0.
        -24    2    3    3    0    0 -0.11663571058E+03  0.14225326068E+01 -0.39558549583E+03  0.41998270954E+03  0.79320106016E+02 0.  0.
          6    2    1    2  501    0  0.11573423112E+03 -0.83596595301E+02 -0.73925633712E+02  0.23553413882E+03  0.17212939387E+03 0.  0.
         24    2    5    5    0    0  0.13210643288E+03 -0.10925652140E+03 -0.47630449102E+02  0.19503713237E+03  0.79885707378E+02 0.  0.
          5    1    5    5  501    0 -0.16372201762E+02  0.25659926103E+02 -0.26295184610E+02  0.40497006455E+02  0.47000000000E+01 0. -1.
        -11    1    6    6    0    0 -0.90531167694E+01  0.68556831274E+00  0.21267936280E+01  0.93248151879E+01  0.00000000000E+00 0.  1.
         12    1    6    6    0    0  0.14115954965E+03 -0.10994208972E+03 -0.49757242730E+02  0.18571231718E+03  0.00000000000E+00 0. -1.
         -5    1    3    3    0  503  0.90147945787E+00  0.82174062694E+02 -0.24740190829E+03  0.26073584999E+03  0.47000000000E+01 0.  1.
         11    1    4    4    0    0 -0.40589529777E+02  0.27003390412E+02 -0.24028804897E+03  0.24518368522E+03  0.00000000000E+00 0. -1.
        -12    1    4    4    0    0 -0.76046180799E+02 -0.25580857805E+02 -0.15529744686E+03  0.17479902432E+03  0.00000000000E+00 0.  1.
</event>
<event>
12    1  0.1066489E+000  0.2682386E+03  0.7818608E-02  0.1102391E+00
         21   -1    0    0  503  502  0.00000000000E+00  0.00000000000E+00  0.10353421484E+04  0.10353421484E+04  0.00000000000E+00 0. -1.
         21   -1    0    0  501  503 -0.00000000000E+00 -0.00000000000E+00 -0.69318523107E+02  0.69318523107E+02  0.00000000000E+00 0. -1.
          6    2    1    2  501    0 -0.91998128005E+02 -0.18337041924E+03  0.48481014396E+03  0.55406934601E+03  0.17281087433E+03 0.  0.
         24    2    3    3    0    0 -0.83830974082E+02 -0.19600165636E+03  0.48661595430E+03  0.53820739450E+03  0.86184865291E+02 0.  0.
         -6    2    1    2    0  502  0.91998128005E+02  0.18337041924E+03  0.48121348129E+03  0.55059132545E+03  0.17174407379E+03 0.  0.
        -24    2    5    5    0    0  0.53943749337E+02  0.20304346961E+03  0.39042678055E+03  0.45009515798E+03  0.77562888156E+02 0.  0.
          5    1    3    3  501    0 -0.81671539231E+01  0.12631237121E+02 -0.18058103437E+01  0.15861951501E+02  0.47000000000E+01 0. -1.
        -11    1    4    4    0    0 -0.55598450158E+01 -0.11938378346E+03  0.23010845674E+03  0.25929385163E+03  0.00000000000E+00 0.  1.
         12    1    4    4    0    0 -0.78271129066E+02 -0.76617872905E+02  0.25650749756E+03  0.27891354287E+03  0.00000000000E+00 0. -1.
         -5    1    5    5    0  502  0.38054378668E+02 -0.19673050371E+02  0.90786700735E+02  0.10049616747E+03  0.47000000000E+01 0.  1.
         13    1    6    6    0    0  0.72959081282E+02  0.17870273323E+03  0.33368329975E+03  0.38548960938E+03  0.00000000000E+00 0. -1.
        -14    1    6    6    0    0 -0.19015331945E+02  0.24340736382E+02  0.56743480801E+02  0.64605548601E+02  0.00000000000E+00 0.  1.
</event>
<event>
12    1  0.1066489E+000  0.2053410E+03  0.7818608E-02  0.1145566E+00
         21   -1    0    0  501  502  0.00000000000E+00  0.00000000000E+00  0.14860809485E+04  0.14860809485E+04  0.00000000000E+00 0.  1.
         21   -1    0    0  502  503 -0.00000000000E+00 -0.00000000000E+00 -0.33314501521E+02  0.33314501521E+02  0.00000000000E+00 0.  1.
         -6    2    1    2    0  503  0.10287656912E+03  0.39149045747E+02  0.42682856897E+03  0.47310990670E+03  0.17185493962E+03 0.  0.
        -24    2    3    3    0    0  0.48271035696E+02  0.38674317885E+02  0.10609699900E+03  0.14772886911E+03  0.82106332407E+02 0.  0.
          6    2    1    2  501    0 -0.10287656912E+03 -0.39149045747E+02  0.10259378780E+04  0.10462855433E+04  0.17334552884E+03 0.  0.
         24    2    5    5    0    0 -0.35169235701E+02  0.16659760529E+02  0.77470727887E+03  0.78013180992E+03  0.83185636749E+02 0.  0.
          5    1    5    5  501    0 -0.67707333421E+02 -0.55808806275E+02  0.25123059914E+03  0.26615373340E+03  0.47000000000E+01 0. -1.
        -13    1    6    6    0    0  0.94405575226E+01  0.38770109386E+02  0.42999175117E+03  0.43183926591E+03  0.00000000000E+00 0.  1.
         14    1    6    6    0    0 -0.44609793224E+02 -0.22110348857E+02  0.34471552770E+03  0.34829254401E+03  0.00000000000E+00 0. -1.
         -5    1    3    3    0  503  0.54605533426E+02  0.47472786114E+00  0.32073156997E+03  0.32538103759E+03  0.47000000000E+01 0.  1.
         13    1    4    4    0    0  0.45924839529E+02  0.22676493252E+02  0.11734269341E+03  0.12803367498E+03  0.00000000000E+00 0. -1.
        -14    1    4    4    0    0  0.23461961671E+01  0.15997824633E+02 -0.11245694405E+02  0.19695194137E+02  0.00000000000E+00 0.  1.
</event>
<event>
12    1  0.1066489E+000  0.2149081E+03  0.7818608E-02  0.1137977E+00
         21   -1    0    0  503  502  0.00000000000E+00  0.00000000000E+00  0.73149438989E+03  0.73149438989E+03  0.00000000000E+00 0.  1.
         21   -1    0    0  501  503 -0.00000000000E+00 -0.00000000000E+00 -0.94496833490E+02  0.94496833490E+02  0.00000000000E+00 0.  1.
          6    2    1    2  501    0  0.83366174306E+02 -0.96667087047E+02  0.79822655655E+02  0.22925348644E+03  0.17289031191E+03 0.  0.
         24    2    3    3    0    0 -0.10596793997E+02 -0.48896213715E+02 -0.41154427255E+01  0.94424742801E+02  0.79974767431E+02 0.  0.
         -6    2    1    2    0  502 -0.83366174306E+02  0.96667087047E+02  0.55717490075E+03  0.59673773695E+03  0.17134063130E+03 0.  0.
        -24    2    5    5    0    0 -0.72472441808E+02 -0.26272325297E+01  0.36273766848E+03  0.37809199013E+03  0.78203450651E+02 0.  0.
          5    1    3    3  501    0  0.93962968303E+02 -0.47770873332E+02  0.83938098381E+02  0.13482874364E+03  0.47000000000E+01 0. -1.
        -11    1    4    4    0    0 -0.24934377202E+02 -0.39662279883E+01  0.27742075958E+02  0.37511023838E+02  0.00000000000E+00 0.  1.
         12    1    4    4    0    0  0.14337583205E+02 -0.44929985726E+02 -0.31857518684E+02  0.56913718963E+02  0.00000000000E+00 0. -1.
         -5    1    5    5    0  502 -0.10893732498E+02  0.99294319576E+02  0.19443723227E+03  0.21864574682E+03  0.47000000000E+01 0.  1.
         11    1    6    6    0    0 -0.62113862787E+02 -0.21502923799E+01  0.12006149568E+03  0.13519437286E+03  0.00000000000E+00 0. -1.
        -12    1    6    6    0    0 -0.10358579021E+02 -0.47694014979E+00  0.24267617280E+03  0.24289761727E+03  0.00000000000E+00 0.  1.
</event>
<event>
12    1  0.1066489E+000  0.1918642E+03  0.7818608E-02  0.1158615E+00
         21   -1    0    0  503  502  0.00000000000E+00  0.00000000000E+00  0.66884984288E+02  0.66884984288E+02  0.00000000000E+00 0. -1.
         21   -1    0    0  501  503 -0.00000000000E+00 -0.00000000000E+00 -0.59822003090E+03  0.59822003090E+03  0.00000000000E+00 0. -1.
          6    2    1    2  501    0  0.26758218499E+02 -0.61329590493E+02 -0.15645464217E+03  0.24756803636E+03  0.17981812100E+03 0.  0.
         24    2    3    3    0    0  0.76788145579E+02 -0.32035217401E+02 -0.48122611705E+02  0.12460839776E+03  0.79301907797E+02 0.  0.
         -6    2    1    2    0  502 -0.26758218499E+02  0.61329590493E+02 -0.37488040444E+03  0.41753697883E+03  0.17124394918E+03 0.  0.
        -24    2    5    5    0    0  0.28002200146E+02  0.84956109135E+02 -0.28621707067E+03  0.31057814288E+03  0.80851144686E+02 0.  0.
          5    1    3    3  501    0 -0.50029927080E+02 -0.29294373092E+02 -0.10833203047E+03  0.12295963860E+03  0.47000000000E+01 0. -1.
        -13    1    4    4    0    0  0.72107449611E+02 -0.43626639224E+02 -0.62966144423E+02  0.10520220189E+03  0.00000000000E+00 0.  1.
         14    1    4    4    0    0  0.46806959675E+01  0.11591421823E+02  0.14843532718E+02  0.19406195871E+02  0.00000000000E+00 0. -1.
         -5    1    5    5    0  502 -0.54760418645E+02 -0.23626518642E+02 -0.88663333764E+02  0.10695883595E+03  0.47000000000E+01 0.  1.
         13    1    6    6    0    0  0.19077839979E+02  0.29356267959E+02 -0.24156548276E+02  0.42535788125E+02  0.00000000000E+00 0. -1.
        -14    1    6    6    0    0  0.89243601664E+01  0.55599841176E+02 -0.26206052240E+03  0.26804235476E+03  0.00000000000E+00 0.  1.
</event>
<event>
12    1  0.1066489E+000  0.1848875E+03  0.7818608E-02  0.1164037E+00
         21   -1    0    0  503  502  0.00000000000E+00  0.00000000000E+00  0.14220144511E+03  0.14220144511E+03  0.00000000000E+00 0. -1.
         21   -1    0    0  501  503 -0.00000000000E+00 -0.00000000000E+00 -0.39699563650E+03  0.39699563650E+03  0.00000000000E+00 0. -1.
          6    2    1    2  501    0  0.49680912387E+02  0.27045017420E+02  0.43747669155E+02  0.18999277298E+03  0.17602207022E+03 0.  0.
         24    2    3    3    0    0  0.35002391859E+02  0.87083661467E+02  0.29981798633E+02  0.12649720671E+03  0.79334125862E+02 0.  0.
         -6    2    1    2    0  502 -0.49680912387E+02 -0.27045017420E+02 -0.29854186055E+03  0.34920430864E+03  0.17209526620E+03 0.  0.
        -24    2    5    5    0    0 -0.38829462061E+02  0.44713532580E+02 -0.11598191458E+03  0.15269154228E+03  0.79723744599E+02 0.  0.
          5    1    3    3  501    0  0.14678520528E+02 -0.60038644047E+02  0.13765870522E+02  0.63495566264E+02  0.47000000000E+01 0. -1.
        -11    1    4    4    0    0  0.44128889723E+02  0.54109205413E+02 -0.13554202644E+02  0.71125814076E+02  0.00000000000E+00 0.  1.
         12    1    4    4    0    0 -0.91264978641E+01  0.32974456054E+02  0.43536001277E+02  0.55371392636E+02  0.00000000000E+00 0. -1.
         -5    1    5    5    0  502 -0.10851450326E+02 -0.71758550000E+02 -0.18255994597E+03  0.19651276636E+03  0.47000000000E+01 0.  1.
         13    1    6    6    0    0 -0.28399924893E+01 -0.15755098189E+02  0.11470631178E+01  0.16050060127E+02  0.00000000000E+00 0. -1.
        -14    1    6    6    0    0 -0.35989469572E+02  0.60468630769E+02 -0.11712897770E+03  0.13664148215E+03  0.00000000000E+00 0.  1.
</event>
<event>
12    1  0.1066489E+000  0.2108028E+03  0.7818608E-02  0.1141101E+00
         21   -1    0    0  503  502  0.00000000000E+00  0.00000000000E+00  0.13165988869E+04  0.13165988869E+04  0.00000000000E+00 0. -1.
         21   -1    0    0  501  503 -0.00000000000E+00 -0.00000000000E+00 -0.40150389520E+02  0.40150389520E+02  0.00000000000E+00 0. -1.
          6    2    1    2  501    0  0.60763329685E+02  0.10633424630E+03  0.91301011570E+03  0.93703004066E+03  0.17157701351E+03 0.  0.
         24    2    3    3    0    0 -0.66539491198E+01  0.28039122737E+02  0.62991595871E+03  0.63563394318E+03  0.80037036720E+02 0.  0.
         -6    2    1    2    0  502 -0.60763329685E+02 -0.10633424630E+03  0.36343838168E+03  0.41971923576E+03  0.17052162742E+03 0.  0.
        -24    2    5    5    0    0 -0.31616191676E+02 -0.11633401419E+03  0.18361733286E+03  0.23721649438E+03  0.89572059506E+02 0.  0.
          5    1    3    3  501    0  0.67417278805E+02  0.78295123558E+02  0.28309415700E+03  0.30139609749E+03  0.47000000000E+01 0. -1.
        -13    1    4    4    0    0 -0.30130496581E+02  0.44557248570E+02  0.47914740039E+03  0.48215705587E+03  0.00000000000E+00 0.  1.
         14    1    4    4    0    0  0.23476547461E+02 -0.16518125833E+02  0.15076855832E+03  0.15347688731E+03  0.00000000000E+00 0. -1.
         -5    1    5    5    0  502 -0.29147138009E+02  0.99997678972E+01  0.17982104882E+03  0.18250274138E+03  0.47000000000E+01 0.  1.
         11    1    6    6    0    0 -0.16974868863E+02 -0.11152724815E+03  0.18965108711E+03  0.22066718853E+03  0.00000000000E+00 0. -1.
        -12    1    6    6    0    0 -0.14641322813E+02 -0.48067660410E+01 -0.60337542527E+01  0.16549305842E+02  0.00000000000E+00 0.  1.
</event>
<event>
12    1  0.1066489E+000  0.4015048E+03  0.7818608E-02  0.1043293E+00
         21   -1    0    0  501  502  0.00000000000E+00  0.00000000000E+00  0.76635732292E+02  0.76635732292E+02  0.00000000000E+00 0. -1.
         21   -1    0    0  502  503 -0.00000000000E+00 -0.00000000000E+00 -0.23509530829E+04  0.23509530829E+04  0.00000000000E+00 0.  1.
         -6    2    1    2    0  503 -0.14370938351E+03 -0.33312502005E+03 -0.74129539168E+03  0.84286094994E+03  0.17108786432E+03 0.  0.
        -24    2    3    3    0    0 -0.14600231954E+03 -0.27324630936E+03 -0.49415732718E+03  0.58851860098E+03  0.78628600412E+02 0.  0.
          6    2    1    2  501    0  0.14370938351E+03  0.33312502005E+03 -0.15330219590E+04  0.15847278653E+04  0.17199248375E+03 0.  0.
         24    2    5    5    0    0  0.15450298719E+02  0.12653172691E+03 -0.74718426491E+03  0.76211364648E+03  0.79271020983E+02 0.  0.
          5    1    5    5  501    0  0.12825908479E+03  0.20659329314E+03 -0.78583769406E+03  0.82261421882E+03  0.47000000000E+01 0. -1.
        -13    1    6    6    0    0  0.40129833285E+02  0.34589684371E+02 -0.32837285327E+03  0.33261927266E+03  0.00000000000E+00 0.  1.
         14    1    6    6    0    0 -0.24679534566E+02  0.91942042542E+02 -0.41881141164E+03  0.42949437381E+03  0.00000000000E+00 0. -1.
         -5    1    3    3    0  503  0.22929360361E+01 -0.59878710688E+02 -0.24713806450E+03  0.25434234896E+03  0.47000000000E+01 0.  1.
         13    1    4    4    0    0 -0.45901042051E+02 -0.12980214849E+03 -0.15796089818E+03  0.20954032730E+03  0.00000000000E+00 0. -1.
        -14    1    4    4    0    0 -0.10010127749E+03 -0.14344416087E+03 -0.33619642901E+03  0.37897827368E+03  0.00000000000E+00 0.  1.
</event>
<event>
12    1  0.1066489E+000  0.3519085E+03  0.7818608E-02  0.1062034E+00
         21   -1    0    0  501  502  0.00000000000E+00  0.00000000000E+00  0.40260233969E+03  0.40260233969E+03  0.00000000000E+00 0.  1.
         21   -1    0    0  502  503 -0.00000000000E+00 -0.00000000000E+00 -0.40353152789E+03  0.40353152789E+03  0.00000000000E+00 0.  1.
         -6    2    1    2    0  503  0.30109399847E+03 -0.70451318935E+02  0.19779600584E+03  0.40368658054E+03  0.16798396091E+03 0.  0.
        -24    2    3    3    0    0  0.24623676119E+03 -0.33374371647E+02  0.21576463904E+03  0.33491901346E+03  0.62209122119E+02 0.  0.
          6    2    1    2  501    0 -0.30109399847E+03  0.70451318935E+02 -0.19872519404E+03  0.40244728704E+03  0.16386314975E+03 0.  0.
         24    2    5    5    0    0 -0.10532286340E+03  0.73826021305E+02 -0.11411648014E+03  0.18909675291E+03  0.78688143626E+02 0.  0.
          5    1    5    5  501    0 -0.19577113508E+03 -0.33747023692E+01 -0.84608713904E+02  0.21335053413E+03  0.47000000000E+01 0. -1.
        -13    1    6    6    0    0 -0.54332244547E+02  0.14044170269E+02 -0.74444493013E+01  0.56609640004E+02  0.00000000000E+00 0.  1.
         14    1    6    6    0    0 -0.50990618850E+02  0.59781851035E+02 -0.10667203084E+03  0.13248711291E+03  0.00000000000E+00 0. -1.
         -5    1    3    3    0  503  0.54857237285E+02 -0.37076947289E+02 -0.17968633197E+02  0.68767567077E+02  0.47000000000E+01 0.  1.
         11    1    4    4    0    0  0.10181274779E+03  0.12130338861E+02  0.10897086315E+03  0.14962496366E+03  0.00000000000E+00 0. -1.
        -12    1    4    4    0    0  0.14442401340E+03 -0.45504710508E+02  0.10679377589E+03  0.18529404981E+03  0.00000000000E+00 0.  1.
</event>
<event>
12    1  0.1066489E+000  0.4156768E+03  0.7818608E-02  0.1038534E+00
         21   -1    0    0  501  502  0.00000000000E+00  0.00000000000E+00  0.50671816239E+03  0.50671816239E+03  0.00000000000E+00 0.  1.
         21   -1    0    0  502  503 -0.00000000000E+00 -0.00000000000E+00 -0.44493113680E+03  0.44493113680E+03  0.00000000000E+00 0.  1.
         -6    2    1    2    0  503  0.35165395904E+03  0.13877233282E+03  0.26145327065E+03  0.49106515318E+03  0.17282622680E+03 0.  0.
        -24    2    3    3    0    0  0.34033271236E+03  0.15800249400E+03  0.26714572803E+03  0.46756060476E+03  0.80342615784E+02 0.  0.
          6    2    1    2  501    0 -0.35165395904E+03 -0.13877233282E+03 -0.19966624506E+03  0.46058414601E+03  0.17132681891E+03 0.  0.
         24    2    5    5    0    0 -0.28540593324E+03 -0.16886658206E+03 -0.17663410086E+03  0.38411824233E+03  0.79842026748E+02 0.  0.
          5    1    5    5  501    0 -0.66248025802E+02  0.30094249243E+02 -0.23032144196E+02  0.76465903685E+02  0.47000000000E+01 0. -1.
        -13    1    6    6    0    0 -0.74677092079E+02 -0.87248467394E+02 -0.52324143811E+02  0.12620134377E+03  0.00000000000E+00 0.  1.
         14    1    6    6    0    0 -0.21072884116E+03 -0.81618114668E+02 -0.12430995705E+03  0.25791689856E+03  0.00000000000E+00 0. -1.
         -5    1    3    3    0  503  0.11321246681E+02 -0.19230161177E+02 -0.56924573801E+01  0.23504548418E+02  0.47000000000E+01 0.  1.
         11    1    4    4    0    0  0.79543863965E+02  0.14069401633E+02  0.90255622344E+02  0.12112494261E+03  0.00000000000E+00 0. -1.
        -12    1    4    4    0    0  0.26078884839E+03  0.14393309236E+03  0.17689010568E+03  0.34643566215E+03  0.00000000000E+00 0.  1.
</event>
<event>
12    1  0.1066489E+000  0.2684845E+03  0.7818608E-02  0.1102247E+00
         21   -1    0    0  503  502  0.00000000000E+00  0.00000000000E+00  0.33909180203E+03  0.33909180203E+03  0.00000000000E+00 0.  1.
         21   -1    0    0  501  503 -0.00000000000E+00 -0.00000000000E+00 -0.27901064360E+03  0.27901064360E+03  0.00000000000E+00 0.  1.
          6    2    1    2  501    0 -0.20333303011E+03 -0.27985017202E+02 -0.12133418089E+03  0.29462838833E+03  0.17307923457E+03 0.  0.
         24    2    3    3    0    0 -0.88595967141E+02  0.98358935659E+01  0.66163865701E+01  0.11859301512E+03  0.77939312722E+02 0.  0.
         -6    2    1    2    0  502  0.20333303011E+03  0.27985017202E+02  0.18141533933E+03  0.32347405729E+03  0.17203621153E+03 0.  0.
        -24    2    5    5    0    0  0.14741608430E+03  0.85893049325E+02  0.12291768895E+03  0.22385422938E+03  0.76764835205E+02 0.  0.
          5    1    3    3  501    0 -0.11473706297E+03 -0.37820910768E+02 -0.12795056746E+03  0.17603537322E+03  0.47000000000E+01 0. -1.
        -13    1    4    4    0    0  0.13341059520E+02 -0.46469928575E+01 -0.49845445496E+01  0.14980790904E+02  0.00000000000E+00 0.  1.
         14    1    4    4    0    0 -0.10193702666E+03  0.14482886423E+02  0.11600931120E+02  0.10361222421E+03  0.00000000000E+00 0. -1.
         -5    1    5    5    0  502  0.55916945810E+02 -0.57908032123E+02  0.58497650377E+02  0.99619827910E+02  0.47000000000E+01 0.  1.
         13    1    6    6    0    0  0.16771302996E+02  0.44028447688E+02  0.15446047268E+02  0.49581863481E+02  0.00000000000E+00 0. -1.
        -14    1    6    6    0    0  0.13064478130E+03  0.41864601637E+02  0.10747164168E+03  0.17427236590E+03  0.00000000000E+00 0.  1.
</event>
<event>
12    1  0.1066489E+000  0.2304495E+03  0.7818608E-02  0.1126661E+00
         21   -1    0    0  503  502  0.00000000000E+00  0.00000000000E+00  0.19951678439E+03  0.19951678439E+03  0.00000000000E+00 0. -1.
         21   -1    0    0  501  503 -0.00000000000E+00 -0.00000000000E+00 -0.26400398571E+03  0.26400398571E+03  0.00000000000E+00 0. -1.
          6    2    1    2  501    0  0.74758540645E+02  0.13546136425E+03 -0.29536057581E+02  0.23043590985E+03  0.16819544954E+03 0.  0.
         24    2    3    3    0    0  0.71585131538E+02  0.11951060871E+03  0.31327443483E+02  0.16726192082E+03  0.87108695261E+02 0.  0.
         -6    2    1    2    0  502 -0.74758540645E+02 -0.13546136425E+03 -0.34951143740E+02  0.23308486025E+03  0.17078743814E+03 0.  0.
        -24    2    5    5    0    0 -0.70996019745E+02 -0.15698543753E+03  0.51358759941E+00  0.19116494299E+03  0.82818531978E+02 0.  0.
          5    1    3    3  501    0  0.31734091066E+01  0.15950755541E+02 -0.60863501064E+02  0.63173989026E+02  0.47000000000E+01 0. -1.
        -13    1    4    4    0    0  0.35796245601E+02  0.70130169248E+02 -0.26639968427E+02  0.83122197731E+02  0.00000000000E+00 0.  1.
         14    1    4    4    0    0  0.35788885938E+02  0.49380439459E+02  0.57967411910E+02  0.84139723088E+02  0.00000000000E+00 0. -1.
         -5    1    5    5    0  502 -0.37625209001E+01  0.21524073287E+02 -0.35464731339E+02  0.41919917263E+02  0.47000000000E+01 0.  1.
         11    1    6    6    0    0 -0.58111932644E+01 -0.74941435602E+02  0.32081315319E+02  0.81726369856E+02  0.00000000000E+00 0. -1.
        -12    1    6    6    0    0 -0.65184826481E+02 -0.82044001933E+02 -0.31567727720E+02  0.10943857313E+03  0.00000000000E+00 0.  1.
</event>
<event>
12    1  0.1066489E+000  0.1972000E+03  0.7818608E-02  0.1152576E+00
         21   -1    0    0  503  502  0.00000000000E+00  0.00000000000E+00  0.25880684918E+03  0.25880684918E+03  0.00000000000E+00 0.  1.
         21   -1    0    0  501  503 -0.00000000000E+00 -0.00000000000E+00 -0.22213399484E+03  0.22213399484E+03  0.00000000000E+00 0.  1.
          6    2    1    2  501    0  0.48376394331E+02  0.76787745795E+02  0.15669393411E+03  0.25187466071E+03  0.17507490479E+03 0.  0.
         24    2    3    3    0    0  0.42055400089E+02 -0.24464447998E+02  0.99179049998E+02  0.13516127840E+03  0.77877604787E+02 0.  0.
         -6    2    1    2    0  502 -0.48376394331E+02 -0.76787745795E+02 -0.12002107977E+03  0.22906618331E+03  0.17271254533E+03 0.  0.
        -24    2    5    5    0    0 -0.50525879877E+02  0.84387081408E+00 -0.11879023847E+03  0.15125298934E+03  0.78821122623E+02 0.  0.
          5    1    3    3  501    0  0.63209942422E+01  0.10125219379E+03  0.57514884110E+02  0.11671338231E+03  0.47000000000E+01 0. -1.
        -11    1    4    4    0    0 -0.16310799780E+02 -0.10471953419E+02  0.61052323362E+02  0.64055368126E+02  0.00000000000E+00 0.  1.
         12    1    4    4    0    0  0.58366199869E+02 -0.13992494578E+02  0.38126726636E+02  0.71105910273E+02  0.00000000000E+00 0. -1.
         -5    1    5    5    0  502  0.21494855457E+01 -0.77631616609E+02 -0.12308412923E+01  0.77813193969E+02  0.47000000000E+01 0.  1.
         11    1    6    6    0    0 -0.42196467442E+02 -0.30157315175E+02 -0.37932726724E+02  0.64256496013E+02  0.00000000000E+00 0. -1.
        -12    1    6    6    0    0 -0.83294124347E+01  0.31001185990E+02 -0.80857511751E+02  0.86996493325E+02  0.00000000000E+00 0.  1.
</event>
<event>
12    1  0.1066489E+000  0.1834730E+03  0.7818608E-02  0.1164697E+00
         21   -1    0    0  501  502  0.00000000000E+00  0.00000000000E+00  0.36836282909E+03  0.36836282909E+03  0.00000000000E+00 0. -1.
         21   -1    0    0  502  503 -0.00000000000E+00 -0.00000000000E+00 -0.99268542985E+02  0.99268542985E+02  0.00000000000E+00 0. -1.
         -6    2    1    2    0  503 -0.64106101353E+02 -0.80488226977E+01  0.67107508125E+02  0.19536055201E+03  0.17172056330E+03 0.  0.
        -24    2    3    3    0    0 -0.56273754298E+02 -0.69833872786E+02  0.55328260076E+02  0.13180287144E+03  0.79166124995E+02 0.  0.
          6    2    1    2  501    0  0.64106101353E+02  0.80488226977E+01  0.20198677798E+03  0.27227082006E+03  0.17075820683E+03 0.  0.
         24    2    5    5    0    0 -0.69369067520E+01  0.31814299710E+02  0.32890307355E+02  0.87263757286E+02  0.73979190834E+02 0.  0.
          5    1    5    5  501    0  0.71043008105E+02 -0.23765477012E+02  0.16909647062E+03  0.18500706277E+03  0.47000000000E+01 0. -1.
        -11    1    6    6    0    0 -0.11577351022E+02 -0.12260323148E+02  0.39035023216E+02  0.42521566503E+02  0.00000000000E+00 0.  1.
         12    1    6    6    0    0  0.46404442699E+01  0.44074622858E+02 -0.61447158611E+01  0.44742190783E+02  0.00000000000E+00 0. -1.
         -5    1    3    3    0  503 -0.78323470553E+01  0.61785050088E+02  0.11779248048E+02  0.63557680570E+02  0.47000000000E+01 0.  1.
         11    1    4    4    0    0  0.21559976803E+01  0.13618865246E+02  0.19353854033E+02  0.23763280129E+02  0.00000000000E+00 0. -1.
        -12    1    4    4    0    0 -0.58429751978E+02 -0.83452738032E+02  0.35974406044E+02  0.10803959131E+03  0.00000000000E+00 0.  1.
</event>
<event>
12    1  0.1066489E+000  0.3647993E+03  0.7818608E-02  0.1056708E+00
         21   -1    0    0  501  502  0.00000000000E+00  0.00000000000E+00  0.13133954260E+04  0.13133954260E+04  0.00000000000E+00 0.  1.
         21   -1    0    0  502  503 -0.00000000000E+00 -0.00000000000E+00 -0.13248514946E+03  0.13248514946E+03  0.00000000000E+00 0. -1.
         -6    2    1    2    0  503 -0.16738073302E+03 -0.27467660324E+03  0.23966193349E+03  0.43641190125E+03  0.17191264943E+03 0.  0.
        -24    2    3    3    0    0 -0.48618516218E+02 -0.49081977011E+02  0.98316818598E+02  0.14486785479E+03  0.80917846891E+02 0.  0.
          6    2    1    2  501    0  0.16738073302E+03  0.27467660324E+03  0.94124834309E+03  0.10094686742E+04  0.17209013556E+03 0.  0.
         24    2    5    5    0    0  0.11070446275E+03  0.24913878975E+03  0.86778586861E+03  0.91311928563E+03  0.80055614409E+02 0.  0.
          5    1    5    5  501    0  0.56676270272E+02  0.25537813487E+02  0.73462474485E+02  0.96349388618E+02  0.47000000000E+01 0. -1.
        -11    1    6    6    0    0 -0.98342563854E+01  0.56897411874E+01  0.54220854971E+02  0.55398437408E+02  0.00000000000E+00 0.  1.
         12    1    6    6    0    0  0.12053871913E+03  0.24344904856E+03  0.81356501364E+03  0.85772084822E+03  0.00000000000E+00 0. -1.
         -5    1    3    3    0  503 -0.11876221680E+03 -0.22559462622E+03  0.14134511489E+03  0.29154404646E+03  0.47000000000E+01 0.  1.
         11    1    4    4    0    0  0.13566764777E+02 -0.12740222641E+02  0.60945596592E+02  0.63723905431E+02  0.00000000000E+00 0. -1.
        -12    1    4    4    0    0 -0.62185280995E+02 -0.36341754371E+02  0.37371222006E+02  0.81143949358E+02  0.00000000000E+00 0.  1.
</event>
<event>
12    1  0.1066489E+000  0.1817907E+03  0.7818608E-02  0.1166259E+00
         21   -1    0    0  501  502  0.00000000000E+00  0.00000000000E+00  0.71497859486E+02  0.71497859486E+02  0.00000000000E+00 0.  1.
         21   -1    0    0  502  503 -0.00000000000E+00 -0.00000000000E+00 -0.46104937954E+03  0.46104937954E+03  0.00000000000E+00 0. -1.
         -6    2    1    2    0  503  0.55196390800E+02  0.11743367925E+02 -0.20566277130E+03  0.27449047155E+03  0.17280999746E+03 0.  0.
        -24    2    3    3    0    0  0.94275618900E+02  0.43080870295E+02 -0.14180834807E+03  0.19319654502E+03  0.80445284014E+02 0.  0.
          6    2    1    2  501    0 -0.55196390800E+02 -0.11743367925E+02 -0.18388874875E+03  0.25805676748E+03  0.17202812293E+03 0.  0.
         24    2    5    5    0    0  0.63065914074E+01 -0.44085736464E+02 -0.42481278797E+02  0.10042806394E+03  0.79358753285E+02 0.  0.
          5    1    5    5  501    0 -0.61502982208E+02  0.32342368539E+02 -0.14140746995E+03  0.15762870354E+03  0.47000000000E+01 0. -1.
        -11    1    6    6    0    0 -0.18433445906E+02 -0.59195669253E+02 -0.29707744373E+02  0.68749321902E+02  0.00000000000E+00 0.  1.
         12    1    6    6    0    0  0.24740037313E+02  0.15109932789E+02 -0.12773534424E+02  0.31678742034E+02  0.00000000000E+00 0. -1.
         -5    1    3    3    0  503 -0.39079228100E+02 -0.31337502370E+02 -0.63854423231E+02  0.81293926525E+02  0.47000000000E+01 0.  1.
         11    1    4    4    0    0  0.78934047024E+02 -0.19701309170E+01 -0.11202101561E+03  0.13705171700E+03  0.00000000000E+00 0. -1.
        -12    1    4    4    0    0  0.15341571876E+02  0.45051001212E+02 -0.29787332467E+02  0.56144828019E+02  0.00000000000E+00 0.  1.
</event>
<event>
12    1  0.1066489E+000  0.2294078E+03  0.7818608E-02  0.1127315E+00
         21   -1    0    0  501  502  0.00000000000E+00  0.00000000000E+00  0.10993996197E+03  0.10993996197E+03  0.00000000000E+00 0. -1.
         21   -1    0    0  502  503 -0.00000000000E+00 -0.00000000000E+00 -0.48227489895E+03  0.48227489895E+03  0.00000000000E+00 0. -1.
         -6    2    1    2    0  503 -0.12816720716E+02  0.15091557960E+03 -0.22140416417E+03  0.31882244800E+03  0.17230255059E+03 0.  0.
        -24    2    3    3    0    0  0.35781397221E+02  0.31872757830E+02 -0.52050794146E+02  0.10613576666E+03  0.79115957389E+02 0.  0.
          6    2    1    2  501    0  0.12816720716E+02 -0.15091557960E+03 -0.15093077281E+03  0.27339241292E+03  0.17036294423E+03 0.  0.
         24    2    5    5    0    0  0.11906675277E+02 -0.17974267094E+03 -0.13989626019E+03  0.24215653857E+03  0.81361101786E+02 0.  0.
          5    1    5    5  501    0  0.91004543947E+00  0.28827091340E+02 -0.11034512616E+02  0.31235874351E+02  0.47000000000E+01 0. -1.
        -11    1    6    6    0    0 -0.11136943688E+02 -0.14376168922E+03 -0.70121324939E+02  0.16033856371E+03  0.00000000000E+00 0.  1.
         12    1    6    6    0    0  0.23043618965E+02 -0.35980981723E+02 -0.69774935253E+02  0.81817974861E+02  0.00000000000E+00 0. -1.
         -5    1    3    3    0  503 -0.48598117938E+02  0.11904282177E+03 -0.16935337002E+03  0.21268668134E+03  0.47000000000E+01 0.  1.
         11    1    4    4    0    0  0.30909754809E+02 -0.16651938796E+02 -0.44662671155E+02  0.56810687399E+02  0.00000000000E+00 0. -1.
        -12    1    4    4    0    0  0.48716424124E+01  0.48524696626E+02 -0.73881229913E+01  0.49325079257E+02  0.00000000000E+00 0.  1.
</event>
<event>
12    1  0.1066489E+000  0.2184392E+03  0.7818608E-02  0.1135195E+00
         21   -1    0    0  501  502  0.00000000000E+00  0.00000000000E+00  0.91563490066E+02  0.91563490066E+02  0.00000000000E+00 0. -1.
         21   -1    0    0  502  503 -0.00000000000E+00 -0.00000000000E+00 -0.66539796349E+03  0.66539796349E+03  0.00000000000E+00 0. -1.
         -6    2    1    2    0  503  0.12220403057E+03  0.54162399375E+02 -0.10918455478E+03  0.24352673116E+03  0.17180399062E+03 0.  0.
        -24    2    3    3    0    0  0.73051726369E+01  0.19576258376E+02 -0.90154512590E+02  0.12194473738E+03  0.79410877064E+02 0.  0.
          6    2    1    2  501    0 -0.12220403057E+03 -0.54162399375E+02 -0.46464991864E+03  0.51343472240E+03  0.17276653806E+03 0.  0.
         24    2    5    5    0    0 -0.79941701496E+02 -0.10403812021E+03 -0.31330580968E+03  0.34850800745E+03  0.77991632747E+02 0.  0.
          5    1    5    5  501    0 -0.42262329077E+02  0.49875720834E+02 -0.15134410896E+03  0.16492671495E+03  0.47000000000E+01 0. -1.
        -13    1    6    6    0    0 -0.94581414406E+02 -0.79435266699E+02 -0.24277212411E+03  0.27238559028E+03  0.00000000000E+00 0.  1.
         14    1    6    6    0    0  0.14639712911E+02 -0.24602853510E+02 -0.70533685574E+02  0.76122417169E+02  0.00000000000E+00 0. -1.
         -5    1    3    3    0  503  0.11489885794E+03  0.34586140999E+02 -0.19030042190E+02  0.12158199377E+03  0.47000000000E+01 0.  1.
         13    1    4    4    0    0 -0.42463442651E+01 -0.20790201893E+02 -0.73958801271E+02  0.76942629405E+02  0.00000000000E+00 0. -1.
        -14    1    4    4    0    0  0.11551516902E+02  0.40366460269E+02 -0.16195711320E+02  0.45002107979E+02  0.00000000000E+00 0.  1.
</event>
<event>
12    1  0.1066489E+000  0.1802315E+03  0.7818608E-02  0.1167603E+00
         21   -1    0    0  501  502  0.00000000000E+00  0.00000000000E+00  0.19328194798E+03  0.19328194798E+03  0.00000000000E+00 0. -1.
         21   -1    0    0  502  503 -0.00000000000E+00 -0.00000000000E+00 -0.26073059792E+03  0.26073059792E+03  0.00000000000E+00 0. -1.
         -6    2    1    2    0  503  0.20163655491E+02  0.47620171068E+02  0.10168361804E+03  0.20685038574E+03  0.17254932689E+03 0.  0.
        -24    2    3    3    0    0  0.68492855775E+02  0.70508923655E+02  0.77834636469E+02  0.14810967995E+03  0.78838233455E+02 0.  0.
          6    2    1    2  501    0 -0.20163655491E+02 -0.47620171068E+02 -0.16913226798E+03  0.24716216016E+03  0.17265328160E+03 0.  0.
         24    2    5    5    0    0  0.20825124195E+02 -0.28400464430E+02 -0.17154834768E+02  0.88515674568E+02  0.79375462901E+02 0.  0.
          5    1    5    5  501    0 -0.40988779687E+02 -0.19219706638E+02 -0.15197743321E+03  0.15864648559E+03  0.47000000000E+01 0. -1.
        -11    1    6    6    0    0 -0.25603080938E+02 -0.26255886151E+02 -0.20327758199E+02  0.41929787317E+02  0.00000000000E+00 0.  1.
         12    1    6    6    0    0  0.46428205133E+02 -0.21445782790E+01  0.31729234314E+01  0.46585887251E+02  0.00000000000E+00 0. -1.
         -5    1    3    3    0  503 -0.48329200283E+02 -0.22888752587E+02  0.23848981569E+02  0.58740705791E+02  0.47000000000E+01 0.  1.
         13    1    4    4    0    0 -0.13963433967E+02  0.10251194875E+02  0.31530179496E+02  0.35975223468E+02  0.00000000000E+00 0. -1.
        -14    1    4    4    0    0  0.82456289742E+02  0.60257728780E+02  0.46304456973E+02  0.11213445649E+03  0.00000000000E+00 0.  1.
</event>
<event>
12    1  0.1066489E+000  0.1914190E+03  0.7818608E-02  0.1157877E+00
         21   -1    0    0  503  502  0.00000000000E+00  0.00000000000E+00  0.32657873889E+03  0.32657873889E+03  0.00000000000E+00 0. -1.
         21   -1    0    0  501  503 -0.00000000000E+00 -0.00000000000E+00 -0.15988001028E+03  0.15988001028E+03  0.00000000000E+00 0. -1.
          6    2    1    2  501    0 -0.86314061742E+02  0.55754394146E+01 -0.51481428266E+02  0.19822101691E+03  0.17076308532E+03 0.  0.
         24    2    3    3    0    0 -0.86543959065E+02  0.62640011318E+02 -0.40747635375E+02  0.13996535170E+03  0.80723615001E+02 0.  0.
         -6    2    1    2    0  502  0.86314061742E+02 -0.55754394146E+01  0.21818015688E+03  0.28823773225E+03  0.16732365840E+03 0.  0.
        -24    2    5    5    0    0 -0.76879876015E+01 -0.32719454303E+02  0.73640027387E+02  0.11363211419E+03  0.79747952321E+02 0.  0.
          5    1    3    3  501    0  0.22989732293E+00 -0.57064571903E+02 -0.10733792892E+02  0.58255665210E+02  0.47000000000E+01 0. -1.
        -13    1    4    4    0    0 -0.73956852668E+01  0.67883377523E+01 -0.41902398508E+02  0.43088150236E+02  0.00000000000E+00 0.  1.
         14    1    4    4    0    0 -0.79148273799E+02  0.55851673565E+02  0.11547631335E+01  0.96877201463E+02  0.00000000000E+00 0. -1.
         -5    1    5    5    0  502  0.94002049344E+02  0.27144014888E+02  0.14454012949E+03  0.17460561806E+03  0.47000000000E+01 0.  1.
         11    1    6    6    0    0  0.67904353851E+01 -0.57276871782E+02  0.44335580648E+02  0.72748840302E+02  0.00000000000E+00 0. -1.
        -12    1    6    6    0    0 -0.14478422987E+02  0.24557417480E+02  0.29304446739E+02  0.40883273892E+02  0.00000000000E+00 0.  1.
</event>
<event>
12    1  0.1066489E+000  0.2067184E+03  0.7818608E-02  0.1144718E+00
         21   -1    0    0  503  502  0.00000000000E+00  0.00000000000E+00  0.99122730541E+03  0.99122730541E+03  0.00000000000E+00 0.  1.
         21   -1    0    0  501  503 -0.00000000000E+00 -0.00000000000E+00 -0.43044637726E+02  0.43044637726E+02  0.00000000000E+00 0.  1.
          6    2    1    2  501    0 -0.56561883915E+02  0.98839520590E+02  0.42290239308E+03  0.47072170591E+03  0.17252244145E+03 0.  0.
         24    2    3    3    0    0 -0.10089215689E+03  0.45461203220E+02  0.29650596422E+03  0.32645609985E+03  0.80074028166E+02 0.  0.
         -6    2    1    2    0  502  0.56561883915E+02 -0.98839520590E+02  0.52528027461E+03  0.56355023722E+03  0.16941371090E+03 0.  0.
        -24    2    5    5    0    0  0.90444405822E+02 -0.43319692763E+02  0.25767792836E+03  0.28811679283E+03  0.80972743696E+02 0.  0.
          5    1    3    3  501    0  0.44330272971E+02  0.53378317370E+02  0.12639642885E+03  0.14426560607E+03  0.47000000000E+01 0. -1.
        -11    1    4    4    0    0 -0.50712834679E+02 -0.11813488955E+02  0.68325520373E+02  0.85905336602E+02  0.00000000000E+00 0.  1.
         12    1    4    4    0    0 -0.50179322207E+02  0.57274692175E+02  0.22818044385E+03  0.24055076324E+03  0.00000000000E+00 0. -1.
         -5    1    5    5    0  502 -0.33882521908E+02 -0.55519827827E+02  0.26760234625E+03  0.27543344440E+03  0.47000000000E+01 0.  1.
         11    1    6    6    0    0  0.11733081296E+02 -0.44622902392E+02  0.13187381041E+03  0.13971245645E+03  0.00000000000E+00 0. -1.
        -12    1    6    6    0    0  0.78711324526E+02  0.13032096296E+01  0.12580411794E+03  0.14840433638E+03  0.00000000000E+00 0.  1.
</event>
<event>
12    1  0.1066489E+000  0.1857907E+03  0.7818608E-02  0.1162766E+00
         21   -1    0    0  503  502  0.00000000000E+00  0.00000000000E+00  0.82449424086E+03  0.82449424086E+03  0.00000000000E+00 0.  1.
         21   -1    0    0  501  503 -0.00000000000E+00 -0.00000000000E+00 -0.50728120313E+02  0.50728120313E+02  0.00000000000E+00 0.  1.
          6    2    1    2  501    0 -0.52353149869E+02  0.45608390986E+02  0.19787316875E+03  0.27010180816E+03  0.17023577248E+03 0.  0.
         24    2    3    3    0    0 -0.83982927052E+02 -0.59065560948E+01  0.94980354639E+02  0.15067294325E+03  0.81197589988E+02 0.  0.
         -6    2    1    2    0  502  0.52353149869E+02 -0.45608390986E+02  0.57589295180E+03  0.60512055302E+03  0.17232879655E+03 0.  0.
        -24    2    5    5    0    0  0.95839595890E+02 -0.55378214376E+02  0.35398698223E+03  0.37873400358E+03  0.76685638219E+02 0.  0.
          5    1    3    3  501    0  0.31629777183E+02  0.51514947080E+02  0.10289281411E+03  0.11942886491E+03  0.47000000000E+01 0. -1.
        -11    1    4    4    0    0 -0.11741973891E+02 -0.34747163331E+02  0.45671129564E+02  0.58575518658E+02  0.00000000000E+00 0.  1.
         12    1    4    4    0    0 -0.72240953161E+02  0.28840607237E+02  0.49309225075E+02  0.92097424594E+02  0.00000000000E+00 0. -1.
         -5    1    5    5    0  502 -0.43486446020E+02  0.97698233902E+01  0.22190596957E+03  0.22638654944E+03  0.47000000000E+01 0.  1.
         13    1    6    6    0    0 -0.90954575513E+01 -0.81383289792E+01  0.89064580311E+02  0.89896936614E+02  0.00000000000E+00 0. -1.
        -14    1    6    6    0    0  0.10493505344E+03 -0.47239885396E+02  0.26492240192E+03  0.28883706696E+03  0.00000000000E+00 0.  1.
</event>
<event>
12    1  0.1066489E+000  0.1993905E+03  0.7818608E-02  0.1153415E+00
         21   -1    0    0  503  502  0.00000000000E+00  0.00000000000E+00  0.10641557093E+03  0.10641557093E+03  0.00000000000E+00 0.  1.
         21   -1    0    0  501  503 -0.00000000000E+00 -0.00000000000E+00 -0.92339395722E+03  0.92339395722E+03  0.00000000000E+00 0.  1.
          6    2    1    2  501    0  0.73488783836E+02  0.73952854910E+02  0.38732588586E+01  0.18508827236E+03  0.15288243959E+03 0.  0.
         24    2    3    3    0    0  0.48667238614E+02 -0.10094878113E+02  0.19773236867E+02  0.95897298415E+02  0.79592111849E+02 0.  0.
         -6    2    1    2    0  502 -0.73488783836E+02 -0.73952854910E+02 -0.82085164514E+03  0.84472125578E+03  0.16996161490E+03 0.  0.
        -24    2    5    5    0    0 -0.54426773271E+02 -0.62662517661E+02 -0.81258528589E+03  0.82061203229E+03  0.78869486708E+02 0.  0.
          5    1    3    3  501    0  0.24821545222E+02  0.84047733022E+02 -0.15899978008E+02  0.89190973950E+02  0.47000000000E+01 0. -1.
        -13    1    4    4    0    0  0.57442398660E+02 -0.51290109015E+00 -0.14497825737E+02  0.59245921231E+02  0.00000000000E+00 0.  1.
         14    1    4    4    0    0 -0.87751600457E+01 -0.95819770225E+01  0.34271062604E+02  0.36651377184E+02  0.00000000000E+00 0. -1.
         -5    1    5    5    0  502 -0.19062010565E+02 -0.11290337248E+02 -0.82663592552E+01  0.24109223490E+02  0.47000000000E+01 0.  1.
         11    1    6    6    0    0  0.18960080525E+02 -0.16122549313E+02 -0.26601105892E+03  0.26717279936E+03  0.00000000000E+00 0. -1.
        -12    1    6    6    0    0 -0.73386853796E+02 -0.46539968348E+02 -0.54657422696E+03  0.55343923293E+03  0.00000000000E+00 0.  1.
</event>
<event>
12    1  0.1066489E+000  0.2218218E+03  0.7818608E-02  0.1132875E+00
         21   -1    0    0  501  502  0.00000000000E+00  0.00000000000E+00  0.30426244790E+03  0.30426244790E+03  0.00000000000E+00 0.  1.
         21   -1    0    0  502  503 -0.00000000000E+00 -0.00000000000E+00 -0.17776950879E+03  0.17776950879E+03  0.00000000000E+00 0.  1.
         -6    2    1    2    0  503 -0.10978097610E+03  0.86059698509E+02  0.13840782318E+03  0.25989040635E+03  0.17008281328E+03 0.  0.
        -24    2    3    3    0    0  0.61572670682E+01  0.14412312799E+02  0.69732558525E+02  0.10720312435E+03  0.79901523480E+02 0.  0.
          6    2    1    2  501    0  0.10978097610E+03 -0.86059698509E+02 -0.11914884066E+02  0.22214155034E+03  0.17247251812E+03 0.  0.
         24    2    5    5    0    0  0.15584526787E+02 -0.22598450497E+02  0.45305442364E+02  0.94875856539E+02  0.78710085798E+02 0.  0.
          5    1    5    5  501    0  0.94196449313E+02 -0.63461248013E+02 -0.57220326430E+02  0.12726569380E+03  0.47000000000E+01 0. -1.
        -11    1    6    6    0    0  0.37019393146E+02 -0.37789327071E+02  0.15457565488E+02  0.55112657713E+02  0.00000000000E+00 0.  1.
         12    1    6    6    0    0 -0.21434866359E+02  0.15190876574E+02  0.29847876876E+02  0.39763198827E+02  0.00000000000E+00 0. -1.
         -5    1    3    3    0  503 -0.11593824317E+03  0.71647385711E+02  0.68675264652E+02  0.15268728199E+03  0.47000000000E+01 0.  1.
         11    1    4    4    0    0 -0.29674268664E+02  0.29838105463E+02  0.41003326040E+02  0.58754978553E+02  0.00000000000E+00 0. -1.
        -12    1    4    4    0    0  0.35831535732E+02 -0.15425792664E+02  0.28729232485E+02  0.48448145799E+02  0.00000000000E+00 0.  1.
</event>
<event>
12    1  0.1066489E+000  0.2063079E+03  0.7818608E-02  0.1144624E+00
         21   -1    0    0  501  502  0.00000000000E+00  0.00000000000E+00  0.28555768671E+04  0.28555768671E+04  0.00000000000E+00 0.  1.
         21   -1    0    0  502  503 -0.00000000000E+00 -0.00000000000E+00 -0.66328488277E+02  0.66328488277E+02  0.00000000000E+00 0.  1.
         -6    2    1    2    0  503  0.90694632977E+02  0.67919609191E+02  0.26810659868E+04  0.26889539054E+04  0.17181295050E+03 0.  0.
        -24    2    3    3    0    0  0.93531829517E+02  0.45903649817E+02  0.11071670689E+04  0.11148914397E+04  0.79427046009E+02 0.  0.
          6    2    1    2  501    0 -0.90694632977E+02 -0.67919609191E+02  0.10818239202E+03  0.23295144998E+03  0.17240753563E+03 0.  0.
         24    2    5    5    0    0 -0.11379630373E+03 -0.49857463234E+02  0.13084690150E+03  0.19559240425E+03  0.75499083340E+02 0.  0.
          5    1    5    5  501    0  0.23101670751E+02 -0.18062145957E+02 -0.22664509484E+02  0.37359045734E+02  0.47000000000E+01 0. -1.
        -11    1    6    6    0    0  0.78563542693E+01 -0.35901504567E+00 -0.26704744184E+01  0.83055781152E+01  0.00000000000E+00 0.  1.
         12    1    6    6    0    0 -0.12165265800E+03 -0.49498448189E+02  0.13351737592E+03  0.18728682613E+03  0.00000000000E+00 0. -1.
         -5    1    3    3    0  503 -0.28371965398E+01  0.22015959375E+02  0.15738989179E+04  0.15740624657E+04  0.47000000000E+01 0.  1.
         11    1    4    4    0    0  0.10587427193E+02  0.72760016160E+01  0.19307588930E+02  0.23190877612E+02  0.00000000000E+00 0. -1.
        -12    1    4    4    0    0  0.82944402324E+02  0.38627648201E+02  0.10878594800E+04  0.10917005621E+04  0.00000000000E+00 0.  1.
</event>
<event>
12    1  0.1066489E+000  0.2083965E+03  0.7818608E-02  0.1143233E+00
         21   -1    0    0  503  502  0.00000000000E+00  0.00000000000E+00  0.15571007066E+04  0.15571007066E+04  0.00000000000E+00 0.  1.
         21   -1    0    0  501  503 -0.00000000000E+00 -0.00000000000E+00 -0.27937242631E+02  0.27937242631E+02  0.00000000000E+00 0.  1.
          6    2    1    2  501    0  0.43759473373E+02  0.10652612793E+03  0.68521065651E+03  0.71620020385E+03  0.17368471655E+03 0.  0.
         24    2    3    3    0    0  0.13437652872E+02  0.68625654479E+02  0.64186715247E+03  0.65095751822E+03  0.82838385670E+02 0.  0.
         -6    2    1    2    0  502 -0.43759473373E+02 -0.10652612793E+03  0.84395280746E+03  0.86883774538E+03  0.17134753904E+03 0.  0.
        -24    2    5    5    0    0 -0.61239731046E+02 -0.21906027681E+02  0.61712115510E+03  0.62606046208E+03  0.82963868032E+02 0.  0.
          5    1    3    3  501    0  0.30321820501E+02  0.37900473451E+02  0.43343504045E+02  0.65242685637E+02  0.47000000000E+01 0. -1.
        -11    1    4    4    0    0 -0.20346302854E+02  0.44088945127E+02  0.15802279050E+03  0.16531487967E+03  0.00000000000E+00 0.  1.
         12    1    4    4    0    0  0.33783955725E+02  0.24536709352E+02  0.48384436196E+03  0.48564263855E+03  0.00000000000E+00 0. -1.
         -5    1    5    5    0  502  0.17480257673E+02 -0.84620100248E+02  0.22683165236E+03  0.24277728330E+03  0.47000000000E+01 0.  1.
         13    1    6    6    0    0 -0.46272687982E+02 -0.42631412096E+02  0.24119917957E+03  0.24927022120E+03  0.00000000000E+00 0. -1.
        -14    1    6    6    0    0 -0.14967043063E+02  0.20725384415E+02  0.37592197553E+03  0.37679024088E+03  0.00000000000E+00 0.  1.
</event>
<event>
12    1  0.1066489E+000  0.2551380E+03  0.7818608E-02  0.1110558E+00
         21   -1    0    0  501  502  0.00000000000E+00  0.00000000000E+00  0.22697005801E+04  0.22697005801E+04  0.00000000000E+00 0.  1.
         21   -1    0    0  502  503 -0.00000000000E+00 -0.00000000000E+00 -0.29427748788E+02  0.29427748788E+02  0.00000000000E+00 0.  1.
         -6    2    1    2    0  503 -0.54791989606E+01  0.18426922796E+03  0.89375199012E+03  0.92864892852E+03  0.17207859423E+03 0.  0.
        -24    2    3    3    0    0  0.54601930278E+02  0.14258239252E+03  0.71536750507E+03  0.73580015655E+03  0.79624704886E+02 0.  0.
          6    2    1    2  501    0  0.54791989606E+01 -0.18426922796E+03  0.13465208412E+04  0.13704794004E+04  0.17638095447E+03 0.  0.
         24    2    5    5    0    0  0.67755777675E+02 -0.15215846549E+03  0.95899142623E+03  0.97663855589E+03  0.80095375940E+02 0.  0.
          5    1    5    5  501    0 -0.62276578714E+02 -0.32110762470E+02  0.38752941500E+03  0.39384084452E+03  0.47000000000E+01 0. -1.
        -11    1    6    6    0    0 -0.40122811085E+01 -0.28030478358E+02  0.34358001938E+03  0.34474488515E+03  0.00000000000E+00 0.  1.
         12    1    6    6    0    0  0.71768058784E+02 -0.12412798713E+03  0.61541140685E+03  0.63189367075E+03  0.00000000000E+00 0. -1.
         -5    1    3    3    0  503 -0.60081129239E+02  0.41686835433E+02  0.17838448506E+03  0.19284877196E+03  0.47000000000E+01 0.  1.
         13    1    4    4    0    0 -0.91179347570E+01  0.69978959234E+02  0.21797731317E+03  0.22911634714E+03  0.00000000000E+00 0. -1.
        -14    1    4    4    0    0  0.63719865035E+02  0.72603433291E+02  0.49739019190E+03  0.50668380941E+03  0.00000000000E+00 0.  1.
</event>
<event>
12    1  0.1066489E+000  0.2517025E+03  0.7818608E-02  0.1112267E+00
         21   -1    0    0  503  502  0.00000000000E+00  0.00000000000E+00  0.60524724293E+03  0.60524724293E+03  0.00000000000E+00 0. -1.
         21   -1    0    0  501  503 -0.00000000000E+00 -0.00000000000E+00 -0.11348226016E+03  0.11348226016E+03  0.00000000000E+00 0. -1.
          6    2    1    2  501    0  0.54799806681E+02 -0.17516617231E+03  0.14516468550E+03  0.29037697315E+03  0.17192961900E+03 0.  0.
         24    2    3    3    0    0 -0.35807423049E+02 -0.96734400881E+02  0.69491864727E+02  0.14856837450E+03  0.81263317549E+02 0.  0.
         -6    2    1    2    0  502 -0.54799806681E+02  0.17516617231E+03  0.34660029728E+03  0.42835252994E+03  0.17224377231E+03 0.  0.
        -24    2    5    5    0    0  0.12073913756E+02  0.16076597761E+03  0.21905685192E+03  0.28354617460E+03  0.80131453298E+02 0.  0.
          5    1    3    3  501    0  0.90607229730E+02 -0.78431771425E+02  0.75672820768E+02  0.14180859865E+03  0.47000000000E+01 0. -1.
        -13    1    4    4    0    0 -0.58594889493E+02 -0.90174847774E+02  0.55167423250E+02  0.12086483704E+03  0.00000000000E+00 0.  1.
         14    1    4    4    0    0  0.22787466444E+02 -0.65595531074E+01  0.14324441477E+02  0.27703537456E+02  0.00000000000E+00 0. -1.
         -5    1    5    5    0  502 -0.66873720437E+02  0.14400194695E+02  0.12754344536E+03  0.14480635534E+03  0.47000000000E+01 0.  1.
         11    1    6    6    0    0 -0.23673830653E+02  0.12013051022E+03  0.17592767257E+03  0.21434163319E+03  0.00000000000E+00 0. -1.
        -12    1    6    6    0    0  0.35747744409E+02  0.40635467391E+02  0.43129179353E+02  0.69204541413E+02  0.00000000000E+00 0.  1.
</event>
<event>
12    1  0.1066489E+000  0.1761578E+03  0.7818608E-02  0.1171593E+00
         21   -1    0    0  501  502  0.00000000000E+00  0.00000000000E+00  0.11308407888E+04  0.11308407888E+04  0.00000000000E+00 0. -1.
         21   -1    0    0  502  503 -0.00000000000E+00 -0.00000000000E+00 -0.32020201916E+02  0.32020201916E+02  0.00000000000E+00 0. -1.
         -6    2    1    2    0  503 -0.37391263790E+02  0.34276125995E+01  0.32935040691E+03  0.37350133650E+03  0.17210956597E+03 0.  0.
        -24    2    3    3    0    0 -0.23874628485E+02 -0.78301957744E+01  0.58666896335E+02  0.10220612722E+03  0.79830933011E+02 0.  0.
          6    2    1    2  501    0  0.37391263790E+02 -0.34276125995E+01  0.76947018001E+03  0.78935965425E+03  0.17203037726E+03 0.  0.
         24    2    5    5    0    0  0.79869515234E+02 -0.18213898941E+02  0.37226572214E+03  0.38958908572E+03  0.80541928560E+02 0.  0.
          5    1    5    5  501    0 -0.42478251444E+02  0.14786286341E+02  0.39720445786E+03  0.39977056852E+03  0.47000000000E+01 0. -1.
        -13    1    6    6    0    0  0.52172531014E+01 -0.11994670719E+02  0.38506481580E+01  0.13635224487E+02  0.00000000000E+00 0.  1.
         14    1    6    6    0    0  0.74652262133E+02 -0.62192282215E+01  0.36841507398E+03  0.37595386124E+03  0.00000000000E+00 0. -1.
         -5    1    3    3    0  503 -0.13516635305E+02  0.11257808374E+02  0.27068351057E+03  0.27129520927E+03  0.47000000000E+01 0.  1.
         13    1    4    4    0    0  0.27752177393E+02  0.80965905380E+01  0.14076721669E+02  0.32154194459E+02  0.00000000000E+00 0. -1.
        -14    1    4    4    0    0 -0.51626805878E+02 -0.15926786312E+02  0.44590174666E+02  0.70051932765E+02  0.00000000000E+00 0.  1.
</event>
<event>
12    1  0.1066489E+000  0.4151411E+03  0.7818608E-02  0.1038765E+00
         21   -1    0    0  503  502  0.00000000000E+00  0.00000000000E+00  0.40616708691E+03  0.40616708691E+03  0.00000000000E+00 0.  1.
         21   -1    0    0  501  503 -0.00000000000E+00 -0.00000000000E+00 -0.70840164907E+03  0.70840164907E+03  0.00000000000E+00 0.  1.
          6    2    1    2  501    0  0.37764282225E+03 -0.62916558495E+01  0.20273758986E+03  0.46085699275E+03  0.16921273976E+03 0.  0.
         24    2    3    3    0    0  0.70164376880E+02 -0.94166565351E+01  0.43704167005E+02  0.11463960500E+03  0.78869966514E+02 0.  0.
         -6    2    1    2    0  502 -0.37764282225E+03  0.62916558495E+01 -0.50497215201E+03  0.65371174323E+03  0.17230346136E+03 0.  0.
        -24    2    5    5    0    0 -0.25139924851E+03 -0.65576229132E+01 -0.22062768550E+03  0.34230138772E+03  0.72450533898E+02 0.  0.
          5    1    3    3  501    0  0.30747844537E+03  0.31250006856E+01  0.15903342286E+03  0.34621738775E+03  0.47000000000E+01 0. -1.
        -13    1    4    4    0    0  0.17052386329E+02  0.20089667078E+02  0.46902204920E+02  0.53797726989E+02  0.00000000000E+00 0.  1.
         14    1    4    4    0    0  0.53111990551E+02 -0.29506323613E+02 -0.31980379155E+01  0.60841878012E+02  0.00000000000E+00 0. -1.
         -5    1    5    5    0  502 -0.12624357374E+03  0.12849278763E+02 -0.28434446652E+03  0.31141035550E+03  0.47000000000E+01 0.  1.
         13    1    6    6    0    0 -0.82231446730E+02  0.14166848652E+02 -0.11395299129E+03  0.14123736990E+03  0.00000000000E+00 0. -1.
        -14    1    6    6    0    0 -0.16916780178E+03 -0.20724471566E+02 -0.10667469421E+03  0.20106401783E+03  0.00000000000E+00 0.  1.
</event>
<event>
12    1  0.1066489E+000  0.4516191E+03  0.7818608E-02  0.1027360E+00
         21   -1    0    0  501  502  0.00000000000E+00  0.00000000000E+00  0.16271477979E+03  0.16271477979E+03  0.00000000000E+00 0.  1.
         21   -1    0    0  502  503 -0.00000000000E+00 -0.00000000000E+00 -0.13913774385E+04  0.13913774385E+04  0.00000000000E+00 0. -1.
         -6    2    1    2    0  503 -0.38875375473E+03 -0.14844361569E+03 -0.86190015038E+03  0.97230654364E+03  0.17129844344E+03 0.  0.
        -24    2    3    3    0    0 -0.23017987180E+03 -0.15592674322E+03 -0.51358067849E+03  0.58948776400E+03  0.80217130094E+02 0.  0.
          6    2    1    2  501    0  0.38875375473E+03  0.14844361569E+03 -0.36676250838E+03  0.58178567470E+03  0.17548460011E+03 0.  0.
         24    2    5    5    0    0  0.36544839587E+03  0.90127379016E+02 -0.33690956255E+03  0.51209197637E+03  0.83992049828E+02 0.  0.
          5    1    5    5  501    0  0.23305358855E+02  0.58316236678E+02 -0.29852945830E+02  0.69693698326E+02  0.47000000000E+01 0. -1.
        -13    1    6    6    0    0  0.30079286661E+03  0.40155850151E+02 -0.27562154587E+03  0.40994643242E+03  0.00000000000E+00 0.  1.
         14    1    6    6    0    0  0.64655529267E+02  0.49971528865E+02 -0.61288016677E+02  0.10214554396E+03  0.00000000000E+00 0. -1.
         -5    1    3    3    0  503 -0.15857388293E+03  0.74831275216E+01 -0.34831947189E+03  0.38281877964E+03  0.47000000000E+01 0.  1.
         13    1    4    4    0    0 -0.28804826064E+00  0.42024994950E+01  0.27275242784E+00  0.42211808410E+01  0.00000000000E+00 0. -1.
        -14    1    4    4    0    0 -0.22989182354E+03 -0.16012924271E+03 -0.51385343091E+03  0.58526658316E+03  0.00000000000E+00 0.  1.
</event>
<event>
12    1  0.1066489E+000  0.2052400E+03  0.7818608E-02  0.1145554E+00
         21   -1    0    0  503  502  0.00000000000E+00  0.00000000000E+00  0.12309741182E+03  0.12309741182E+03  0.00000000000E+00 0. -1.
         21   -1    0    0  501  503 -0.00000000000E+00 -0.00000000000E+00 -0.37679241760E+03  0.37679241760E+03  0.00000000000E+00 0. -1.
          6    2    1    2  501    0 -0.12083858582E+02 -0.11102557400E+03 -0.20423903583E+03  0.28954627962E+03  0.17219397948E+03 0.  0.
         24    2    3    3    0    0 -0.46055499309E+02 -0.11330951564E+03 -0.20793904634E+03  0.25497651189E+03  0.82548284497E+02 0.  0.
         -6    2    1    2    0  502  0.12083858582E+02  0.11102557400E+03 -0.49455969959E+02  0.21034354980E+03  0.17124782701E+03 0.  0.
        -24    2    5    5    0    0 -0.18105752326E+02  0.15018238106E+02 -0.68040894654E+02  0.10789204625E+03  0.80360217499E+02 0.  0.
          5    1    3    3  501    0  0.33971640727E+02  0.22839416379E+01  0.37000105158E+01  0.34569767730E+02  0.47000000000E+01 0. -1.
        -11    1    4    4    0    0 -0.41985333784E+02 -0.10975419348E+03 -0.12389634013E+03  0.17076022469E+03  0.00000000000E+00 0.  1.
         12    1    4    4    0    0 -0.40701655244E+01 -0.35553221614E+01 -0.84042706209E+02  0.84216287202E+02  0.00000000000E+00 0. -1.
         -5    1    5    5    0  502  0.30189610908E+02  0.96007335895E+02  0.18584924695E+02  0.10245150354E+03  0.47000000000E+01 0.  1.
         11    1    6    6    0    0  0.80771352060E+01 -0.10846113096E+02  0.13079299447E+02  0.18813462107E+02  0.00000000000E+00 0. -1.
        -12    1    6    6    0    0 -0.26182887532E+02  0.25864351202E+02 -0.81120194101E+02  0.89078584146E+02  0.00000000000E+00 0.  1.
</event>
<event>
12    1  0.1066489E+000  0.2458836E+03  0.7818608E-02  0.1116677E+00
         21   -1    0    0  501  502  0.00000000000E+00  0.00000000000E+00  0.21624989392E+03  0.21624989392E+03  0.00000000000E+00 0.  1.
         21   -1    0    0  502  503 -0.00000000000E+00 -0.00000000000E+00 -0.28699170108E+03  0.28699170108E+03  0.00000000000E+00 0.  1.
         -6    2    1    2    0  503 -0.84236082749E+02 -0.15451995210E+03 -0.87710572163E+02  0.25677318069E+03  0.16512779482E+03 0.  0.
        -24    2    3    3    0    0 -0.53377093497E+02 -0.11984986491E+03 -0.12500956742E+03  0.19704381430E+03  0.77367748948E+02 0.  0.
          6    2    1    2  501    0  0.84236082749E+02  0.15451995210E+03  0.16968765007E+02  0.24646841431E+03  0.17171664751E+03 0.  0.
         24    2    5    5    0    0  0.73048335975E+02  0.24657500338E+02 -0.16368575950E+02  0.11184712938E+03  0.79358669086E+02 0.  0.
          5    1    5    5  501    0  0.11187746774E+02  0.12986245176E+03  0.33337340957E+02  0.13462128493E+03  0.47000000000E+01 0. -1.
        -11    1    6    6    0    0  0.60820193191E+02  0.22384405208E+02  0.24380021831E+02  0.69242638314E+02  0.00000000000E+00 0.  1.
         12    1    6    6    0    0  0.12228142785E+02  0.22730951307E+01 -0.40748597781E+02  0.42604491061E+02  0.00000000000E+00 0. -1.
         -5    1    3    3    0  503 -0.30858989253E+02 -0.34670087188E+02  0.37298995255E+02  0.59729366398E+02  0.47000000000E+01 0.  1.
         11    1    4    4    0    0 -0.69083936140E+02 -0.75740420485E+02 -0.10294797438E+03  0.14528415934E+03  0.00000000000E+00 0. -1.
        -12    1    4    4    0    0  0.15706842643E+02 -0.44109444425E+02 -0.22061593041E+02  0.51759654953E+02  0.00000000000E+00 0.  1.
</event>
<event>
12    1  0.1066489E+000  0.1960562E+03  0.7818608E-02  0.1153663E+00
         21   -1    0    0  503  502  0.00000000000E+00  0.00000000000E+00  0.10177694830E+03  0.10177694830E+03  0.00000000000E+00 0.  1.
         21   -1    0    0  501  503 -0.00000000000E+00 -0.00000000000E+00 -0.37281763741E+03  0.37281763741E+03  0.00000000000E+00 0.  1.
          6    2    1    2  501    0  0.91758583666E+02  0.70654608376E+01 -0.13441574056E+03  0.23770915696E+03  0.17311410566E+03 0.  0.
         24    2    3    3    0    0  0.42497133680E+02  0.63302934540E+02 -0.11741376451E+03  0.16089443771E+03  0.79295397705E+02 0.  0.
         -6    2    1    2    0  502 -0.91758583666E+02 -0.70654608376E+01 -0.13662494855E+03  0.23688542875E+03  0.17023152286E+03 0.  0.
        -24    2    5    5    0    0 -0.19256416001E+02  0.31931367510E+02 -0.12487019015E+03  0.15359328457E+03  0.81289057630E+02 0.  0.
          5    1    3    3  501    0  0.49261449986E+02 -0.56237473703E+02 -0.17001976049E+02  0.76814719246E+02  0.47000000000E+01 0. -1.
        -11    1    4    4    0    0 -0.10642688866E+02 -0.12938278323E+02 -0.13756241357E+02  0.21677178058E+02  0.00000000000E+00 0.  1.
         12    1    4    4    0    0  0.53139822546E+02  0.76241212863E+02 -0.10365752316E+03  0.13921725966E+03  0.00000000000E+00 0. -1.
         -5    1    5    5    0  502 -0.72502167665E+02 -0.38996828347E+02 -0.11754758403E+02  0.83292144181E+02  0.47000000000E+01 0.  1.
         11    1    6    6    0    0 -0.41106609244E+02 -0.19539682833E+01 -0.94638187457E+02  0.10319863294E+03  0.00000000000E+00 0. -1.
        -12    1    6    6    0    0  0.21850193243E+02  0.33885335793E+02 -0.30232002690E+02  0.50394651632E+02  0.00000000000E+00 0.  1.
</event>
<event>
12    1  0.1066489E+000  0.1845703E+03  0.7818608E-02  0.1163631E+00
         21   -1    0    0  503  502  0.00000000000E+00  0.00000000000E+00  0.22498987961E+02  0.22498987961E+02  0.00000000000E+00 0.  1.
         21   -1    0    0  501  503 -0.00000000000E+00 -0.00000000000E+00 -0.19956246725E+04  0.19956246725E+04  0.00000000000E+00 0.  1.
          6    2    1    2  501    0  0.55106472070E+02  0.35884313615E+02 -0.48616514812E+03  0.51975193926E+03  0.17164241869E+03 0.  0.
         24    2    3    3    0    0  0.72111416615E+02  0.41662391486E+02 -0.18562965087E+03  0.21864360423E+03  0.80067765773E+02 0.  0.
         -6    2    1    2    0  502 -0.55106472070E+02 -0.35884313615E+02 -0.14869605365E+04  0.14983717212E+04  0.17245802615E+03 0.  0.
        -24    2    5    5    0    0 -0.15734023332E+02 -0.43571081891E+02 -0.39518121980E+03  0.40584554654E+03  0.79977574922E+02 0.  0.
          5    1    3    3  501    0 -0.17004944546E+02 -0.57780778713E+01 -0.30053549725E+03  0.30110833503E+03  0.47000000000E+01 0. -1.
        -13    1    4    4    0    0  0.64804537749E+02  0.36247901412E+02 -0.19309365583E+03  0.20687846285E+03  0.00000000000E+00 0.  1.
         14    1    4    4    0    0  0.73068788668E+01  0.54144900737E+01  0.74640049599E+01  0.11765141375E+02  0.00000000000E+00 0. -1.
         -5    1    5    5    0  502 -0.39372448738E+02  0.76867682769E+01 -0.10917793167E+04  0.10925261747E+04  0.47000000000E+01 0.  1.
         11    1    6    6    0    0 -0.26686755823E+02 -0.11127628914E+02 -0.41895476214E+02  0.50904204038E+02  0.00000000000E+00 0. -1.
        -12    1    6    6    0    0  0.10952732491E+02 -0.32443452977E+02 -0.35328574359E+03  0.35494134250E+03  0.00000000000E+00 0.  1.
</event>
<event>
12    1  0.1066489E+000  0.1872952E+03  0.7818608E-02  0.1161430E+00
         21   -1    0    0  503  502  0.00000000000E+00  0.00000000000E+00  0.29895723656E+03  0.29895723656E+03  0.00000000000E+00 0.  1.
         21   -1    0    0  501  503 -0.00000000000E+00 -0.00000000000E+00 -0.16894005011E+03  0.16894005011E+03  0.00000000000E+00 0.  1.
          6    2    1    2  501    0  0.19973122460E+02 -0.63437917583E+02 -0.66250250506E+02  0.19660338215E+03  0.17274402789E+03 0.  0.
         24    2    3    3    0    0  0.24142347325E+02 -0.27606916371E+02  0.30744004785E+02  0.93011786723E+02  0.79755901808E+02 0.  0.
         -6    2    1    2    0  502 -0.19973122460E+02  0.63437917583E+02  0.19626743695E+03  0.27129390452E+03  0.17508906537E+03 0.  0.
        -24    2    5    5    0    0 -0.12538875694E+02  0.34190012832E+02  0.21791167615E+03  0.23386034942E+03  0.76674533255E+02 0.  0.
          5    1    3    3  501    0 -0.41692248655E+01 -0.35831001212E+02 -0.96994255292E+02  0.10359159543E+03  0.47000000000E+01 0. -1.
        -13    1    4    4    0    0  0.34845152881E+02  0.19149041836E+02  0.12248062739E+02  0.41603912357E+02  0.00000000000E+00 0.  1.
         14    1    4    4    0    0 -0.10702805556E+02 -0.46755958207E+02  0.18495942046E+02  0.51407874366E+02  0.00000000000E+00 0. -1.
         -5    1    5    5    0  502 -0.74342467660E+01  0.29247904750E+02 -0.21644239190E+02  0.37433555100E+02  0.47000000000E+01 0.  1.
         11    1    6    6    0    0 -0.31676651745E+02  0.28990207368E+02  0.55152189809E+02  0.69897113172E+02  0.00000000000E+00 0. -1.
        -12    1    6    6    0    0  0.19137776051E+02  0.51998054645E+01  0.16275948634E+03  0.16396323625E+03  0.00000000000E+00 0.  1.
</event>
<event>
12    1  0.1066489E+000  0.1922444E+03  0.7818608E-02  0.1156930E+00
         21   -1    0    0  503  502  0.00000000000E+00  0.00000000000E+00  0.23358392132E+03  0.23358392132E+03  0.00000000000E+00 0. -1.
         21   -1    0    0  501  503 -0.00000000000E+00 -0.00000000000E+00 -0.15666449320E+03  0.15666449320E+03  0.00000000000E+00 0. -1.
          6    2    1    2  501    0  0.51311736401E+02  0.68319235980E+02  0.31772884144E+02  0.19485234862E+03  0.17221355725E+03 0.  0.
         24    2    3    3    0    0  0.67014102111E+02  0.25974879934E+02  0.75492999988E+02  0.13181944208E+03  0.80694411169E+02 0.  0.
         -6    2    1    2    0  502 -0.51311736401E+02 -0.68319235980E+02  0.45146543967E+02  0.19539606590E+03  0.16982638146E+03 0.  0.
        -24    2    5    5    0    0 -0.19558200525E+01 -0.51006920830E+02  0.86810449367E+02  0.12836104708E+03  0.79592544148E+02 0.  0.
          5    1    3    3  501    0 -0.15702365710E+02  0.42344356046E+02 -0.43720115843E+02  0.63032906543E+02  0.47000000000E+01 0. -1.
        -11    1    4    4    0    0  0.28791215517E+02  0.53378689886E+02  0.47973280470E+02  0.77328224239E+02  0.00000000000E+00 0.  1.
         12    1    4    4    0    0  0.38222886594E+02 -0.27403809952E+02  0.27519719518E+02  0.54491217841E+02  0.00000000000E+00 0. -1.
         -5    1    5    5    0  502 -0.49355916348E+02 -0.17312315150E+02 -0.41663905400E+02  0.67035018816E+02  0.47000000000E+01 0.  1.
         11    1    6    6    0    0  0.28487469659E+02  0.45595777084E+01  0.14732311143E+02  0.32393929494E+02  0.00000000000E+00 0. -1.
        -12    1    6    6    0    0 -0.30443289711E+02 -0.55566498538E+02  0.72078138224E+02  0.95967117588E+02  0.00000000000E+00 0.  1.
</event>
<event>
12    1  0.1066489E+000  0.2749110E+03  0.7818608E-02  0.1098960E+00
         21   -1    0    0  501  502  0.00000000000E+00  0.00000000000E+00  0.63424493276E+03  0.63424493276E+03  0.00000000000E+00 0. -1.
         21   -1    0    0  502  503 -0.00000000000E+00 -0.00000000000E+00 -0.11933967245E+03  0.11933967245E+03  0.00000000000E+00 0. -1.
         -6    2    1    2    0  503 -0.21206100429E+03  0.35434433224E+02  0.30244692703E+03  0.40871775466E+03  0.17132014100E+03 0.  0.
        -24    2    3    3    0    0 -0.79189653236E+02 -0.42072022141E+02  0.15063574652E+03  0.19254474274E+03  0.79632239722E+02 0.  0.
          6    2    1    2  501    0  0.21206100429E+03 -0.35434433224E+02  0.21245833328E+03  0.34486685055E+03  0.16603955140E+03 0.  0.
         24    2    5    5    0    0  0.22311832332E+03 -0.58034757137E+02  0.17699604648E+03  0.30113239354E+03  0.78761022917E+02 0.  0.
          5    1    5    5  501    0 -0.11057319031E+02  0.22600323913E+02  0.35462286795E+02  0.43734457009E+02  0.47000000000E+01 0. -1.
        -11    1    6    6    0    0  0.14424928707E+03 -0.33916544511E+02  0.15776836534E+03  0.21644640426E+03  0.00000000000E+00 0.  1.
         12    1    6    6    0    0  0.78869036244E+02 -0.24118212626E+02  0.19227681139E+02  0.84685989280E+02  0.00000000000E+00 0. -1.
         -5    1    3    3    0  503 -0.13287135105E+03  0.77506455365E+02  0.15181118051E+03  0.21617301192E+03  0.47000000000E+01 0.  1.
         13    1    4    4    0    0 -0.94214838825E+02 -0.30964381388E+02  0.11179649931E+03  0.14944459183E+03  0.00000000000E+00 0. -1.
        -14    1    4    4    0    0  0.15025185590E+02 -0.11107640754E+02  0.38839247209E+02  0.43100150915E+02  0.00000000000E+00 0.  1.
</event>
<event>
12    1  0.1066489E+000  0.2288224E+03  0.7818608E-02  0.1127512E+00
         21   -1    0    0  503  502  0.00000000000E+00  0.00000000000E+00  0.47176824869E+02  0.47176824869E+02  0.00000000000E+00 0.  1.
         21   -1    0    0  501  503 -0.00000000000E+00 -0.00000000000E+00 -0.11124707923E+04  0.11124707923E+04  0.00000000000E+00 0.  1.
          6    2    1    2  501    0  0.52763092788E+02  0.14094272151E+03 -0.49888549914E+03  0.54876445916E+03  0.17206654433E+03 0.  0.
         24    2    3    3    0    0  0.10226275278E+03  0.95744144470E+02 -0.34838347845E+03  0.38394311364E+03  0.80104023944E+02 0.  0.
         -6    2    1    2    0  502 -0.52763092788E+02 -0.14094272151E+03 -0.56640846830E+03  0.61088315802E+03  0.17236845734E+03 0.  0.
        -24    2    5    5    0    0 -0.78082566895E+02 -0.13443102478E+03 -0.32922329032E+03  0.37221523680E+03  0.77379712748E+02 0.  0.
          5    1    3    3  501    0 -0.49499659989E+02  0.45198577038E+02 -0.15050202069E+03  0.16482134551E+03  0.47000000000E+01 0. -1.
        -11    1    4    4    0    0 -0.92449078051E+00  0.35032705502E+02 -0.13280665038E+03  0.13735265386E+03  0.00000000000E+00 0.  1.
         12    1    4    4    0    0  0.10318724356E+03  0.60711438968E+02 -0.21557682807E+03  0.24659045978E+03  0.00000000000E+00 0. -1.
         -5    1    5    5    0  502  0.25319474107E+02 -0.65116967281E+01 -0.23718517799E+03  0.23866792122E+03  0.47000000000E+01 0.  1.
         13    1    6    6    0    0 -0.44919320591E+02 -0.12923189245E+03 -0.28954632724E+03  0.32024319353E+03  0.00000000000E+00 0. -1.
        -14    1    6    6    0    0 -0.33163246304E+02 -0.51991323329E+01 -0.39676963080E+02  0.51972043270E+02  0.00000000000E+00 0.  1.
</event>
<event>
12    1  0.1066489E+000  0.1818154E+03  0.7818608E-02  0.1166222E+00
         21   -1    0    0  501  502  0.00000000000E+00  0.00000000000E+00  0.59341262298E+03  0.59341262298E+03  0.00000000000E+00 0. -1.
         21   -1    0    0  502  503 -0.00000000000E+00 -0.00000000000E+00 -0.72902531357E+02  0.72902531357E+02  0.00000000000E+00 0. -1.
         -6    2    1    2    0  503  0.57853306267E+02  0.39349346758E+01  0.42342151402E+03  0.46080648553E+03  0.17232048578E+03 0.  0.
        -24    2    3    3    0    0  0.63388966686E+02 -0.13113431879E+02  0.12761366674E+03  0.16441879542E+03  0.80982523768E+02 0.  0.
          6    2    1    2  501    0 -0.57853306267E+02 -0.39349346758E+01  0.97088577610E+02  0.20550866881E+03  0.17159583997E+03 0.  0.
         24    2    5    5    0    0  0.34967973139E+02  0.82595994843E+01  0.51836585688E+02  0.10142058425E+03  0.79423693977E+02 0.  0.
          5    1    5    5  501    0 -0.92821279406E+02 -0.12194534160E+02  0.45251991922E+02  0.10408808456E+03  0.47000000000E+01 0. -1.
        -11    1    6    6    0    0  0.49806495909E+02  0.61448907581E+01  0.29309101838E+01  0.50269642446E+02  0.00000000000E+00 0.  1.
         12    1    6    6    0    0 -0.14838522770E+02  0.21147087262E+01  0.48905675504E+02  0.51150941805E+02  0.00000000000E+00 0. -1.
         -5    1    3    3    0  503 -0.55356604195E+01  0.17048366555E+02  0.29580784728E+03  0.29638769011E+03  0.47000000000E+01 0.  1.
         11    1    4    4    0    0  0.47435186785E+02  0.30738547034E+02  0.77762697219E+02  0.96135281234E+02  0.00000000000E+00 0. -1.
        -12    1    4    4    0    0  0.15953779901E+02 -0.43851978912E+02  0.49850969517E+02  0.68283514185E+02  0.00000000000E+00 0.  1.
</event>
<event>
12    1  0.1066489E+000  0.1789146E+03  0.7818608E-02  0.1169340E+00
         21   -1    0    0  501  502  0.00000000000E+00  0.00000000000E+00  0.80297956939E+02  0.80297956939E+02  0.00000000000E+00 0. -1.
         21   -1    0    0  502  503 -0.00000000000E+00 -0.00000000000E+00 -0.39455139189E+03  0.39455139189E+03  0.00000000000E+00 0. -1.
         -6    2    1    2    0  503  0.17037967963E+02 -0.34302615436E+02 -0.15000973142E+03  0.23197813494E+03  0.17275408474E+03 0.  0.
        -24    2    3    3    0    0 -0.44311083544E+02 -0.34919052263E+02 -0.13815830213E+03  0.16931528717E+03  0.79982108528E+02 0.  0.
          6    2    1    2  501    0 -0.17037967963E+02  0.34302615436E+02 -0.16424370354E+03  0.24287121389E+03  0.17476690364E+03 0.  0.
         24    2    5    5    0    0  0.52842036114E+02  0.34597045487E+02 -0.12760298184E+03  0.16382733908E+03  0.81040975544E+02 0.  0.
          5    1    5    5  501    0 -0.69880004077E+02 -0.29443005102E+00 -0.36640721694E+02  0.79043874811E+02  0.47000000000E+01 0. -1.
        -13    1    6    6    0    0  0.34449954175E+02  0.42548937699E+02 -0.13235784087E+03  0.14323340909E+03  0.00000000000E+00 0.  1.
         14    1    6    6    0    0  0.18392081939E+02 -0.79518922119E+01  0.47548590245E+01  0.20593929983E+02  0.00000000000E+00 0. -1.
         -5    1    3    3    0  503  0.61349051507E+02  0.61643682709E+00 -0.11851429283E+02  0.62662847774E+02  0.47000000000E+01 0.  1.
         13    1    4    4    0    0 -0.34204693715E+02 -0.12489247929E+02 -0.13998743018E+03  0.14464585371E+03  0.00000000000E+00 0. -1.
        -14    1    4    4    0    0 -0.10106389829E+02 -0.22429804334E+02  0.18291280479E+01  0.24669433460E+02  0.00000000000E+00 0.  1.
</event>
<event>
12    1  0.1066489E+000  0.1748434E+03  0.7818608E-02  0.1173515E+00
         21   -1    0    0  501  502  0.00000000000E+00  0.00000000000E+00  0.33038411918E+03  0.33038411918E+03  0.00000000000E+00 0.  1.
         21   -1    0    0  502  503 -0.00000000000E+00 -0.00000000000E+00 -0.17198724864E+03  0.17198724864E+03  0.00000000000E+00 0.  1.
         -6    2    1    2    0  503  0.29113823146E+02 -0.11298402297E+02 -0.92627015377E+02  0.19786355860E+03  0.17203184371E+03 0.  0.
        -24    2    3    3    0    0  0.59672928490E+02 -0.22232812688E+02 -0.11805114706E+03  0.15636781518E+03  0.80372034601E+02 0.  0.
          6    2    1    2  501    0 -0.29113823146E+02  0.11298402297E+02  0.25102388591E+03  0.30450780923E+03  0.16951916113E+03 0.  0.
         24    2    5    5    0    0 -0.17142820419E+02 -0.53797428901E+02  0.19307106508E+03  0.21640904881E+03  0.79802259277E+02 0.  0.
          5    1    5    5  501    0 -0.11971002727E+02  0.65095831198E+02  0.57952820831E+02  0.88098760422E+02  0.47000000000E+01 0. -1.
        -13    1    6    6    0    0 -0.23122892727E+02 -0.27773540212E+02  0.20027728226E+02  0.41317642744E+02  0.00000000000E+00 0.  1.
         14    1    6    6    0    0  0.59800723076E+01 -0.26023888689E+02  0.17304333686E+03  0.17509140607E+03  0.00000000000E+00 0. -1.
         -5    1    3    3    0  503 -0.30559105344E+02  0.10934410392E+02  0.25424131684E+02  0.41495743419E+02  0.47000000000E+01 0.  1.
         13    1    4    4    0    0 -0.58950986333E+01  0.19717001590E+02 -0.91837814750E+01  0.22535620288E+02  0.00000000000E+00 0. -1.
        -14    1    4    4    0    0  0.65568027123E+02 -0.41949814279E+02 -0.10886736559E+03  0.13383219489E+03  0.00000000000E+00 0.  1.
</event>
<event>
12    1  0.1066489E+000  0.4210680E+03  0.7818608E-02  0.1036761E+00
         21   -1    0    0  503  502  0.00000000000E+00  0.00000000000E+00  0.11322666211E+04  0.11322666211E+04  0.00000000000E+00 0.  1.
         21   -1    0    0  501  503 -0.00000000000E+00 -0.00000000000E+00 -0.31162348149E+03  0.31162348149E+03  0.00000000000E+00 0.  1.
          6    2    1    2  501    0  0.38419402591E+03 -0.11431703910E+02  0.91997711794E+03  0.10117589487E+04  0.17193760288E+03 0.  0.
         24    2    3    3    0    0  0.22928491708E+03  0.39798086332E+02  0.66701710473E+03  0.71070715630E+03  0.77700599338E+02 0.  0.
         -6    2    1    2    0  502 -0.38419402591E+03  0.11431703910E+02 -0.99333978368E+02  0.43213115389E+03  0.17068790672E+03 0.  0.
        -24    2    5    5    0    0 -0.21534451552E+03  0.60528134409E+02 -0.13924139139E+02  0.23658692031E+03  0.75779771657E+02 0.  0.
          5    1    3    3  501    0  0.15490910883E+03 -0.51229790242E+02  0.25296001321E+03  0.30105179237E+03  0.47000000000E+01 0. -1.
        -11    1    4    4    0    0  0.19351492130E+03  0.56384485503E+02  0.49998708244E+03  0.53908655853E+03  0.00000000000E+00 0.  1.
         12    1    4    4    0    0  0.35769995774E+02 -0.16586399171E+02  0.16703002228E+03  0.17162059777E+03  0.00000000000E+00 0. -1.
         -5    1    5    5    0  502 -0.16884951039E+03 -0.49096430499E+02 -0.85409839228E+02  0.19554423358E+03  0.47000000000E+01 0.  1.
         11    1    6    6    0    0 -0.21647968924E+03  0.50197477195E+02 -0.22161205538E+02  0.22332568505E+03  0.00000000000E+00 0. -1.
        -12    1    6    6    0    0  0.11351737230E+01  0.10330657214E+02  0.82370663993E+01  0.13261235264E+02  0.00000000000E+00 0.  1.
</event>
<event>
12    1  0.1066489E+000  0.1920985E+03  0.7818608E-02  0.1156816E+00
         21   -1    0    0  503  502  0.00000000000E+00  0.00000000000E+00  0.17626327446E+03  0.17626327446E+03  0.00000000000E+00 0. -1.
         21   -1    0    0  501  503 -0.00000000000E+00 -0.00000000000E+00 -0.26280417985E+03  0.26280417985E+03  0.00000000000E+00 0. -1.
          6    2    1    2  501    0  0.63135081730E+02 -0.53391179289E+02 -0.14323263661E+03  0.23877820796E+03  0.17222888212E+03 0.  0.
         24    2    3    3    0    0  0.56993491749E+02 -0.99387547686E+02 -0.13048385047E+03  0.19042527029E+03  0.78163966097E+02 0.  0.
         -6    2    1    2    0  502 -0.63135081730E+02  0.53391179289E+02  0.56691731221E+02  0.20028924635E+03  0.17339311764E+03 0.  0.
        -24    2    5    5    0    0 -0.79656379052E+02  0.24536154439E+02  0.94758938803E+02  0.14952737072E+03  0.80199853575E+02 0.  0.
          5    1    3    3  501    0  0.61415899818E+01  0.45996368397E+02 -0.12748786140E+02  0.48352937669E+02  0.47000000000E+01 0. -1.
        -13    1    4    4    0    0 -0.49481169783E+01 -0.69919474239E+02 -0.65163344597E+02  0.95705162967E+02  0.00000000000E+00 0.  1.
         14    1    4    4    0    0  0.61941608727E+02 -0.29468073446E+02 -0.65320505870E+02  0.94720107324E+02  0.00000000000E+00 0. -1.
         -5    1    5    5    0  502  0.16521297322E+02  0.28855024850E+02 -0.38067207582E+02  0.50761875629E+02  0.47000000000E+01 0.  1.
         13    1    6    6    0    0  0.30751166563E+01  0.22541063408E+02  0.51158277532E+02  0.55988617076E+02  0.00000000000E+00 0. -1.
        -14    1    6    6    0    0 -0.82731495708E+02  0.19950910308E+01  0.43600661272E+02  0.93538753646E+02  0.00000000000E+00 0.  1.
</event>
<event>
12    1  0.1066489E+000  0.4345709E+03  0.7818608E-02  0.1032654E+00
         21   -1    0    0  501  502  0.00000000000E+00  0.00000000000E+00  0.12552150967E+04  0.12552150967E+04  0.00000000000E+00 0. -1.
         21   -1    0    0  502  503 -0.00000000000E+00 -0.00000000000E+00 -0.36989110154E+03  0.36989110154E+03  0.00000000000E+00 0. -1.
         -6    2    1    2    0  503 -0.38924537687E+03  0.72437658257E+02  0.10693452589E+04  0.11531785508E+04  0.17193693523E+03 0.  0.
        -24    2    3    3    0    0 -0.33775438381E+03  0.47872210263E+02  0.10155475892E+04  0.10746224380E+04  0.84301281383E+02 0.  0.
          6    2    1    2  501    0  0.38924537687E+03 -0.72437658257E+02 -0.18402126368E+03  0.47192764743E+03  0.17914435847E+03 0.  0.
         24    2    5    5    0    0  0.28089419037E+03 -0.11799015623E+03 -0.15345673412E+03  0.35039045084E+03  0.80007972362E+02 0.  0.
          5    1    5    5  501    0  0.10835118650E+03  0.45552497972E+02 -0.30564529557E+02  0.12153719659E+03  0.47000000000E+01 0. -1.
        -11    1    6    6    0    0  0.27883887500E+03 -0.11382470232E+03 -0.13269010136E+03  0.32911068665E+03  0.00000000000E+00 0.  1.
         12    1    6    6    0    0  0.20553153664E+01 -0.41654539118E+01 -0.20766632761E+02  0.21279764185E+02  0.00000000000E+00 0. -1.
         -5    1    3    3    0  503 -0.51490993061E+02  0.24565447995E+02  0.53797669686E+02  0.78556112844E+02  0.47000000000E+01 0.  1.
         13    1    4    4    0    0 -0.24743330002E+02 -0.18841172922E+02  0.78998440268E+02  0.84899798242E+02  0.00000000000E+00 0. -1.
        -14    1    4    4    0    0 -0.31301105380E+03  0.66713383185E+02  0.93654914892E+03  0.98972263975E+03  0.00000000000E+00 0.  1.
</event>
<event>
12    1  0.1066489E+000  0.2572573E+03  0.7818608E-02  0.1110385E+00
         21   -1    0    0  501  502  0.00000000000E+00  0.00000000000E+00  0.68260725521E+02  0.68260725521E+02  0.00000000000E+00 0. -1.
         21   -1    0    0  502  503 -0.00000000000E+00 -0.00000000000E+00 -0.10180600058E+04  0.10180600058E+04  0.00000000000E+00 0. -1.
         -6    2    1    2    0  503 -0.31509098333E+01  0.17988736766E+03 -0.32538147560E+03  0.41479445215E+03  0.18388023166E+03 0.  0.
        -24    2    3    3    0    0 -0.65457844909E+02  0.66702771393E+02 -0.10920003512E+03  0.16290278457E+03  0.76672552961E+02 0.  0.
          6    2    1    2  501    0  0.31509098333E+01 -0.17988736766E+03 -0.62441780472E+03  0.67152627921E+03  0.16935334524E+03 0.  0.
         24    2    5    5    0    0  0.67350793989E+02 -0.10032682620E+03 -0.34885307311E+03  0.37757132316E+03  0.79120388928E+02 0.  0.
          5    1    5    5  501    0 -0.64199884156E+02 -0.79560541459E+02 -0.27556473160E+03  0.29395495605E+03  0.47000000000E+01 0. -1.
        -13    1    6    6    0    0 -0.13534029546E+02  0.19372765842E+01 -0.41892895015E+02  0.44067421629E+02  0.00000000000E+00 0.  1.
         14    1    6    6    0    0  0.80884823535E+02 -0.10226410278E+03 -0.30696017810E+03  0.33350390153E+03  0.00000000000E+00 0. -1.
         -5    1    3    3    0  503  0.62306935075E+02  0.11318459627E+03 -0.21618144048E+03  0.25189166758E+03  0.47000000000E+01 0.  1.
         13    1    4    4    0    0  0.31850353721E+01 -0.59635816299E+00  0.95704127635E+01  0.10104102822E+02  0.00000000000E+00 0. -1.
        -14    1    4    4    0    0 -0.68642880281E+02  0.67299129556E+02 -0.11877044788E+03  0.15279868174E+03  0.00000000000E+00 0.  1.
</event>
<event>
12    1  0.1066489E+000  0.1984816E+03  0.7818608E-02  0.1151417E+00
         21   -1    0    0  501  502  0.00000000000E+00  0.00000000000E+00  0.10260416196E+03  0.10260416196E+03  0.00000000000E+00 0.  1.
         21   -1    0    0  502  503 -0.00000000000E+00 -0.00000000000E+00 -0.38464056964E+03  0.38464056964E+03  0.00000000000E+00 0.  1.
         -6    2    1    2    0  503 -0.89611161280E+02 -0.35339095494E+02 -0.11489404476E+03  0.22776157347E+03  0.17145168688E+03 0.  0.
        -24    2    3    3    0    0 -0.70307022924E+02  0.44112793630E+02 -0.52672224121E+02  0.12490780637E+03  0.77062188296E+02 0.  0.
          6    2    1    2  501    0  0.89611161280E+02  0.35339095494E+02 -0.16714236292E+03  0.25948315813E+03  0.17353941332E+03 0.  0.
         24    2    5    5    0    0  0.19144467256E+01  0.29297505427E+02 -0.14943476887E+03  0.16968970937E+03  0.74845429969E+02 0.  0.
          5    1    5    5  501    0  0.87696714554E+02  0.60415900670E+01 -0.17707594049E+02  0.89793448765E+02  0.47000000000E+01 0. -1.
        -11    1    6    6    0    0 -0.34544088114E+02  0.50864757600E+01 -0.49338254842E+02  0.60443607190E+02  0.00000000000E+00 0.  1.
         12    1    6    6    0    0  0.36458534840E+02  0.24211029667E+02 -0.10009651403E+03  0.10924610218E+03  0.00000000000E+00 0. -1.
         -5    1    3    3    0  503 -0.19304138356E+02 -0.79451889124E+02 -0.62221820635E+02  0.10285376710E+03  0.47000000000E+01 0.  1.
         11    1    4    4    0    0 -0.12346842387E+02 -0.13517324728E+02 -0.37564595626E+02  0.41788292969E+02  0.00000000000E+00 0. -1.
        -12    1    4    4    0    0 -0.57960180537E+02  0.57630118358E+02 -0.15107628494E+02  0.83119513404E+02  0.00000000000E+00 0.  1.
</event>
<event>
12    1  0.1066489E+000  0.1856746E+03  0.7818608E-02  0.1162509E+00
         21   -1    0    0  503  502  0.00000000000E+00  0.00000000000E+00  0.32978481750E+03  0.32978481750E+03  0.00000000000E+00 0.  1.
         21   -1    0    0  501  503 -0.00000000000E+00 -0.00000000000E+00 -0.10457324408E+03  0.10457324408E+03  0.00000000000E+00 0.  1.
          6    2    1    2  501    0  0.54215753995E+02  0.54790276021E+02  0.10192775314E+03  0.21148147824E+03  0.16850467783E+03 0.  0.
         24    2    3    3    0    0  0.13669558593E+02  0.20402109771E+02  0.13547928656E+02  0.10823602645E+03  0.10453893119E+03 0.  0.
         -6    2    1    2    0  502 -0.54215753995E+02 -0.54790276021E+02  0.12328382028E+03  0.22287658334E+03  0.16891935570E+03 0.  0.
        -24    2    5    5    0    0 -0.40636324728E+02 -0.49896456999E+02  0.27891025674E+01  0.10142940404E+03  0.78352904236E+02 0.  0.
          5    1    3    3  501    0  0.40546195402E+02  0.34388166250E+02  0.88379824482E+02  0.10324545179E+03  0.47000000000E+01 0. -1.
        -11    1    4    4    0    0 -0.31516350491E+02  0.75553208213E+01  0.42201523989E+02  0.53210260740E+02  0.00000000000E+00 0.  1.
         12    1    4    4    0    0  0.45185909084E+02  0.12846788950E+02 -0.28653595333E+02  0.55025765707E+02  0.00000000000E+00 0. -1.
         -5    1    5    5    0  502 -0.13579429267E+02 -0.48938190221E+01  0.12049471771E+03  0.12144717930E+03  0.47000000000E+01 0.  1.
         11    1    6    6    0    0 -0.52069862753E+01 -0.84084542641E+01  0.36151459151E+02  0.37479898718E+02  0.00000000000E+00 0. -1.
        -12    1    6    6    0    0 -0.35429338452E+02 -0.41488002735E+02 -0.33362356583E+02  0.63949505321E+02  0.00000000000E+00 0.  1.
</event>
<event>
12    1  0.1066489E+000  0.2197398E+03  0.7818608E-02  0.1134306E+00
         21   -1    0    0  503  502  0.00000000000E+00  0.00000000000E+00  0.53839660029E+03  0.53839660029E+03  0.00000000000E+00 0.  1.
         21   -1    0    0  501  503 -0.00000000000E+00 -0.00000000000E+00 -0.15153280838E+03  0.15153280838E+03  0.00000000000E+00 0.  1.
          6    2    1    2  501    0  0.11342479605E+03  0.72350476491E+02  0.41502092824E+03  0.46960403114E+03  0.17374060947E+03 0.  0.
         24    2    3    3    0    0  0.45391575696E+02 -0.31887212627E+02  0.20474206129E+03  0.22520004838E+03  0.75621165395E+02 0.  0.
         -6    2    1    2    0  502 -0.11342479605E+03 -0.72350476491E+02 -0.28157136328E+02  0.22032537753E+03  0.17219370445E+03 0.  0.
        -24    2    5    5    0    0 -0.90061293545E+02 -0.11483048712E+03 -0.81841823773E+01  0.16768116188E+03  0.82176114776E+02 0.  0.
          5    1    3    3  501    0  0.68033220357E+02  0.10423768912E+03  0.21027886695E+03  0.24440398276E+03  0.47000000000E+01 0. -1.
        -11    1    4    4    0    0  0.50038139275E+02 -0.42602311577E+02  0.99072739681E+02  0.11888725786E+03  0.00000000000E+00 0.  1.
         12    1    4    4    0    0 -0.46465635787E+01  0.10715098950E+02  0.10566932161E+03  0.10631279052E+03  0.00000000000E+00 0. -1.
         -5    1    5    5    0  502 -0.23363502508E+02  0.42480010631E+02 -0.19972953951E+02  0.52644215657E+02  0.47000000000E+01 0.  1.
         13    1    6    6    0    0 -0.52523843589E+02 -0.68007614636E+02 -0.45280341228E+02  0.97129290616E+02  0.00000000000E+00 0. -1.
        -14    1    6    6    0    0 -0.37537449956E+02 -0.46822872486E+02  0.37096158850E+02  0.70551871261E+02  0.00000000000E+00 0.  1.
</event>
<event>
12    1  0.1066489E+000  0.2810185E+03  0.7818608E-02  0.1095363E+00
         21   -1    0    0  503  502  0.00000000000E+00  0.00000000000E+00  0.19610355927E+03  0.19610355927E+03  0.00000000000E+00 0. -1.
         21   -1    0    0  501  503 -0.00000000000E+00 -0.00000000000E+00 -0.17763767536E+04  0.17763767536E+04  0.00000000000E+00 0. -1.
          6    2    1    2  501    0  0.15586910767E+03 -0.15710047556E+03  0.78432210741E+02  0.29013819647E+03  0.17044888741E+03 0.  0.
         24    2    3    3    0    0  0.57593395542E+02 -0.33157383880E+01  0.15354781131E+02  0.96983561245E+02  0.76433294558E+02 0.  0.
         -6    2    1    2    0  502 -0.15586910767E+03  0.15710047556E+03 -0.16587054050E+04  0.16823421164E+04  0.17319248728E+03 0.  0.
        -24    2    5    5    0    0 -0.68320167318E+02 -0.39277475409E+00 -0.56291162777E+03  0.57182195304E+03  0.73777000255E+02 0.  0.
          5    1    3    3  501    0  0.98275712130E+02 -0.15378473718E+03  0.63077429609E+02  0.19315463523E+03  0.47000000000E+01 0. -1.
        -11    1    4    4    0    0  0.11250114847E+02 -0.31783940515E+02  0.24702828800E+02  0.41797293088E+02  0.00000000000E+00 0.  1.
         12    1    4    4    0    0  0.46343280695E+02  0.28468202127E+02 -0.93480476688E+01  0.55186268157E+02  0.00000000000E+00 0. -1.
         -5    1    5    5    0  502 -0.87548940355E+02  0.15749325032E+03 -0.10957937773E+04  0.11105201633E+04  0.47000000000E+01 0.  1.
         11    1    6    6    0    0 -0.29964382950E+02 -0.43175636015E+01 -0.57866596801E+02  0.65307339759E+02  0.00000000000E+00 0. -1.
        -12    1    6    6    0    0 -0.38355784367E+02  0.39247888474E+01 -0.50504503097E+03  0.50651461328E+03  0.00000000000E+00 0.  1.
</event>
<event>
12    1  0.1066489E+000  0.2740268E+03  0.7818608E-02  0.1099091E+00
         21   -1    0    0  503  502  0.00000000000E+00  0.00000000000E+00  0.29345786843E+03  0.29345786843E+03  0.00000000000E+00 0. -1.
         21   -1    0    0  501  503 -0.00000000000E+00 -0.00000000000E+00 -0.25781485930E+03  0.25781485930E+03  0.00000000000E+00 0. -1.
          6    2    1    2  501    0 -0.18979130227E+03  0.96150257834E+02 -0.95995474828E+01  0.27419492618E+03  0.17269943756E+03 0.  0.
         24    2    3    3    0    0 -0.37759678155E+02 -0.68164214694E+01  0.14574865392E+02  0.88932290943E+02  0.78894035105E+02 0.  0.
         -6    2    1    2    0  502  0.18979130227E+03 -0.96150257834E+02  0.45242556610E+02  0.27707780155E+03  0.17163801643E+03 0.  0.
        -24    2    5    5    0    0  0.77498958857E+02 -0.10915255046E+03  0.16353672340E+01  0.15582473162E+03  0.79738978307E+02 0.  0.
          5    1    3    3  501    0 -0.15203162411E+03  0.10296667930E+03 -0.24174412875E+02  0.18526263524E+03  0.47000000000E+01 0. -1.
        -13    1    4    4    0    0 -0.17032926269E+02  0.18322265839E+02  0.40290435990E+02  0.47425154032E+02  0.00000000000E+00 0.  1.
         14    1    4    4    0    0 -0.20726751886E+02 -0.25138687308E+02 -0.25715570598E+02  0.41507136911E+02  0.00000000000E+00 0. -1.
         -5    1    5    5    0  502  0.11229234341E+03  0.13002292628E+02  0.43607189376E+02  0.12125306993E+03  0.47000000000E+01 0.  1.
         13    1    6    6    0    0 -0.16236223796E+02 -0.10866979436E+02  0.41981451065E+01  0.19983258682E+02  0.00000000000E+00 0. -1.
        -14    1    6    6    0    0  0.93735182653E+02 -0.98285571026E+02 -0.25627778725E+01  0.13584147294E+03  0.00000000000E+00 0.  1.
</event>
<event>
12    1  0.1066489E+000  0.4172394E+03  0.7818608E-02  0.1038129E+00
         21   -1    0    0  501  502  0.00000000000E+00  0.00000000000E+00  0.26905647481E+03  0.26905647481E+03  0.00000000000E+00 0.  1.
         21   -1    0    0  502  503 -0.00000000000E+00 -0.00000000000E+00 -0.86426673212E+03  0.86426673212E+03  0.00000000000E+00 0.  1.
         -6    2    1    2    0  503 -0.36354813788E+03  0.11229011788E+03 -0.12059792925E+02  0.41741366834E+03  0.17120868197E+03 0.  0.
        -24    2    3    3    0    0 -0.22975932577E+03  0.13890576697E+03 -0.21352650271E+02  0.28060618967E+03  0.78738415872E+02 0.  0.
          6    2    1    2  501    0  0.36354813788E+03 -0.11229011788E+03 -0.58315046438E+03  0.71590953859E+03  0.16639015659E+03 0.  0.
         24    2    5    5    0    0  0.15503301267E+03 -0.95206888005E+02 -0.21667988035E+03  0.29389867008E+03  0.79540374551E+02 0.  0.
          5    1    5    5  501    0  0.20851512521E+03 -0.17083229879E+02 -0.36647058403E+03  0.42201086851E+03  0.47000000000E+01 0. -1.
        -13    1    6    6    0    0  0.91832206891E+02 -0.97954388249E+02 -0.16084799649E+03  0.20952397089E+03  0.00000000000E+00 0.  1.
         14    1    6    6    0    0  0.63200805782E+02  0.27475002440E+01 -0.55831883859E+02  0.84374699195E+02  0.00000000000E+00 0. -1.
         -5    1    3    3    0  503 -0.13378881211E+03 -0.26615649084E+02  0.92928573467E+01  0.13680747867E+03  0.47000000000E+01 0.  1.
         11    1    4    4    0    0 -0.21345448815E+03  0.96298108761E+02 -0.17659785248E+02  0.23483613921E+03  0.00000000000E+00 0. -1.
        -12    1    4    4    0    0 -0.16304837621E+02  0.42607658207E+02 -0.36928650229E+01  0.45770050467E+02  0.00000000000E+00 0.  1.
</event>
<event>
12    1  0.1066489E+000  0.1793388E+03  0.7818608E-02  0.1168645E+00
         21   -1    0    0  503  502  0.00000000000E+00  0.00000000000E+00  0.17715915825E+03  0.17715915825E+03  0.00000000000E+00 0.  1.
         21   -1    0    0  501  503 -0.00000000000E+00 -0.00000000000E+00 -0.48508724317E+03  0.48508724317E+03  0.00000000000E+00 0.  1.
          6    2    1    2  501    0  0.29035174097E+02  0.44227220847E+02  0.10845865701E+03  0.20888084706E+03  0.17049586385E+03 0.  0.
         24    2    3    3    0    0 -0.27540238497E+02  0.29172173925E+02  0.15895964005E+02  0.99257063672E+02  0.89385695439E+02 0.  0.
         -6    2    1    2    0  502 -0.29035174097E+02 -0.44227220847E+02 -0.41638674193E+03  0.45336555437E+03  0.17135728356E+03 0.  0.
        -24    2    5    5    0    0 -0.41720878848E+02 -0.37456880241E+02 -0.11118025877E+03  0.14778438351E+03  0.79596007813E+02 0.  0.
          5    1    3    3  501    0  0.56575412595E+02  0.15055046922E+02  0.92562693008E+02  0.10962378339E+03  0.47000000000E+01 0. -1.
        -13    1    4    4    0    0 -0.49287888813E+02  0.31358079529E+02  0.36775718912E+02  0.69029549012E+02  0.00000000000E+00 0.  1.
         14    1    4    4    0    0  0.21747650316E+02 -0.21859056036E+01 -0.20879754907E+02  0.30227514660E+02  0.00000000000E+00 0. -1.
         -5    1    5    5    0  502  0.12685704751E+02 -0.67703406063E+01 -0.30520648316E+03  0.30558117085E+03  0.47000000000E+01 0.  1.
         11    1    6    6    0    0 -0.11415805128E+02 -0.15422412219E+02 -0.10853961543E+03  0.11022259080E+03  0.00000000000E+00 0. -1.
        -12    1    6    6    0    0 -0.30305073720E+02 -0.22034468022E+02 -0.26406433415E+01  0.37561792708E+02  0.00000000000E+00 0.  1.
</event>
<event>
12    1  0.1066489E+000  0.2474761E+03  0.7818608E-02  0.1114958E+00
         21   -1    0    0  503  502  0.00000000000E+00  0.00000000000E+00  0.63245327393E+03  0.63245327393E+03  0.00000000000E+00 0.  1.
         21   -1    0    0  501  503 -0.00000000000E+00 -0.00000000000E+00 -0.10021702858E+03  0.10021702858E+03  0.00000000000E+00 0.  1.
          6    2    1    2  501    0  0.13036647031E+03 -0.12191407931E+03  0.33469451477E+03  0.41625091915E+03  0.17142330694E+03 0.  0.
         24    2    3    3    0    0  0.15966282873E+03 -0.89838926291E+02  0.24270325042E+03  0.31440999037E+03  0.79909465809E+02 0.  0.
         -6    2    1    2    0  502 -0.13036647031E+03  0.12191407931E+03  0.19754173058E+03  0.31641938336E+03  0.17099716819E+03 0.  0.
        -24    2    5    5    0    0 -0.66842311740E+02  0.14624690765E+03  0.15317245559E+03  0.23506750679E+03  0.77064122423E+02 0.  0.
          5    1    3    3  501    0 -0.29296358422E+02 -0.32075153020E+02  0.91991264345E+02  0.10184092878E+03  0.47000000000E+01 0. -1.
        -13    1    4    4    0    0  0.22859094277E+02  0.11919235204E+02  0.14598837493E+02  0.29626549161E+02  0.00000000000E+00 0.  1.
         14    1    4    4    0    0  0.13680373445E+03 -0.10175816150E+03  0.22810441293E+03  0.28478344121E+03  0.00000000000E+00 0. -1.
         -5    1    5    5    0  502 -0.63524158571E+02 -0.24332828335E+02  0.44369274997E+02  0.81351876565E+02  0.47000000000E+01 0.  1.
         13    1    6    6    0    0  0.14769838953E+02  0.36021658220E+02  0.19465442077E+02  0.43527134512E+02  0.00000000000E+00 0. -1.
        -14    1    6    6    0    0 -0.81612150693E+02  0.11022524943E+03  0.13370701351E+03  0.19154037228E+03  0.00000000000E+00 0.  1.
</event>
<event>
12    1  0.1066489E+000  0.2304379E+03  0.7818608E-02  0.1126950E+00
         21   -1    0    0  503  502  0.00000000000E+00  0.00000000000E+00  0.62823945903E+03  0.62823945903E+03  0.00000000000E+00 0.  1.
         21   -1    0    0  501  503 -0.00000000000E+00 -0.00000000000E+00 -0.17100553718E+03  0.17100553718E+03  0.00000000000E+00 0.  1.
          6    2    1    2  501    0  0.12992501802E+03  0.82451546240E+02  0.51573925870E+03  0.56487930103E+03  0.17153097091E+03 0.  0.
         24    2    3    3    0    0  0.16032397758E+03  0.87516204792E+02  0.43693193329E+03  0.48013007067E+03  0.79072792687E+02 0.  0.
         -6    2    1    2    0  502 -0.12992501802E+03 -0.82451546240E+02 -0.58505336858E+02  0.23436569518E+03  0.16681018211E+03 0.  0.
        -24    2    5    5    0    0  0.14958693786E+01 -0.53543391521E+02 -0.35789944601E+02  0.97818230547E+02  0.73609467408E+02 0.  0.
          5    1    3    3  501    0 -0.30398959557E+02 -0.50646585517E+01  0.78807325408E+02  0.84749230359E+02  0.47000000000E+01 0. -1.
        -13    1    4    4    0    0  0.50148391039E+01  0.31574202777E+02  0.48654962583E+02  0.58218418702E+02  0.00000000000E+00 0.  1.
         14    1    4    4    0    0  0.15530913847E+03  0.55942002015E+02  0.38827697071E+03  0.42191165197E+03  0.00000000000E+00 0. -1.
         -5    1    5    5    0  502 -0.13142088740E+03 -0.28908154719E+02 -0.22715392257E+02  0.13654746464E+03  0.47000000000E+01 0.  1.
         13    1    6    6    0    0 -0.23799016430E+02 -0.59925220273E+02 -0.29903065918E+02  0.71074739247E+02  0.00000000000E+00 0. -1.
        -14    1    6    6    0    0  0.25294885809E+02  0.63818287515E+01 -0.58868786835E+01  0.26743491300E+02  0.00000000000E+00 0.  1.
</event>
<event>
12    1  0.1066489E+000  0.1823346E+03  0.7818608E-02  0.1165781E+00
         21   -1    0    0  503  502  0.00000000000E+00  0.00000000000E+00  0.62863978347E+03  0.62863978347E+03  0.00000000000E+00 0.  1.
         21   -1    0    0  501  503 -0.00000000000E+00 -0.00000000000E+00 -0.67692865514E+02  0.67692865514E+02  0.00000000000E+00 0.  1.
          6    2    1    2  501    0 -0.42144171004E+01 -0.57141237265E+02  0.11673304123E+03  0.21650059826E+03  0.17309830682E+03 0.  0.
         24    2    3    3    0    0  0.55269154788E+02 -0.40077960687E+02  0.28734492384E+02  0.10881919164E+03  0.79718398209E+02 0.  0.
         -6    2    1    2    0  502  0.42144171004E+01  0.57141237265E+02  0.44421387673E+03  0.47983205073E+03  0.17213351306E+03 0.  0.
        -24    2    5    5    0    0 -0.60885122001E+01  0.55103364625E+02  0.11124537925E+03  0.14666480505E+03  0.77856148523E+02 0.  0.
          5    1    3    3  501    0 -0.59483571889E+02 -0.17063276579E+02  0.87998548844E+02  0.10768140662E+03  0.47000000000E+01 0. -1.
        -11    1    4    4    0    0  0.17919364540E+01  0.93673299233E+01 -0.19330947929E+02  0.21555589854E+02  0.00000000000E+00 0.  1.
         12    1    4    4    0    0  0.53477218334E+02 -0.49445290610E+02  0.48065440313E+02  0.87263601786E+02  0.00000000000E+00 0. -1.
         -5    1    5    5    0  502  0.10302929301E+02  0.20378726407E+01  0.33296849748E+03  0.33316724568E+03  0.47000000000E+01 0.  1.
         11    1    6    6    0    0  0.11103663443E+02  0.47667487688E+02  0.11720051123E+03  0.12700960813E+03  0.00000000000E+00 0. -1.
        -12    1    6    6    0    0 -0.17192175643E+02  0.74358769366E+01 -0.59551319812E+01  0.19655196923E+02  0.00000000000E+00 0.  1.
</event>
<event>
12    1  0.1066489E+000  0.3537227E+03  0.7818608E-02  0.1061161E+00
         21   -1    0    0  503  502  0.00000000000E+00  0.00000000000E+00  0.32106973232E+03  0.32106973232E+03  0.00000000000E+00 0. -1.
         21   -1    0    0  501  503 -0.00000000000E+00 -0.00000000000E+00 -0.39534257301E+03  0.39534257301E+03  0.00000000000E+00 0.  1.
          6    2    1    2  501    0 -0.25633982677E+03 -0.17276142638E+03  0.81707209691E+01  0.35381710143E+03  0.17193941768E+03 0.  0.
         24    2    3    3    0    0 -0.14671846071E+03 -0.53549231366E+02  0.57739284999E+02  0.18438415340E+03  0.79182473452E+02 0.  0.
         -6    2    1    2    0  502  0.25633982677E+03  0.17276142638E+03 -0.82443561658E+02  0.36259520390E+03  0.17065088279E+03 0.  0.
        -24    2    5    5    0    0  0.44439167138E+02  0.26133263112E+02 -0.97699557554E+01  0.94816842543E+02  0.78974645156E+02 0.  0.
          5    1    3    3  501    0 -0.10962136606E+03 -0.11921219502E+03 -0.49568564030E+02  0.16943294803E+03  0.47000000000E+01 0. -1.
        -11    1    4    4    0    0 -0.54336515586E+02 -0.24691543413E+02 -0.17049241935E+02  0.62070974640E+02  0.00000000000E+00 0.  1.
         12    1    4    4    0    0 -0.92381945122E+02 -0.28857687953E+02  0.74788526934E+02  0.12231317877E+03  0.00000000000E+00 0. -1.
         -5    1    5    5    0  502  0.21190065963E+03  0.14662816327E+03 -0.72673605902E+02  0.26777836136E+03  0.47000000000E+01 0.  1.
         13    1    6    6    0    0  0.38048531620E+02  0.53136036375E+02  0.13299491236E+00  0.65354011413E+02  0.00000000000E+00 0. -1.
        -14    1    6    6    0    0  0.63906355179E+01 -0.27002773263E+02 -0.99029506678E+01  0.29462831130E+02  0.00000000000E+00 0.  1.
</event>
<event>
12    1  0.1066489E+000  0.2466953E+03  0.7818608E-02  0.1116270E+00
         21   -1    0    0  501  502  0.00000000000E+00  0.00000000000E+00  0.13190621797E+04  0.13190621797E+04  0.00000000000E+00 0. -1.
         21   -1    0    0  502  503 -0.00000000000E+00 -0.00000000000E+00 -0.46963283651E+02  0.46963283651E+02  0.00000000000E+00 0.  1.
         -6    2    1    2    0  503  0.11790712981E+03  0.12195115146E+03  0.49544246642E+03  0.55113050139E+03  0.17177723198E+03 0.  0.
        -24    2    3    3    0    0  0.39700231462E+02  0.81484334813E+02  0.40982302423E+03  0.42822134356E+03  0.84869327135E+02 0.  0.
          6    2    1    2  501    0 -0.11790712981E+03 -0.12195115146E+03  0.77665642964E+03  0.81489496197E+03  0.17912122918E+03 0.  0.
         24    2    5    5    0    0 -0.15121308593E+02 -0.48754364866E+02  0.17247554517E+03  0.19765973471E+03  0.81950686254E+02 0.  0.
          5    1    5    5  501    0 -0.10278582122E+03 -0.73196786591E+02  0.60418088446E+03  0.61723522725E+03  0.47000000000E+01 0. -1.
        -13    1    6    6    0    0 -0.40568011130E+02 -0.13767854316E+02  0.41190637889E+02  0.59430513958E+02  0.00000000000E+00 0.  1.
         14    1    6    6    0    0  0.25446702537E+02 -0.34986510550E+02  0.13128490728E+03  0.13822922076E+03  0.00000000000E+00 0. -1.
         -5    1    3    3    0  503  0.78206898351E+02  0.40466816644E+02  0.85619442187E+02  0.12290915783E+03  0.47000000000E+01 0.  1.
         13    1    4    4    0    0  0.38710076712E+02  0.94776814217E+02  0.39599546087E+03  0.40901530483E+03  0.00000000000E+00 0. -1.
        -14    1    4    4    0    0  0.99015475012E+00 -0.13292479405E+02  0.13827563359E+02  0.19206038728E+02  0.00000000000E+00 0.  1.
</event>
<event>
12    1  0.1066489E+000  0.6398882E+03  0.7818608E-02  0.9826067E-01
         21   -1    0    0  503  502  0.00000000000E+00  0.00000000000E+00  0.13230298070E+04  0.13230298070E+04  0.00000000000E+00 0. -1.
         21   -1    0    0  501  503 -0.00000000000E+00 -0.00000000000E+00 -0.49302583441E+03  0.49302583441E+03  0.00000000000E+00 0.  1.
          6    2    1    2  501    0 -0.59639122823E+03 -0.15379973088E+03  0.96916936291E+03  0.11612091820E+04  0.17257072747E+03 0.  0.
         24    2    3    3    0    0 -0.43348500639E+03 -0.12577684474E+03  0.81185623918E+03  0.93296977224E+03  0.87137692035E+02 0.  0.
         -6    2    1    2    0  502  0.59639122823E+03  0.15379973088E+03 -0.13916539033E+03  0.65484645943E+03  0.17355121788E+03 0.  0.
        -24    2    5    5    0    0  0.45413640802E+03  0.92484033937E+02 -0.16311229580E+03  0.49802939133E+03  0.81452317117E+02 0.  0.
          5    1    3    3  501    0 -0.16290622184E+03 -0.28022886147E+02  0.15731312373E+03  0.22823940974E+03  0.47000000000E+01 0. -1.
        -11    1    4    4    0    0 -0.24917854401E+02  0.48493378431E+01  0.19688035168E+02  0.32125290259E+02  0.00000000000E+00 0.  1.
         12    1    4    4    0    0 -0.40856715199E+03 -0.13062618258E+03  0.79216820401E+03  0.90084448198E+03  0.00000000000E+00 0. -1.
         -5    1    5    5    0  502  0.14225482021E+03  0.61315696947E+02  0.23946905470E+02  0.15681706810E+03  0.47000000000E+01 0.  1.
         11    1    6    6    0    0  0.36622102428E+03  0.46704312703E+02 -0.10820704341E+03  0.38471794304E+03  0.00000000000E+00 0. -1.
        -12    1    6    6    0    0  0.87915383739E+02  0.45779721234E+02 -0.54905252387E+02  0.11331144829E+03  0.00000000000E+00 0.  1.
</event>
<event>
12    1  0.1066489E+000  0.2043964E+03  0.7818608E-02  0.1146245E+00
         21   -1    0    0  501  502  0.00000000000E+00  0.00000000000E+00  0.17392974985E+03  0.17392974985E+03  0.00000000000E+00 0.  1.
         21   -1    0    0  502  503 -0.00000000000E+00 -0.00000000000E+00 -0.55229418205E+03  0.55229418205E+03  0.00000000000E+00 0.  1.
         -6    2    1    2    0  503 -0.29413426833E+02  0.10607454479E+03  0.84342502506E+02  0.22038245714E+03  0.17128283905E+03 0.  0.
        -24    2    3    3    0    0  0.21840209166E+02  0.12447405869E+03  0.66076001436E+02  0.16275232286E+03  0.78431464392E+02 0.  0.
          6    2    1    2  501    0  0.29413426833E+02 -0.10607454479E+03 -0.46270693471E+03  0.50584147476E+03  0.17222349268E+03 0.  0.
         24    2    5    5    0    0  0.41059683277E+02 -0.13356678953E+03 -0.43777127272E+03  0.46665811032E+03  0.81241121682E+02 0.  0.
          5    1    5    5  501    0 -0.11646256445E+02  0.27492244741E+02 -0.24935661984E+02  0.39183364437E+02  0.47000000000E+01 0. -1.
        -13    1    6    6    0    0  0.22746564888E+00 -0.10580520945E+03 -0.35342089916E+03  0.36891886107E+03  0.00000000000E+00 0.  1.
         14    1    6    6    0    0  0.40832217628E+02 -0.27761580080E+02 -0.84350373564E+02  0.97739249257E+02  0.00000000000E+00 0. -1.
         -5    1    3    3    0  503 -0.51253635998E+02 -0.18399513909E+02  0.18266501070E+02  0.57630134274E+02  0.47000000000E+01 0.  1.
         13    1    4    4    0    0  0.44314598755E+02  0.36992244372E+02  0.18204266506E+02  0.60527721959E+02  0.00000000000E+00 0. -1.
        -14    1    4    4    0    0 -0.22474389589E+02  0.87481814322E+02  0.47871734930E+02  0.10222460090E+03  0.00000000000E+00 0.  1.
</event>
<event>
12    1  0.1066489E+000  0.2599949E+03  0.7818608E-02  0.1107449E+00
         21   -1    0    0  501  502  0.00000000000E+00  0.00000000000E+00  0.23385304432E+03  0.23385304432E+03  0.00000000000E+00 0.  1.
         21   -1    0    0  502  503 -0.00000000000E+00 -0.00000000000E+00 -0.12114315049E+04  0.12114315049E+04  0.00000000000E+00 0.  1.
         -6    2    1    2    0  503 -0.10424991566E+03 -0.16628349843E+03 -0.11205600401E+04  0.11503269789E+04  0.17052597459E+03 0.  0.
        -24    2    3    3    0    0 -0.90332291667E+02 -0.13860234884E+03 -0.57039974535E+03  0.59927490669E+03  0.80025060261E+02 0.  0.
          6    2    1    2  501    0  0.10424991566E+03  0.16628349843E+03  0.14298157952E+03  0.29495757039E+03  0.16744548212E+03 0.  0.
         24    2    5    5    0    0  0.10323751069E+03  0.82402235538E+02  0.14150137057E+03  0.21092559881E+03  0.83778626904E+02 0.  0.
          5    1    5    5  501    0  0.10124049688E+01  0.83881262890E+02  0.14802089490E+01  0.84031971573E+02  0.47000000000E+01 0. -1.
        -11    1    6    6    0    0  0.72996399990E+01  0.54667365133E+02  0.64199316952E+02  0.84636622403E+02  0.00000000000E+00 0.  1.
         12    1    6    6    0    0  0.95937870688E+02  0.27734870404E+02  0.77302053623E+02  0.12628897641E+03  0.00000000000E+00 0. -1.
         -5    1    3    3    0  503 -0.13917623989E+02 -0.27681149589E+02 -0.55016029477E+03  0.55105207217E+03  0.47000000000E+01 0.  1.
         13    1    4    4    0    0 -0.84722485022E+02 -0.14930368338E+03 -0.53016732060E+03  0.55726733008E+03  0.00000000000E+00 0. -1.
        -14    1    4    4    0    0 -0.56098066458E+01  0.10701334540E+02 -0.40232424754E+02  0.42007576616E+02  0.00000000000E+00 0.  1.
</event>
<event>
12    1  0.1066489E+000  0.1993185E+03  0.7818608E-02  0.1150387E+00
         21   -1    0    0  503  502  0.00000000000E+00  0.00000000000E+00  0.30655427816E+03  0.30655427816E+03  0.00000000000E+00 0. -1.
         21   -1    0    0  501  503 -0.00000000000E+00 -0.00000000000E+00 -0.14570595449E+03  0.14570595449E+03  0.00000000000E+00 0. -1.
          6    2    1    2  501    0  0.10049670671E+03 -0.99996862965E+01  0.15618972241E+03  0.25322536516E+03  0.17183793059E+03 0.  0.
         24    2    3    3    0    0  0.11134083325E+03 -0.58805645243E+02  0.10860275232E+03  0.18404280644E+03  0.78881631134E+02 0.  0.
         -6    2    1    2    0  502 -0.10049670671E+03  0.99996862965E+01  0.46586012533E+01  0.19903486748E+03  0.17144560106E+03 0.  0.
        -24    2    5    5    0    0 -0.62476478460E+02  0.46192741919E+02 -0.48862540005E+02  0.12392110315E+03  0.83257505505E+02 0.  0.
          5    1    3    3  501    0 -0.10844126541E+02  0.48805958946E+02  0.47586970090E+02  0.69182558723E+02  0.47000000000E+01 0. -1.
        -11    1    4    4    0    0  0.80245265593E+02 -0.94296409066E+01  0.93881685494E+02  0.12386279364E+03  0.00000000000E+00 0.  1.
         12    1    4    4    0    0  0.31095567654E+02 -0.49376004336E+02  0.14721066828E+02  0.60180012799E+02  0.00000000000E+00 0. -1.
         -5    1    5    5    0  502 -0.38020228245E+02 -0.36193055622E+02  0.53521141258E+02  0.75113764335E+02  0.47000000000E+01 0.  1.
         13    1    6    6    0    0 -0.35318008779E+02 -0.18646708280E+02 -0.33115294671E+02  0.51881443840E+02  0.00000000000E+00 0. -1.
        -14    1    6    6    0    0 -0.27158469682E+02  0.64839450199E+02 -0.15747245333E+02  0.72039659308E+02  0.00000000000E+00 0.  1.
</event>
<event>
12    1  0.1066489E+000  0.2851852E+03  0.7818608E-02  0.1092999E+00
         21   -1    0    0  503  502  0.00000000000E+00  0.00000000000E+00  0.14844110226E+03  0.14844110226E+03  0.00000000000E+00 0. -1.
         21   -1    0    0  501  503 -0.00000000000E+00 -0.00000000000E+00 -0.88987168140E+03  0.88987168140E+03  0.00000000000E+00 0. -1.
          6    2    1    2  501    0 -0.22451747277E+03  0.34468547108E+02 -0.69295670068E+03  0.74903729499E+03  0.17108975408E+03 0.  0.
         24    2    3    3    0    0 -0.82967582554E+02  0.72158110995E+02 -0.33199608029E+03  0.35945863269E+03  0.83058404461E+02 0.  0.
         -6    2    1    2    0  502  0.22451747277E+03 -0.34468547108E+02 -0.48473878454E+02  0.28927548867E+03  0.17243669892E+03 0.  0.
        -24    2    5    5    0    0  0.24654173500E+03 -0.36332761987E+02 -0.51004969190E+02  0.26653697851E+03  0.79608776793E+02 0.  0.
          5    1    3    3  501    0 -0.14154989022E+03 -0.37689563887E+02 -0.36096062039E+03  0.38957866230E+03  0.47000000000E+01 0. -1.
        -13    1    4    4    0    0 -0.96044622437E+02  0.69790199694E+02 -0.32085857501E+03  0.34211908252E+03  0.00000000000E+00 0.  1.
         14    1    4    4    0    0  0.13077039883E+02  0.23679113011E+01 -0.11137505281E+02  0.17339550165E+02  0.00000000000E+00 0. -1.
         -5    1    5    5    0  502 -0.22024262230E+02  0.18642148787E+01  0.25310907362E+01  0.22738510158E+02  0.47000000000E+01 0.  1.
         13    1    6    6    0    0 -0.33819788908E+01 -0.85383002652E+01  0.23386566893E+01  0.94767962808E+01  0.00000000000E+00 0. -1.
        -14    1    6    6    0    0  0.24992371389E+03 -0.27794461721E+02 -0.53343625880E+02  0.25706018223E+03  0.00000000000E+00 0.  1.
</event>
<event>
12    1  0.1066489E+000  0.2429079E+03  0.7818608E-02  0.1118292E+00
         21   -1    0    0  501  502  0.00000000000E+00  0.00000000000E+00  0.25009791621E+03  0.25009791621E+03  0.00000000000E+00 0.  1.
         21   -1    0    0  502  503 -0.00000000000E+00 -0.00000000000E+00 -0.41018602567E+03  0.41018602567E+03  0.00000000000E+00 0.  1.
         -6    2    1    2    0  503  0.97084827329E+02  0.13746805169E+03  0.13690142296E+03  0.27660824520E+03  0.17160184373E+03 0.  0.
        -24    2    3    3    0    0 -0.65973904949E+01  0.18695571496E+02  0.60008829198E+02  0.10113327457E+03  0.78954605237E+02 0.  0.
          6    2    1    2  501    0 -0.97084827329E+02 -0.13746805169E+03 -0.29698953242E+03  0.38367569667E+03  0.17516086582E+03 0.  0.
         24    2    5    5    0    0 -0.13782960177E+03 -0.11110893541E+03 -0.22875103981E+03  0.29980960383E+03  0.78845200747E+02 0.  0.
          5    1    5    5  501    0  0.40744774440E+02 -0.26359116278E+02 -0.68238492610E+02  0.83866092843E+02  0.47000000000E+01 0. -1.
        -11    1    6    6    0    0 -0.40206107910E+02 -0.14498903756E+02 -0.14152523796E+02  0.45022697089E+02  0.00000000000E+00 0.  1.
         12    1    6    6    0    0 -0.97623493859E+02 -0.96610031655E+02 -0.21459851601E+03  0.25478690674E+03  0.00000000000E+00 0. -1.
         -5    1    3    3    0  503  0.10368221782E+03  0.11877248019E+03  0.76892593763E+02  0.17547497064E+03  0.47000000000E+01 0.  1.
         11    1    4    4    0    0  0.25619137688E+02  0.29821469384E+02  0.53567298911E+02  0.66446337481E+02  0.00000000000E+00 0. -1.
        -12    1    4    4    0    0 -0.32216528183E+02 -0.11125897888E+02  0.64415302875E+01  0.34686937086E+02  0.00000000000E+00 0.  1.
</event>
<event>
12    1  0.1066489E+000  0.5720227E+03  0.7818608E-02  0.9965557E-01
         21   -1    0    0  501  502  0.00000000000E+00  0.00000000000E+00  0.96874402567E+03  0.96874402567E+03  0.00000000000E+00 0. -1.
         21   -1    0    0  502  503 -0.00000000000E+00 -0.00000000000E+00 -0.43205187725E+03  0.43205187725E+03  0.00000000000E+00 0.  1.
         -6    2    1    2    0  503 -0.54490623500E+03 -0.21836861922E+02  0.59628775798E+03  0.82629839949E+03  0.17265659908E+03 0.  0.
        -24    2    3    3    0    0 -0.35784810866E+03 -0.68459053141E+00  0.29555526012E+03  0.47147409581E+03  0.82940784298E+02 0.  0.
          6    2    1    2  501    0  0.54490623500E+03  0.21836861922E+02 -0.59595609562E+02  0.57449750343E+03  0.17057576409E+03 0.  0.
         24    2    5    5    0    0  0.51481786520E+03 -0.17457292121E+02 -0.46526308060E+02  0.52309480719E+03  0.78238664323E+02 0.  0.
          5    1    5    5  501    0  0.30088369802E+02  0.39294154044E+02 -0.13069301502E+02  0.51402696243E+02  0.47000000000E+01 0. -1.
        -11    1    6    6    0    0  0.14546262299E+03 -0.37119545406E+02  0.13559101633E+01  0.15013018960E+03  0.00000000000E+00 0.  1.
         12    1    6    6    0    0  0.36935524221E+03  0.19662253285E+02 -0.47882218223E+02  0.37296461759E+03  0.00000000000E+00 0. -1.
         -5    1    3    3    0  503 -0.18705812634E+03 -0.21152271391E+02  0.30073249786E+03  0.35482430368E+03  0.47000000000E+01 0.  1.
         13    1    4    4    0    0 -0.33031127364E+03 -0.22813433958E+02  0.27630601034E+03  0.43124355254E+03  0.00000000000E+00 0. -1.
        -14    1    4    4    0    0 -0.27536835024E+02  0.22128843427E+02  0.19249249786E+02  0.40230543271E+02  0.00000000000E+00 0.  1.
</event>
<event>
12    1  0.1066489E+000  0.2137682E+03  0.7818608E-02  0.1138868E+00
         21   -1    0    0  503  502  0.00000000000E+00  0.00000000000E+00  0.60597937761E+02  0.60597937761E+02  0.00000000000E+00 0.  1.
         21   -1    0    0  501  503 -0.00000000000E+00 -0.00000000000E+00 -0.86115361388E+03  0.86115361388E+03  0.00000000000E+00 0.  1.
          6    2    1    2  501    0  0.12270730134E+03  0.31942607259E+02 -0.23329370051E+03  0.31554778153E+03  0.17049058557E+03 0.  0.
         24    2    3    3    0    0  0.14558997585E+03  0.32462658542E+02 -0.14055516658E+03  0.21991090097E+03  0.79716900618E+02 0.  0.
         -6    2    1    2    0  502 -0.12270730134E+03 -0.31942607259E+02 -0.56726197560E+03  0.60620377011E+03  0.17210302140E+03 0.  0.
        -24    2    5    5    0    0 -0.68711994956E+02 -0.14597648495E+02 -0.14096913879E+03  0.17612934235E+03  0.78834114130E+02 0.  0.
          5    1    3    3  501    0 -0.22882674518E+02 -0.52005128313E+00 -0.92738533931E+02  0.95636880554E+02  0.47000000000E+01 0. -1.
        -11    1    4    4    0    0  0.68456452202E+02  0.50024100493E+02 -0.45430063449E+02  0.96190369285E+02  0.00000000000E+00 0.  1.
         12    1    4    4    0    0  0.77133523652E+02 -0.17561441952E+02 -0.95125103135E+02  0.12372053169E+03  0.00000000000E+00 0. -1.
         -5    1    5    5    0  502 -0.53995306380E+02 -0.17344958764E+02 -0.42629283681E+03  0.43007442777E+03  0.47000000000E+01 0.  1.
         13    1    6    6    0    0 -0.22195153182E+02  0.15660964548E+02 -0.28910939482E+01  0.27317559546E+02  0.00000000000E+00 0. -1.
        -14    1    6    6    0    0 -0.46516841774E+02 -0.30258613042E+02 -0.13807804485E+03  0.14881178280E+03  0.00000000000E+00 0.  1.
</event>
<event>
12    1  0.1066489E+000  0.3136688E+03  0.7818608E-02  0.1078612E+00
         21   -1    0    0  503  502  0.00000000000E+00  0.00000000000E+00  0.92254120318E+02  0.92254120318E+02  0.00000000000E+00 0.  1.
         21   -1    0    0  501  503 -0.00000000000E+00 -0.00000000000E+00 -0.20087270348E+04  0.20087270348E+04  0.00000000000E+00 0.  1.
          6    2    1    2  501    0 -0.14380043949E+03 -0.21907991007E+03 -0.23872055812E+03  0.39417713859E+03  0.17237615358E+03 0.  0.
         24    2    3    3    0    0 -0.10242153291E+03 -0.68928752388E+02 -0.15475770932E+03  0.21717591249E+03  0.89297732678E+02 0.  0.
         -6    2    1    2    0  502  0.14380043949E+03  0.21907991007E+03 -0.16777523564E+04  0.17068040165E+04  0.17219874613E+03 0.  0.
        -24    2    5    5    0    0  0.13090390835E+03  0.24220752189E+03 -0.15223538383E+04  0.15490954360E+04  0.79593618428E+02 0.  0.
          5    1    3    3  501    0 -0.41378906579E+02 -0.15015115768E+03 -0.83962848801E+02  0.17700122610E+03  0.47000000000E+01 0. -1.
        -11    1    4    4    0    0 -0.92571923778E+01  0.30304837563E+01  0.10470903856E+02  0.14301023393E+02  0.00000000000E+00 0.  1.
         12    1    4    4    0    0 -0.93164340529E+02 -0.71959236145E+02 -0.16522861317E+03  0.20287488909E+03  0.00000000000E+00 0. -1.
         -5    1    5    5    0  502  0.12896531136E+02 -0.23127611820E+02 -0.15539851807E+03  0.15770858049E+03  0.47000000000E+01 0.  1.
         11    1    6    6    0    0  0.39300060185E+02  0.15955155199E+02 -0.23905014614E+03  0.24278392467E+03  0.00000000000E+00 0. -1.
        -12    1    6    6    0    0  0.91603848164E+02  0.22625236669E+03 -0.12833036921E+04  0.13063115114E+04  0.00000000000E+00 0.  1.
</event>
<event>
12    1  0.1066489E+000  0.2392067E+03  0.7818608E-02  0.1122077E+00
         21   -1    0    0  501  502  0.00000000000E+00  0.00000000000E+00  0.82361492601E+03  0.82361492601E+03  0.00000000000E+00 0.  1.
         21   -1    0    0  502  503 -0.00000000000E+00 -0.00000000000E+00 -0.78937354898E+02  0.78937354898E+02  0.00000000000E+00 0.  1.
         -6    2    1    2    0  503  0.95990830126E+02  0.11896176534E+03  0.20032961731E+03  0.31201252635E+03  0.18399380409E+03 0.  0.
        -24    2    3    3    0    0  0.12295008802E+02  0.13156266495E+03  0.13339709708E+03  0.20400407556E+03  0.79768259879E+02 0.  0.
          6    2    1    2  501    0 -0.95990830126E+02 -0.11896176534E+03  0.54434795380E+03  0.59053975456E+03  0.17045927909E+03 0.  0.
         24    2    5    5    0    0 -0.18488308784E+02 -0.74524040556E+02  0.43692417932E+03  0.45074236717E+03  0.79814114669E+02 0.  0.
          5    1    5    5  501    0 -0.77502521342E+02 -0.44437724786E+02  0.10742377448E+03  0.13979738739E+03  0.47000000000E+01 0. -1.
        -11    1    6    6    0    0 -0.28795795730E+02 -0.27623888447E+02  0.34242871798E+03  0.34474585416E+03  0.00000000000E+00 0.  1.
         12    1    6    6    0    0  0.10307486945E+02 -0.46900152109E+02  0.94495461347E+02  0.10599651301E+03  0.00000000000E+00 0. -1.
         -5    1    3    3    0  503  0.83695821324E+02 -0.12600899606E+02  0.66932520233E+02  0.10800845079E+03  0.47000000000E+01 0.  1.
         13    1    4    4    0    0 -0.16000208525E+02  0.31645283203E+02  0.79398718102E+02  0.86957386449E+02  0.00000000000E+00 0. -1.
        -14    1    4    4    0    0  0.28295217326E+02  0.99917381746E+02  0.53998378978E+02  0.11704668911E+03  0.00000000000E+00 0.  1.
</event>
<event>
12    1  0.1066489E+000  0.3773208E+03  0.7818608E-02  0.1051931E+00
         21   -1    0    0  503  502  0.00000000000E+00  0.00000000000E+00  0.61777301822E+03  0.61777301822E+03  0.00000000000E+00 0.  1.
         21   -1    0    0  501  503 -0.00000000000E+00 -0.00000000000E+00 -0.26907210061E+03  0.26907210061E+03  0.00000000000E+00 0.  1.
          6    2    1    2  501    0 -0.33490586090E+03  0.25827177240E+02  0.34236239670E+03  0.50947107306E+03  0.17181322666E+03 0.  0.
         24    2    3    3    0    0 -0.33506672582E+03  0.27456255477E+01  0.28146044373E+03  0.44417236112E+03  0.76104242859E+02 0.  0.
         -6    2    1    2    0  502  0.33490586090E+03 -0.25827177240E+02  0.63385209154E+01  0.37737404578E+03  0.17187790675E+03 0.  0.
        -24    2    5    5    0    0  0.29200742890E+03  0.28412749563E+02  0.26109181364E+02  0.30529621186E+03  0.80302333429E+02 0.  0.
          5    1    3    3  501    0  0.16086491796E+00  0.23081551692E+02  0.60901952962E+02  0.65298711937E+02  0.47000000000E+01 0. -1.
        -13    1    4    4    0    0 -0.25576923717E+00 -0.65968604540E+01  0.14238539417E+02  0.15694584750E+02  0.00000000000E+00 0.  1.
         14    1    4    4    0    0 -0.33481095659E+03  0.93424860017E+01  0.26722190432E+03  0.42847777637E+03  0.00000000000E+00 0. -1.
         -5    1    5    5    0  502  0.42898432004E+02 -0.54239926803E+02 -0.19770660448E+02  0.72077833919E+02  0.47000000000E+01 0.  1.
         13    1    6    6    0    0  0.95334782342E+02  0.40968485058E+02  0.30565041865E+02  0.10817282134E+03  0.00000000000E+00 0. -1.
        -14    1    6    6    0    0  0.19667264656E+03 -0.12555735495E+02 -0.44558605013E+01  0.19712339052E+03  0.00000000000E+00 0.  1.
</event>
<event>
12    1  0.1066489E+000  0.1874913E+03  0.7818608E-02  0.1161191E+00
         21   -1    0    0  503  502  0.00000000000E+00  0.00000000000E+00  0.11450504902E+03  0.11450504902E+03  0.00000000000E+00 0. -1.
         21   -1    0    0  501  503 -0.00000000000E+00 -0.00000000000E+00 -0.45149035185E+03  0.45149035185E+03  0.00000000000E+00 0. -1.
          6    2    1    2  501    0 -0.47925573638E+02 -0.49527367914E+02 -0.72431199535E+01  0.18763120272E+03  0.17436509015E+03 0.  0.
         24    2    3    3    0    0 -0.92210491632E+02 -0.17497150033E+02  0.22957652271E+02  0.12501119423E+03  0.79320992554E+02 0.  0.
         -6    2    1    2    0  502  0.47925573638E+02  0.49527367914E+02 -0.32974218288E+03  0.37836419815E+03  0.17227808477E+03 0.  0.
        -24    2    5    5    0    0  0.54695233645E+01 -0.32978974050E+02 -0.98119957118E+02  0.12880306709E+03  0.76453748715E+02 0.  0.
          5    1    3    3  501    0  0.44284917994E+02 -0.32030217881E+02 -0.30200772225E+02  0.62620008481E+02  0.47000000000E+01 0. -1.
        -11    1    4    4    0    0 -0.39531085111E+02 -0.47809155136E+02  0.13730545646E+02  0.63536996220E+02  0.00000000000E+00 0.  1.
         12    1    4    4    0    0 -0.52679406521E+02  0.30312005104E+02  0.92271066251E+01  0.61474198015E+02  0.00000000000E+00 0. -1.
         -5    1    5    5    0  502  0.42456050274E+02  0.82506341964E+02 -0.23162222576E+03  0.24956113106E+03  0.47000000000E+01 0.  1.
         13    1    6    6    0    0  0.23972065908E+02  0.13780645298E+02 -0.14487572998E+02  0.31216276205E+02  0.00000000000E+00 0. -1.
        -14    1    6    6    0    0 -0.18502542544E+02 -0.46759619348E+02 -0.83632384120E+02  0.97586790888E+02  0.00000000000E+00 0.  1.
</event>
<event>
12    1  0.1066489E+000  0.1862947E+03  0.7818608E-02  0.1161873E+00
         21   -1    0    0  503  502  0.00000000000E+00  0.00000000000E+00  0.22964269398E+03  0.22964269398E+03  0.00000000000E+00 0. -1.
         21   -1    0    0  501  503 -0.00000000000E+00 -0.00000000000E+00 -0.15905417549E+03  0.15905417549E+03  0.00000000000E+00 0. -1.
          6    2    1    2  501    0 -0.72121233477E+02  0.31132291015E+01  0.78917238202E+02  0.20221612552E+03  0.17161662629E+03 0.  0.
         24    2    3    3    0    0 -0.32460335987E+02 -0.63736650649E+02  0.69523259835E+02  0.12377997287E+03  0.73293683069E+02 0.  0.
         -6    2    1    2    0  502  0.72121233477E+02 -0.31132291015E+01 -0.83287197104E+01  0.18648074395E+03  0.17173973267E+03 0.  0.
        -24    2    5    5    0    0  0.76511045998E+02  0.32498517813E+02  0.43000995409E+02  0.12367710849E+03  0.80850774511E+02 0.  0.
          5    1    3    3  501    0 -0.39660897490E+02  0.66849879750E+02  0.93939783671E+01  0.78436152646E+02  0.47000000000E+01 0. -1.
        -13    1    4    4    0    0 -0.45454653592E+02 -0.58953568349E+02  0.27210919153E+02  0.79259591693E+02  0.00000000000E+00 0.  1.
         14    1    4    4    0    0  0.12994317605E+02 -0.47830822998E+01  0.42312340682E+02  0.44520381179E+02  0.00000000000E+00 0. -1.
         -5    1    5    5    0  502 -0.43898125209E+01 -0.35611746914E+02 -0.51329715119E+02  0.62803635456E+02  0.47000000000E+01 0.  1.
         13    1    6    6    0    0 -0.14469633583E+02 -0.49145272171E+00  0.19145017971E+02  0.24002990124E+02  0.00000000000E+00 0. -1.
        -14    1    6    6    0    0  0.90980679581E+02  0.32989970534E+02  0.23855977438E+02  0.99674118368E+02  0.00000000000E+00 0.  1.
</event>
<event>
12    1  0.1066489E+000  0.1872116E+03  0.7818608E-02  0.1161260E+00
         21   -1    0    0  503  502  0.00000000000E+00  0.00000000000E+00  0.61961669076E+03  0.61961669076E+03  0.00000000000E+00 0.  1.
         21   -1    0    0  501  503 -0.00000000000E+00 -0.00000000000E+00 -0.85387939586E+02  0.85387939586E+02  0.00000000000E+00 0.  1.
          6    2    1    2  501    0  0.17384433968E+02 -0.71301723312E+02  0.47364979420E+03  0.50930570446E+03  0.17222664938E+03 0.  0.
         24    2    3    3    0    0 -0.52309310191E+02 -0.14407527003E+02  0.26154796028E+03  0.27886385605E+03  0.80086665023E+02 0.  0.
         -6    2    1    2    0  502 -0.17384433968E+02  0.71301723312E+02  0.60578956974E+02  0.19569892589E+03  0.17100323176E+03 0.  0.
        -24    2    5    5    0    0  0.10367345923E+02  0.16395212083E+02 -0.42137983180E+02  0.75875113324E+02  0.60042804354E+02 0.  0.
          5    1    3    3  501    0  0.69693744159E+02 -0.56894196308E+02  0.21210183392E+03  0.23044184841E+03  0.47000000000E+01 0. -1.
        -11    1    4    4    0    0 -0.35565324038E+01  0.20578292498E+02  0.15648111894E+03  0.15786847573E+03  0.00000000000E+00 0.  1.
         12    1    4    4    0    0 -0.48752777787E+02 -0.34985819501E+02  0.10506684134E+03  0.12099538032E+03  0.00000000000E+00 0. -1.
         -5    1    5    5    0  502 -0.27751779891E+02  0.54906511229E+02  0.10271694015E+03  0.11982381256E+03  0.47000000000E+01 0.  1.
         11    1    6    6    0    0  0.26638660942E+02  0.25008703903E+02 -0.44202638782E+02  0.57349165669E+02  0.00000000000E+00 0. -1.
        -12    1    6    6    0    0 -0.16271315019E+02 -0.86134918193E+01  0.20646556016E+01  0.18525947655E+02  0.00000000000E+00 0.  1.
</event>
<event>
12    1  0.1066489E+000  0.2030819E+03  0.7818608E-02  0.1147492E+00
         21   -1    0    0  501  502  0.00000000000E+00  0.00000000000E+00  0.14459300101E+04  0.14459300101E+04  0.00000000000E+00 0.  1.
         21   -1    0    0  502  503 -0.00000000000E+00 -0.00000000000E+00 -0.28304912504E+02  0.28304912504E+02  0.00000000000E+00 0.  1.
         -6    2    1    2    0  503  0.60876326233E+02  0.89891387918E+02  0.70392927123E+03  0.73263816777E+03  0.17162714607E+03 0.  0.
        -24    2    3    3    0    0  0.71255709213E+01  0.11223311478E+03  0.57164854756E+03  0.58804018608E+03  0.79763103621E+02 0.  0.
          6    2    1    2  501    0 -0.60876326233E+02 -0.89891387918E+02  0.71369582640E+03  0.74159675486E+03  0.16975754913E+03 0.  0.
         24    2    5    5    0    0 -0.58105140722E+02  0.83428798911E+01  0.38849858831E+03  0.40184245467E+03  0.84263837029E+02 0.  0.
          5    1    5    5  501    0 -0.27711855102E+01 -0.98234267809E+02  0.32519723809E+03  0.33975430020E+03  0.47000000000E+01 0. -1.
        -13    1    6    6    0    0 -0.55279698246E+02 -0.30912851389E+02  0.23857262138E+03  0.24683667696E+03  0.00000000000E+00 0.  1.
         14    1    6    6    0    0 -0.28254424759E+01  0.39255731280E+02  0.14992596693E+03  0.15500577771E+03  0.00000000000E+00 0. -1.
         -5    1    3    3    0  503  0.53750755311E+02 -0.22341726866E+02  0.13228072366E+03  0.14459798169E+03  0.47000000000E+01 0.  1.
         11    1    4    4    0    0  0.89995324785E+01  0.40345418266E+02  0.39728128877E+03  0.39942604668E+03  0.00000000000E+00 0. -1.
        -12    1    4    4    0    0 -0.18739615572E+01  0.71887696518E+02  0.17436725879E+03  0.18861413940E+03  0.00000000000E+00 0.  1.
</event>
<event>
12    1  0.1066489E+000  0.1872078E+03  0.7818608E-02  0.1161175E+00
         21   -1    0    0  501  502  0.00000000000E+00  0.00000000000E+00  0.26464005568E+02  0.26464005568E+02  0.00000000000E+00 0. -1.
         21   -1    0    0  502  503 -0.00000000000E+00 -0.00000000000E+00 -0.13371109193E+04  0.13371109193E+04  0.00000000000E+00 0. -1.
         -6    2    1    2    0  503 -0.34877747102E+02 -0.58825156722E+02 -0.57481904709E+03  0.60430592423E+03  0.17347004598E+03 0.  0.
        -24    2    3    3    0    0  0.12016401644E+02  0.50645731883E+01 -0.13539354876E+03  0.15776609694E+03  0.79929246755E+02 0.  0.
          6    2    1    2  501    0  0.34877747102E+02  0.58825156722E+02 -0.73582786663E+03  0.75926900063E+03  0.17426964653E+03 0.  0.
         24    2    5    5    0    0  0.54966648443E+02  0.10040114827E+03 -0.50714913341E+03  0.52592766254E+03  0.79359559598E+02 0.  0.
          5    1    5    5  501    0 -0.20088901341E+02 -0.41575991548E+02 -0.22867873322E+03  0.23334133809E+03  0.47000000000E+01 0. -1.
        -11    1    6    6    0    0  0.56130212554E+02  0.22273208630E+02 -0.19426049918E+03  0.20343017998E+03  0.00000000000E+00 0.  1.
         12    1    6    6    0    0 -0.11635641115E+01  0.78127939640E+02 -0.31288863423E+03  0.32249748257E+03  0.00000000000E+00 0. -1.
         -5    1    3    3    0  503 -0.46894148746E+02 -0.63889729911E+02 -0.43942549833E+03  0.44653982729E+03  0.47000000000E+01 0.  1.
         11    1    4    4    0    0  0.22284125382E+02 -0.30538210504E+02 -0.98375881861E+02  0.10538965166E+03  0.00000000000E+00 0. -1.
        -12    1    4    4    0    0 -0.10267723738E+02  0.35602783692E+02 -0.37017666901E+02  0.52376445280E+02  0.00000000000E+00 0.  1.
</event>
<event>
12    1  0.1066489E+000  0.2371861E+03  0.7818608E-02  0.1121735E+00
         21   -1    0    0  503  502  0.00000000000E+00  0.00000000000E+00  0.16322530932E+03  0.16322530932E+03  0.00000000000E+00 0. -1.
         21   -1    0    0  501  503 -0.00000000000E+00 -0.00000000000E+00 -0.35114123198E+03  0.35114123198E+03  0.00000000000E+00 0.  1.
          6    2    1    2  501    0 -0.14965026701E+03  0.65002446830E+02 -0.13005044799E+03  0.27022388066E+03  0.17171868315E+03 0.  0.
         24    2    3    3    0    0 -0.16172542590E+03  0.41004371478E+02 -0.58196224857E+02  0.19336793446E+03  0.78535887520E+02 0.  0.
         -6    2    1    2    0  502  0.14965026701E+03 -0.65002446830E+02 -0.57865474667E+02  0.24414266064E+03  0.17215314426E+03 0.  0.
        -24    2    5    5    0    0  0.17049522898E+03 -0.22136216395E+02 -0.53708672269E+02  0.19606568947E+03  0.77449970478E+02 0.  0.
          5    1    3    3  501    0  0.12075158883E+02  0.23998075352E+02 -0.71854223138E+02  0.76855946194E+02  0.47000000000E+01 0. -1.
        -11    1    4    4    0    0 -0.24250750962E+02 -0.16799911107E+02 -0.29070047098E+02  0.41417430796E+02  0.00000000000E+00 0.  1.
         12    1    4    4    0    0 -0.13747467493E+03  0.57804282585E+02 -0.29126177759E+02  0.15195050367E+03  0.00000000000E+00 0. -1.
         -5    1    5    5    0  502 -0.20844961971E+02 -0.42866230435E+02 -0.41568023981E+01  0.48076971176E+02  0.47000000000E+01 0.  1.
         11    1    6    6    0    0  0.77374307566E+02  0.27614538881E+02 -0.32671481188E+02  0.88412509929E+02  0.00000000000E+00 0. -1.
        -12    1    6    6    0    0  0.93120921418E+02 -0.49750755276E+02 -0.21037191081E+02  0.10765317954E+03  0.00000000000E+00 0.  1.
</event>
<event>
12    1  0.1066489E+000  0.2178894E+03  0.7818608E-02  0.1135693E+00
         21   -1    0    0  501  502  0.00000000000E+00  0.00000000000E+00  0.14194055033E+03  0.14194055033E+03  0.00000000000E+00 0.  1.
         21   -1    0    0  502  503 -0.00000000000E+00 -0.00000000000E+00 -0.33367728193E+03  0.33367728193E+03  0.00000000000E+00 0.  1.
         -6    2    1    2    0  503  0.99490710251E+02  0.90817131702E+02 -0.82898999345E+02  0.23312667578E+03  0.17125901446E+03 0.  0.
        -24    2    3    3    0    0  0.63452627207E+01  0.15604244423E+02 -0.67514644915E+02  0.11233006503E+03  0.88181979047E+02 0.  0.
          6    2    1    2  501    0 -0.99490710251E+02 -0.90817131702E+02 -0.10883773226E+03  0.24249115648E+03  0.16973554776E+03 0.  0.
         24    2    5    5    0    0 -0.37195755892E+02 -0.52007913438E+02  0.90376981200E+01  0.10355403456E+03  0.80953139347E+02 0.  0.
          5    1    5    5  501    0 -0.62294954359E+02 -0.38809218264E+02 -0.11787543038E+03  0.13893712192E+03  0.47000000000E+01 0. -1.
        -13    1    6    6    0    0 -0.49792196462E+02 -0.23418396947E+01 -0.58679446882E+01  0.50191431705E+02  0.00000000000E+00 0.  1.
         14    1    6    6    0    0  0.12596440571E+02 -0.49666073743E+02  0.14905642808E+02  0.53362602857E+02  0.00000000000E+00 0. -1.
         -5    1    3    3    0  503  0.93145447531E+02  0.75212887278E+02 -0.15384354430E+02  0.12079661075E+03  0.47000000000E+01 0.  1.
         11    1    4    4    0    0  0.23065340218E+02  0.30072566380E+02  0.33967799879E+01  0.38051376879E+02  0.00000000000E+00 0. -1.
        -12    1    4    4    0    0 -0.16720077497E+02 -0.14468321957E+02 -0.70911424903E+02  0.74278688151E+02  0.00000000000E+00 0.  1.
</event>
<event>
12    1  0.1098505E+000  0.2235460E+03  0.7818608E-02  0.1131403E+00
         21   -1    0    0  501  502  0.00000000000E+00  0.00000000000E+00  0.57145262050E+03  0.57145262050E+03  0.00000000000E+00 0. -1.
         21   -1    0    0  502  503 -0.00000000000E+00 -0.00000000000E+00 -0.24084976533E+03  0.24084976533E+03  0.00000000000E+00 0. -1.
         -6    2    1    2    0  503  0.13193860035E+03  0.51529041955E+02  0.48984646911E+03  0.53844438537E+03  0.17294437375E+03 0.  0.
        -24    2    3    3    0    0  0.69011962425E+02 -0.35114172869E+02  0.30695260524E+03  0.32645602749E+03  0.79736942055E+02 0.  0.
          6    2    1    2  501    0 -0.13193860035E+03 -0.51529041955E+02 -0.15924361394E+03  0.27385800046E+03  0.17197860160E+03 0.  0.
         24    2    5    5    0    0 -0.71472013637E+02  0.38264702320E+02 -0.63965936388E+02  0.12956991898E+03  0.78257822027E+02 0.  0.
          5    1    5    5  501    0 -0.60466586717E+02 -0.89793744274E+02 -0.95277677548E+02  0.14428808149E+03  0.47000000000E+01 0. -1.
        -11    1    6    6    0    0 -0.44838911159E+02 -0.12797911887E+02 -0.53616238705E+02  0.71056425153E+02  0.00000000000E+00 0.  1.
         12    1    6    6    0    0 -0.26633102478E+02  0.51062614207E+02 -0.10349697683E+02  0.58513493823E+02  0.00000000000E+00 0. -1.
         -5    1    3    3    0  503  0.62926637928E+02  0.86643214824E+02  0.18289386387E+03  0.21198835788E+03  0.47000000000E+01 0.  1.
         13    1    4    4    0    0  0.46752554556E+02 -0.12947844005E+02  0.58377238127E+02  0.75903556921E+02  0.00000000000E+00 0. -1.
        -14    1    4    4    0    0  0.22259407869E+02 -0.22166328864E+02  0.24857536711E+03  0.25055247057E+03  0.00000000000E+00 0.  1.
</event>
<event>
12    1  0.1066489E+000  0.1773800E+03  0.7818608E-02  0.1170635E+00
         21   -1    0    0  503  502  0.00000000000E+00  0.00000000000E+00  0.20685301380E+03  0.20685301380E+03  0.00000000000E+00 0.  1.
         21   -1    0    0  501  503 -0.00000000000E+00 -0.00000000000E+00 -0.15540980027E+03  0.15540980027E+03  0.00000000000E+00 0.  1.
          6    2    1    2  501    0  0.42080551525E+02 -0.12106426060E+02 -0.41318595448E+01  0.17742815987E+03  0.17189049212E+03 0.  0.
         24    2    3    3    0    0  0.10542337711E+02 -0.56337010071E+02 -0.46561195537E+02  0.10833878264E+03  0.79273875307E+02 0.  0.
         -6    2    1    2    0  502 -0.42080551525E+02  0.12106426060E+02  0.55575073076E+02  0.18483465421E+03  0.17075690990E+03 0.  0.
        -24    2    5    5    0    0 -0.48139137666E+02 -0.46281883469E+02  0.69276443783E+02  0.12437211444E+03  0.78802334196E+02 0.  0.
          5    1    3    3  501    0  0.31538213814E+02  0.44230584011E+02  0.42429335992E+02  0.69089377224E+02  0.47000000000E+01 0. -1.
        -13    1    4    4    0    0 -0.24130528760E+02  0.63158712706E+01 -0.46657102473E+01  0.25376002448E+02  0.00000000000E+00 0.  1.
         14    1    4    4    0    0  0.34672866470E+02 -0.62652881342E+02 -0.41895485289E+02  0.82962780193E+02  0.00000000000E+00 0. -1.
         -5    1    5    5    0  502  0.60585861409E+01  0.58388309529E+02 -0.13701370707E+02  0.60462539766E+02  0.47000000000E+01 0.  1.
         13    1    6    6    0    0 -0.19701043546E+02 -0.92598524007E+00 -0.14828223110E+02  0.24675185228E+02  0.00000000000E+00 0. -1.
        -14    1    6    6    0    0 -0.28438094120E+02 -0.45355898229E+02  0.84104666893E+02  0.99696929213E+02  0.00000000000E+00 0.  1.
</event>
<event>
12    1  0.1066489E+000  0.1925525E+03  0.7818608E-02  0.1156466E+00
         21   -1    0    0  503  502  0.00000000000E+00  0.00000000000E+00  0.16886418404E+03  0.16886418404E+03  0.00000000000E+00 0. -1.
         21   -1    0    0  501  503 -0.00000000000E+00 -0.00000000000E+00 -0.23791018646E+03  0.23791018646E+03  0.00000000000E+00 0. -1.
          6    2    1    2  501    0  0.83311957875E+02 -0.12746246119E+01  0.24067414881E+02  0.19405082580E+03  0.17359140400E+03 0.  0.
         24    2    3    3    0    0  0.29388182241E+02  0.65485809248E+02  0.82058036918E+01  0.10665282916E+03  0.78456575793E+02 0.  0.
         -6    2    1    2    0  502 -0.83311957875E+02  0.12746246119E+01 -0.93113417302E+02  0.21272354469E+03  0.17215891203E+03 0.  0.
        -24    2    5    5    0    0 -0.41077253802E+02 -0.64528946046E+02 -0.15276974696E+02  0.10229491644E+03  0.66178080334E+02 0.  0.
          5    1    3    3  501    0  0.53923775634E+02 -0.66760433860E+02  0.15861611189E+02  0.87397996644E+02  0.47000000000E+01 0. -1.
        -13    1    4    4    0    0  0.26271550454E+02  0.42094249158E+02  0.42290234586E+02  0.65196503869E+02  0.00000000000E+00 0.  1.
         14    1    4    4    0    0  0.31166317871E+01  0.23391560091E+02 -0.34084430895E+02  0.41456325290E+02  0.00000000000E+00 0. -1.
         -5    1    5    5    0  502 -0.42234704073E+02  0.65803570658E+02 -0.77836442606E+02  0.11042862825E+03  0.47000000000E+01 0.  1.
         13    1    6    6    0    0  0.15660315335E+02 -0.32291696052E+02 -0.57765530220E+01  0.36350621386E+02  0.00000000000E+00 0. -1.
        -14    1    6    6    0    0 -0.56737569137E+02 -0.32237249994E+02 -0.95004216741E+01  0.65944295059E+02  0.00000000000E+00 0.  1.
</event>
<event>
12    1  0.1066489E+000  0.3218859E+03  0.7818608E-02  0.1074890E+00
         21   -1    0    0  501  502  0.00000000000E+00  0.00000000000E+00  0.29612984454E+03  0.29612984454E+03  0.00000000000E+00 0.  1.
         21   -1    0    0  502  503 -0.00000000000E+00 -0.00000000000E+00 -0.76415092905E+03  0.76415092905E+03  0.00000000000E+00 0.  1.
         -6    2    1    2    0  503  0.27086471929E+03  0.38522988368E+01  0.15664606281E+03  0.35797837186E+03  0.17386198366E+03 0.  0.
        -24    2    3    3    0    0  0.26445851187E+03  0.44422992264E+02  0.12998773701E+03  0.30878714303E+03  0.80876332676E+02 0.  0.
          6    2    1    2  501    0 -0.27086471929E+03 -0.38522988368E+01 -0.62466714732E+03  0.70230240173E+03  0.17215423946E+03 0.  0.
         24    2    5    5    0    0 -0.10823627121E+03  0.39103625535E+02 -0.38284127342E+03  0.40769237669E+03  0.80009058499E+02 0.  0.
          5    1    5    5  501    0 -0.16262844808E+03 -0.42955924372E+02 -0.24182587390E+03  0.29461002504E+03  0.47000000000E+01 0. -1.
        -13    1    6    6    0    0 -0.87304625587E+02  0.38449701729E+02 -0.17949502014E+03  0.20327060650E+03  0.00000000000E+00 0.  1.
         14    1    6    6    0    0 -0.20931645625E+02  0.65392380644E+00 -0.20334625328E+03  0.20442177019E+03  0.00000000000E+00 0. -1.
         -5    1    3    3    0  503  0.64062074183E+01 -0.40570693428E+02  0.26658325803E+02  0.49191228825E+02  0.47000000000E+01 0.  1.
         11    1    4    4    0    0  0.21693486844E+03  0.73787695467E+01  0.83045484407E+02  0.23240425096E+03  0.00000000000E+00 0. -1.
        -12    1    4    4    0    0  0.47523643430E+02  0.37044222718E+02  0.46942252600E+02  0.76382892069E+02  0.00000000000E+00 0.  1.
</event>
<event>
12    1  0.1066489E+000  0.2883896E+03  0.7818608E-02  0.1091279E+00
         21   -1    0    0  501  502  0.00000000000E+00  0.00000000000E+00  0.20551410618E+03  0.20551410618E+03  0.00000000000E+00 0.  1.
         21   -1    0    0  502  503 -0.00000000000E+00 -0.00000000000E+00 -0.58972207776E+03  0.58972207776E+03  0.00000000000E+00 0.  1.
         -6    2    1    2    0  503 -0.11769327360E+03 -0.19854105908E+03 -0.41552764299E+03  0.50579815912E+03  0.17291123993E+03 0.  0.
        -24    2    3    3    0    0 -0.45957076149E+02 -0.17897054806E+02 -0.15216148773E+03  0.17844183943E+03  0.79094970091E+02 0.  0.
          6    2    1    2  501    0  0.11769327360E+03  0.19854105908E+03  0.31319671417E+02  0.28943802482E+03  0.17182313465E+03 0.  0.
         24    2    5    5    0    0 -0.90914207938E+01  0.73606194708E+02  0.15362753336E+02  0.11066500587E+03  0.80685832110E+02 0.  0.
          5    1    5    5  501    0  0.12678469439E+03  0.12493486437E+03  0.15956918080E+02  0.17877301894E+03  0.47000000000E+01 0. -1.
        -11    1    6    6    0    0 -0.22307989573E+02  0.59619197248E+02 -0.23050660332E+02  0.67701019350E+02  0.00000000000E+00 0.  1.
         12    1    6    6    0    0  0.13216568780E+02  0.13986997460E+02  0.38413413668E+02  0.42963986523E+02  0.00000000000E+00 0. -1.
         -5    1    3    3    0  503 -0.71736197450E+02 -0.18064400427E+03 -0.26336615526E+03  0.32735631969E+03  0.47000000000E+01 0.  1.
         13    1    4    4    0    0  0.45744909429E+01 -0.32253784732E+02 -0.96751297865E+02  0.10208842361E+03  0.00000000000E+00 0. -1.
        -14    1    4    4    0    0 -0.50531567092E+02  0.14356729926E+02 -0.55410189865E+02  0.76353415823E+02  0.00000000000E+00 0.  1.
</event>
<event>
12    1  0.1066489E+000  0.2506173E+03  0.7818608E-02  0.1112921E+00
         21   -1    0    0  501  502  0.00000000000E+00  0.00000000000E+00  0.10334249873E+03  0.10334249873E+03  0.00000000000E+00 0. -1.
         21   -1    0    0  502  503 -0.00000000000E+00 -0.00000000000E+00 -0.62297213004E+03  0.62297213004E+03  0.00000000000E+00 0. -1.
         -6    2    1    2    0  503 -0.15780766526E+03  0.90853670324E+02 -0.31667438520E+03  0.40382452924E+03  0.17214510028E+03 0.  0.
        -24    2    3    3    0    0 -0.12000451841E+03  0.84498036818E+02 -0.12662837998E+03  0.20989401052E+03  0.80496871818E+02 0.  0.
          6    2    1    2  501    0  0.15780766526E+03 -0.90853670324E+02 -0.20295524611E+03  0.32249009953E+03  0.17219577156E+03 0.  0.
         24    2    5    5    0    0  0.12472253246E+03 -0.71129074545E+02 -0.22443411848E+03  0.27813789948E+03  0.79843360664E+02 0.  0.
          5    1    5    5  501    0  0.33085132799E+02 -0.19724595778E+02  0.21478872366E+02  0.44352200047E+02  0.47000000000E+01 0. -1.
        -13    1    6    6    0    0  0.12472185440E+03 -0.41431261252E+02 -0.15902995866E+03  0.20630709665E+03  0.00000000000E+00 0.  1.
         14    1    6    6    0    0  0.67805855490E-03 -0.29697813294E+02 -0.65404159815E+02  0.71830802836E+02  0.00000000000E+00 0. -1.
         -5    1    3    3    0  503 -0.37803146845E+02  0.63556335059E+01 -0.19004600522E+03  0.19393051872E+03  0.47000000000E+01 0.  1.
         13    1    4    4    0    0 -0.12186481793E+03  0.89960273556E+02 -0.97362809996E+02  0.18006499226E+03  0.00000000000E+00 0. -1.
        -14    1    4    4    0    0  0.18602995132E+01 -0.54622367377E+01 -0.29265569979E+02  0.29829018265E+02  0.00000000000E+00 0.  1.
</event>
<event>
12    1  0.1066489E+000  0.1982931E+03  0.7818608E-02  0.1151193E+00
         21   -1    0    0  501  502  0.00000000000E+00  0.00000000000E+00  0.48531757287E+03  0.48531757287E+03  0.00000000000E+00 0. -1.
         21   -1    0    0  502  503 -0.00000000000E+00 -0.00000000000E+00 -0.99131911102E+02  0.99131911102E+02  0.00000000000E+00 0. -1.
         -6    2    1    2    0  503  0.94393392118E+02  0.27823406412E+02  0.31805344515E+03  0.37480416366E+03  0.17215084290E+03 0.  0.
        -24    2    3    3    0    0  0.21212881002E+02 -0.46015903722E+02  0.14709225857E+03  0.17466059458E+03  0.79389804467E+02 0.  0.
          6    2    1    2  501    0 -0.94393392118E+02 -0.27823406412E+02  0.68132216620E+02  0.20964532031E+03  0.17211887452E+03 0.  0.
         24    2    5    5    0    0 -0.11876017778E+03 -0.61752965172E+02  0.49184590951E+02  0.16353612687E+03  0.80047062834E+02 0.  0.
          5    1    5    5  501    0  0.24366785666E+02  0.33929558760E+02  0.18947625668E+02  0.46109193441E+02  0.47000000000E+01 0. -1.
        -13    1    6    6    0    0 -0.43853904223E+02 -0.52134912100E+02  0.55330958111E+02  0.87765191851E+02  0.00000000000E+00 0.  1.
         14    1    6    6    0    0 -0.74906273561E+02 -0.96180530727E+01 -0.61463671595E+01  0.75770935015E+02  0.00000000000E+00 0. -1.
         -5    1    3    3    0  503  0.73180511117E+02  0.73839310134E+02  0.17096118658E+03  0.20014356908E+03  0.47000000000E+01 0.  1.
         13    1    4    4    0    0  0.35050324004E+02  0.89172350588E+00  0.24783427263E+02  0.42936448974E+02  0.00000000000E+00 0. -1.
        -14    1    4    4    0    0 -0.13837443002E+02 -0.46907627228E+02  0.12230883130E+03  0.13172414561E+03  0.00000000000E+00 0.  1.
</event>
<event>
12    1  0.1066489E+000  0.1812662E+03  0.7818608E-02  0.1167594E+00
         21   -1    0    0  503  502  0.00000000000E+00  0.00000000000E+00  0.55022668341E+02  0.55022668341E+02  0.00000000000E+00 0.  1.
         21   -1    0    0  501  503 -0.00000000000E+00 -0.00000000000E+00 -0.72290050577E+03  0.72290050577E+03  0.00000000000E+00 0.  1.
          6    2    1    2  501    0  0.42651511727E+01  0.52181126115E+02 -0.16629010016E+03  0.24598743505E+03  0.17354065620E+03 0.  0.
         24    2    3    3    0    0 -0.60027875428E+02  0.56216008102E+02 -0.11957951160E+03  0.16627644067E+03  0.81148072866E+02 0.  0.
         -6    2    1    2    0  502 -0.42651511727E+01 -0.52181126115E+02 -0.50158773727E+03  0.53193573907E+03  0.16918720660E+03 0.  0.
        -24    2    5    5    0    0 -0.30367342553E+02 -0.75392619854E+02 -0.47003561633E+03  0.48463114973E+03  0.85601682497E+02 0.  0.
          5    1    3    3  501    0  0.64293026601E+02 -0.40348819870E+01 -0.46710588560E+02  0.79710994385E+02  0.47000000000E+01 0. -1.
        -11    1    4    4    0    0 -0.54986589562E+02  0.13891726209E+02 -0.23923019116E+02  0.61553358417E+02  0.00000000000E+00 0.  1.
         12    1    4    4    0    0 -0.50412858664E+01  0.42324281893E+02 -0.95656492486E+02  0.10472308225E+03  0.00000000000E+00 0. -1.
         -5    1    5    5    0  502  0.26102191380E+02  0.23211493739E+02 -0.31552120938E+02  0.47304589334E+02  0.47000000000E+01 0.  1.
         11    1    6    6    0    0  0.57501974993E+01 -0.48693211622E-01  0.13426547333E+01  0.59050710447E+01  0.00000000000E+00 0. -1.
        -12    1    6    6    0    0 -0.36117540052E+02 -0.75343926642E+02 -0.47137827107E+03  0.47872607869E+03  0.00000000000E+00 0.  1.
</event>
<event>
12    1  0.1066489E+000  0.2217206E+03  0.7818608E-02  0.1134372E+00
         21   -1    0    0  503  502  0.00000000000E+00  0.00000000000E+00  0.78211373389E+03  0.78211373389E+03  0.00000000000E+00 0.  1.
         21   -1    0    0  501  503 -0.00000000000E+00 -0.00000000000E+00 -0.63590931613E+02  0.63590931613E+02  0.00000000000E+00 0. -1.
          6    2    1    2  501    0  0.20563622930E+02 -0.12286685522E+03  0.44907592002E+03  0.49676107115E+03  0.17199782897E+03 0.  0.
         24    2    3    3    0    0  0.24311440866E+02 -0.60512233290E+01  0.11275164956E+03  0.14067675123E+03  0.80307847668E+02 0.  0.
         -6    2    1    2    0  502 -0.20563622930E+02  0.12286685522E+03  0.26944688226E+03  0.34894359435E+03  0.18341451137E+03 0.  0.
        -24    2    5    5    0    0 -0.65400173724E+02  0.12246744309E+03  0.25578221690E+03  0.30183426516E+03  0.80024520027E+02 0.  0.
          5    1    3    3  501    0 -0.37478179363E+01 -0.11681563189E+03  0.33632427046E+03  0.35608431992E+03  0.47000000000E+01 0. -1.
        -11    1    4    4    0    0  0.23841623664E+02  0.11306407106E+01  0.12457179859E+03  0.12683782705E+03  0.00000000000E+00 0.  1.
         12    1    4    4    0    0  0.46981720159E+00 -0.71818640396E+01 -0.11820149030E+02  0.13838924177E+02  0.00000000000E+00 0. -1.
         -5    1    5    5    0  502  0.44836550795E+02  0.39941213209E+00  0.13664665360E+02  0.47109329189E+02  0.47000000000E+01 0.  1.
         11    1    6    6    0    0 -0.38464312258E+02  0.40445249362E+01  0.66963894522E+02  0.77330619221E+02  0.00000000000E+00 0. -1.
        -12    1    6    6    0    0 -0.26935861466E+02  0.11842291815E+03  0.18881832238E+03  0.22450364594E+03  0.00000000000E+00 0.  1.
</event>
<event>
12    1  0.1066489E+000  0.1829833E+03  0.7818608E-02  0.1164969E+00
         21   -1    0    0  501  502  0.00000000000E+00  0.00000000000E+00  0.44122181326E+03  0.44122181326E+03  0.00000000000E+00 0. -1.
         21   -1    0    0  502  503 -0.00000000000E+00 -0.00000000000E+00 -0.85851211966E+02  0.85851211966E+02  0.00000000000E+00 0. -1.
         -6    2    1    2    0  503  0.55236986233E+02 -0.28932019134E+02  0.26760653456E+03  0.32413108052E+03  0.17192880398E+03 0.  0.
        -24    2    3    3    0    0  0.82281738368E+02 -0.43517393226E+01  0.26320618825E+03  0.28702229691E+03  0.79467473119E+02 0.  0.
          6    2    1    2  501    0 -0.55236986233E+02  0.28932019134E+02  0.87764066730E+02  0.20294194470E+03  0.17203114582E+03 0.  0.
         24    2    5    5    0    0  0.16815256367E+02 -0.96630658641E+01  0.14387858396E+02  0.92999849950E+02  0.89809987935E+02 0.  0.
          5    1    5    5  501    0 -0.72052242599E+02  0.38595084998E+02  0.73376208334E+02  0.10994209475E+03  0.47000000000E+01 0. -1.
        -13    1    6    6    0    0 -0.21661149821E+01  0.30464004448E+02  0.32912414746E+02  0.44899606519E+02  0.00000000000E+00 0.  1.
         14    1    6    6    0    0  0.18981371349E+02 -0.40127070313E+02 -0.18524556349E+02  0.48100243431E+02  0.00000000000E+00 0. -1.
         -5    1    3    3    0  503 -0.27044752135E+02 -0.24580279812E+02  0.44003463127E+01  0.37108783614E+02  0.47000000000E+01 0.  1.
         11    1    4    4    0    0  0.28366176950E+02 -0.32686368445E+02  0.17190821540E+03  0.17727231369E+03  0.00000000000E+00 0. -1.
        -12    1    4    4    0    0  0.53915561418E+02  0.28334629122E+02  0.91297972846E+02  0.10974998322E+03  0.00000000000E+00 0.  1.
</event>
<event>
12    1  0.1066489E+000  0.2052390E+03  0.7818608E-02  0.1146838E+00
         21   -1    0    0  503  502  0.00000000000E+00  0.00000000000E+00  0.10068823255E+03  0.10068823255E+03  0.00000000000E+00 0.  1.
         21   -1    0    0  501  503 -0.00000000000E+00 -0.00000000000E+00 -0.42552355994E+03  0.42552355994E+03  0.00000000000E+00 0.  1.
          6    2    1    2  501    0  0.32422968885E+02  0.90364485763E+02 -0.10099155414E+03  0.22251934961E+03  0.17348941680E+03 0.  0.
         24    2    3    3    0    0  0.36336985363E+02 -0.10640740116E+02 -0.93151540477E+02  0.12102584738E+03  0.67353131963E+02 0.  0.
         -6    2    1    2    0  502 -0.32422968885E+02 -0.90364485763E+02 -0.22384377325E+03  0.30369244288E+03  0.18140031930E+03 0.  0.
        -24    2    5    5    0    0 -0.55704233771E+02 -0.10055972573E+03 -0.23618645093E+03  0.27504995861E+03  0.81567273061E+02 0.  0.
          5    1    3    3  501    0 -0.39140164776E+01  0.10100522588E+03 -0.78400136669E+01  0.10149350223E+03  0.47000000000E+01 0. -1.
        -13    1    4    4    0    0 -0.49995390452E+01  0.16011130958E+01  0.88489122216E+01  0.10288935869E+02  0.00000000000E+00 0.  1.
         14    1    4    4    0    0  0.41336524408E+02 -0.12241853212E+02 -0.10200045270E+03  0.11073691151E+03  0.00000000000E+00 0. -1.
         -5    1    5    5    0  502  0.23281264886E+02  0.10195239966E+02  0.12342677679E+02  0.28642484266E+02  0.47000000000E+01 0.  1.
         11    1    6    6    0    0 -0.61978943126E+02 -0.50658888164E+02 -0.89970139093E+02  0.12042565453E+03  0.00000000000E+00 0. -1.
        -12    1    6    6    0    0  0.62747093553E+01 -0.49900837564E+02 -0.14621631183E+03  0.15462430408E+03  0.00000000000E+00 0.  1.
</event>
<event>
12    1  0.1066489E+000  0.1727679E+03  0.7818608E-02  0.1175522E+00
         21   -1    0    0  503  502  0.00000000000E+00  0.00000000000E+00  0.36560372091E+03  0.36560372091E+03  0.00000000000E+00 0.  1.
         21   -1    0    0  501  503 -0.00000000000E+00 -0.00000000000E+00 -0.96783795923E+02  0.96783795923E+02  0.00000000000E+00 0.  1.
          6    2    1    2  501    0  0.12414397056E+02  0.41270835982E+01  0.40749009485E+02  0.17750836934E+03  0.17227184720E+03 0.  0.
         24    2    3    3    0    0 -0.32582449549E+02  0.36652069494E+02  0.67387733064E+02  0.11574832962E+03  0.80321722008E+02 0.  0.
         -6    2    1    2    0  502 -0.12414397056E+02 -0.41270835982E+01  0.22807091550E+03  0.28487914749E+03  0.17020175118E+03 0.  0.
        -24    2    5    5    0    0 -0.69693057491E+02  0.16823833297E+02  0.17221795816E+03  0.20204540616E+03  0.77609003385E+02 0.  0.
          5    1    3    3  501    0  0.44996846605E+02 -0.32524985896E+02 -0.26638723579E+02  0.61760039717E+02  0.47000000000E+01 0. -1.
        -13    1    4    4    0    0 -0.25208319308E+02  0.26482625268E+02 -0.95524959513E+01  0.37789403043E+02  0.00000000000E+00 0.  1.
         14    1    4    4    0    0 -0.73741302406E+01  0.10169444226E+02  0.76940229016E+02  0.77958926581E+02  0.00000000000E+00 0. -1.
         -5    1    5    5    0  502  0.57278660435E+02 -0.20950916895E+02  0.55852957338E+02  0.82833741334E+02  0.47000000000E+01 0.  1.
         13    1    6    6    0    0 -0.80752515712E+02 -0.16418841245E+01  0.15379250451E+03  0.17371182752E+03  0.00000000000E+00 0. -1.
        -14    1    6    6    0    0  0.11059458222E+02  0.18465717422E+02  0.18425453654E+02  0.28333578638E+02  0.00000000000E+00 0.  1.
</event>
<event>
12    1  0.1066489E+000  0.2537178E+03  0.7818608E-02  0.1112049E+00
         21   -1    0    0  501  502  0.00000000000E+00  0.00000000000E+00  0.74040200268E+03  0.74040200268E+03  0.00000000000E+00 0.  1.
         21   -1    0    0  502  503 -0.00000000000E+00 -0.00000000000E+00 -0.11914951863E+03  0.11914951863E+03  0.00000000000E+00 0.  1.
         -6    2    1    2    0  503  0.16992102626E+03 -0.51479508088E+02  0.53895609243E+03  0.59282050373E+03  0.17157851019E+03 0.  0.
        -24    2    3    3    0    0  0.26375785412E+02  0.19209229477E+01  0.12221274507E+03  0.14880029048E+03  0.80661015296E+02 0.  0.
          6    2    1    2  501    0 -0.16992102626E+03  0.51479508088E+02  0.82296391615E+02  0.26673101758E+03  0.18124415783E+03 0.  0.
         24    2    5    5    0    0 -0.31709093014E+02 -0.29613251250E+02  0.13390247205E+02  0.92235399164E+02  0.80284861022E+02 0.  0.
          5    1    5    5  501    0 -0.13821193325E+03  0.81092759338E+02  0.68906144410E+02  0.17449561842E+03  0.47000000000E+01 0. -1.
        -13    1    6    6    0    0 -0.31319199338E+02 -0.27846748024E+02 -0.28259525161E+02  0.50546358771E+02  0.00000000000E+00 0.  1.
         14    1    6    6    0    0 -0.38989367628E+00 -0.17665032254E+01  0.41649772366E+02  0.41689040392E+02  0.00000000000E+00 0. -1.
         -5    1    3    3    0  503  0.14354524085E+03 -0.53400431036E+02  0.41674334736E+03  0.44402021325E+03  0.47000000000E+01 0.  1.
         11    1    4    4    0    0  0.51563299251E+02  0.76683746898E+01  0.50516044689E+02  0.72590967558E+02  0.00000000000E+00 0. -1.
        -12    1    4    4    0    0 -0.25187513838E+02 -0.57474517420E+01  0.71696700379E+02  0.76209322921E+02  0.00000000000E+00 0.  1.
</event>
<event>
12    1  0.1066489E+000  0.3306568E+03  0.7818608E-02  0.1070932E+00
         21   -1    0    0  503  502  0.00000000000E+00  0.00000000000E+00  0.23871531694E+03  0.23871531694E+03  0.00000000000E+00 0. -1.
         21   -1    0    0  501  503 -0.00000000000E+00 -0.00000000000E+00 -0.54169546418E+03  0.54169546418E+03  0.00000000000E+00 0. -1.
          6    2    1    2  501    0 -0.24561713437E+03  0.13814889628E+03  0.30042917416E+01  0.32989949884E+03  0.17149856947E+03 0.  0.
         24    2    3    3    0    0 -0.10095682297E+03  0.21642743649E+01  0.21761343055E+02  0.13041932423E+03  0.79615826900E+02 0.  0.
         -6    2    1    2    0  502  0.24561713437E+03 -0.13814889628E+03 -0.30598443898E+03  0.45051128227E+03  0.17297700516E+03 0.  0.
        -24    2    5    5    0    0  0.18102133034E+03 -0.12302433140E+03 -0.13947486040E+03  0.27121013860E+03  0.78727342410E+02 0.  0.
          5    1    3    3  501    0 -0.14466031139E+03  0.13598462191E+03 -0.18757051314E+02  0.19948017461E+03  0.47000000000E+01 0. -1.
        -11    1    4    4    0    0 -0.11332598181E+03  0.54305131488E+01  0.26951817691E+02  0.11661333158E+03  0.00000000000E+00 0.  1.
         12    1    4    4    0    0  0.12369158835E+02 -0.32662387839E+01 -0.51904746359E+01  0.13805992649E+02  0.00000000000E+00 0. -1.
         -5    1    5    5    0  502  0.64595804022E+02 -0.15124564883E+02 -0.16650957858E+03  0.17930114367E+03  0.47000000000E+01 0.  1.
         13    1    6    6    0    0  0.28973870679E+02 -0.60414416902E+02 -0.52960076766E+02  0.85405835180E+02  0.00000000000E+00 0. -1.
        -14    1    6    6    0    0  0.15204745967E+03 -0.62609914494E+02 -0.86514783635E+02  0.18580430342E+03  0.00000000000E+00 0.  1.
</event>
<event>
12    1  0.1066489E+000  0.4286312E+03  0.7818608E-02  0.1034297E+00
         21   -1    0    0  503  502  0.00000000000E+00  0.00000000000E+00  0.13357717054E+03  0.13357717054E+03  0.00000000000E+00 0.  1.
         21   -1    0    0  501  503 -0.00000000000E+00 -0.00000000000E+00 -0.14248171036E+04  0.14248171036E+04  0.00000000000E+00 0.  1.
          6    2    1    2  501    0  0.33642324241E+03  0.20253973054E+03 -0.50035861026E+03  0.65885010489E+03  0.17181903667E+03 0.  0.
         24    2    3    3    0    0  0.95633521553E+02  0.70716613122E+02 -0.10754170782E+03  0.17959627568E+03  0.80888772419E+02 0.  0.
         -6    2    1    2    0  502 -0.33642324241E+03 -0.20253973054E+03 -0.79088132284E+03  0.89954416930E+03  0.17170761549E+03 0.  0.
        -24    2    5    5    0    0 -0.10412414880E+03 -0.10547184819E+03 -0.23110063333E+03  0.28573511672E+03  0.79189046452E+02 0.  0.
          5    1    3    3  501    0  0.24078972085E+03  0.13182311742E+03 -0.39281690245E+03  0.47925382920E+03  0.47000000000E+01 0. -1.
        -11    1    4    4    0    0  0.10082509417E+03  0.33602420954E+02 -0.82204650345E+02  0.13435931991E+03  0.00000000000E+00 0.  1.
         12    1    4    4    0    0 -0.51915726153E+01  0.37114192168E+02 -0.25337057471E+02  0.45236955775E+02  0.00000000000E+00 0. -1.
         -5    1    5    5    0  502 -0.23229909361E+03 -0.97067882352E+02 -0.55978068952E+03  0.61380905258E+03  0.47000000000E+01 0.  1.
         13    1    6    6    0    0 -0.49662412647E+02 -0.11378178838E+02 -0.35988155296E+02  0.62377604195E+02  0.00000000000E+00 0. -1.
        -14    1    6    6    0    0 -0.54461736153E+02 -0.94093669354E+02 -0.19511247803E+03  0.22335751252E+03  0.00000000000E+00 0.  1.
</event>
<event>
12    1  0.1066489E+000  0.2254435E+03  0.7818608E-02  0.1130016E+00
         21   -1    0    0  503  502  0.00000000000E+00  0.00000000000E+00  0.41294512440E+03  0.41294512440E+03  0.00000000000E+00 0. -1.
         21   -1    0    0  501  503 -0.00000000000E+00 -0.00000000000E+00 -0.12913947852E+03  0.12913947852E+03  0.00000000000E+00 0. -1.
          6    2    1    2  501    0  0.18660098847E+02 -0.14448861984E+03  0.81145468712E+02  0.23894118555E+03  0.17112317934E+03 0.  0.
         24    2    3    3    0    0  0.20686361369E+02 -0.22486084926E+02  0.79517759136E+02  0.11682049237E+03  0.79940001605E+02 0.  0.
         -6    2    1    2    0  502 -0.18660098847E+02  0.14448861984E+03  0.20266017716E+03  0.30314341737E+03  0.17204541125E+03 0.  0.
        -24    2    5    5    0    0 -0.34503060955E+02  0.15534790387E+03  0.21556797906E+03  0.27952933581E+03  0.79647118793E+02 0.  0.
          5    1    3    3  501    0 -0.20262625215E+01 -0.12200253492E+03  0.16277095761E+01  0.12212069319E+03  0.47000000000E+01 0. -1.
        -13    1    4    4    0    0  0.19102236840E+01 -0.14793298935E+02 -0.14401771414E+02  0.20734070217E+02  0.00000000000E+00 0.  1.
         14    1    4    4    0    0  0.18776137685E+02 -0.76927859919E+01  0.93919530550E+02  0.96086422149E+02  0.00000000000E+00 0. -1.
         -5    1    5    5    0  502  0.15842962108E+02 -0.10859284030E+02 -0.12907801894E+02  0.23614081556E+02  0.47000000000E+01 0.  1.
         11    1    6    6    0    0 -0.24166781606E+02  0.11226830477E+02  0.67843029785E+02  0.72888625630E+02  0.00000000000E+00 0. -1.
        -12    1    6    6    0    0 -0.10336279349E+02  0.14412107339E+03  0.14772494927E+03  0.20664071018E+03  0.00000000000E+00 0.  1.
</event>
<event>
12    1  0.1066489E+000  0.2078238E+03  0.7818608E-02  0.1144477E+00
         21   -1    0    0  503  502  0.00000000000E+00  0.00000000000E+00  0.37991514399E+03  0.37991514399E+03  0.00000000000E+00 0.  1.
         21   -1    0    0  501  503 -0.00000000000E+00 -0.00000000000E+00 -0.11076627789E+03  0.11076627789E+03  0.00000000000E+00 0.  1.
          6    2    1    2  501    0  0.33568140434E+02  0.10112006537E+03  0.12561166164E+03  0.24283536011E+03  0.17843383901E+03 0.  0.
         24    2    3    3    0    0  0.15101790183E+02  0.97426686002E+02  0.15944880620E+03  0.20382652143E+03  0.80008161001E+02 0.  0.
         -6    2    1    2    0  502 -0.33568140434E+02 -0.10112006537E+03  0.14353720446E+03  0.24784606178E+03  0.17167601347E+03 0.  0.
        -24    2    5    5    0    0 -0.16957147200E+02 -0.84465454904E+02  0.17363376256E+03  0.20935977908E+03  0.79125695468E+02 0.  0.
          5    1    3    3  501    0  0.18466350250E+02  0.36933793720E+01 -0.33837144564E+02  0.39008838678E+02  0.47000000000E+01 0. -1.
        -11    1    4    4    0    0  0.38997453950E+02  0.91546664951E+02  0.10834397392E+03  0.14710543825E+03  0.00000000000E+00 0.  1.
         12    1    4    4    0    0 -0.23895663767E+02  0.58800210512E+01  0.51104832281E+02  0.56721083178E+02  0.00000000000E+00 0. -1.
         -5    1    5    5    0  502 -0.16610993234E+02 -0.16654610469E+02 -0.30096558102E+02  0.38486282695E+02  0.47000000000E+01 0.  1.
         13    1    6    6    0    0 -0.35406034235E+02 -0.85870154046E+02  0.16405738048E+03  0.18852611147E+03  0.00000000000E+00 0. -1.
        -14    1    6    6    0    0  0.18448887035E+02  0.14046991412E+01  0.95763820845E+01  0.20833667616E+02  0.00000000000E+00 0.  1.
</event>
<event>
12    1  0.1066489E+000  0.2613197E+03  0.7818608E-02  0.1106444E+00
         21   -1    0    0  501  502  0.00000000000E+00  0.00000000000E+00  0.11854832464E+03  0.11854832464E+03  0.00000000000E+00 0. -1.
         21   -1    0    0  502  503 -0.00000000000E+00 -0.00000000000E+00 -0.58046423785E+03  0.58046423785E+03  0.00000000000E+00 0. -1.
         -6    2    1    2    0  503  0.55857010190E+00  0.19686723820E+03 -0.26609761832E+03  0.37295566045E+03  0.17184574684E+03 0.  0.
        -24    2    3    3    0    0  0.48233527685E+02  0.80331337066E+02 -0.18762166052E+03  0.22451683875E+03  0.80164371622E+02 0.  0.
          6    2    1    2  501    0 -0.55857010190E+00 -0.19686723820E+03 -0.19581829489E+03  0.32605690205E+03  0.17091306937E+03 0.  0.
         24    2    5    5    0    0  0.54811405179E+02 -0.13483162314E+03 -0.17398590042E+03  0.23995814976E+03  0.78262145075E+02 0.  0.
          5    1    5    5  501    0 -0.55369975280E+02 -0.62035615059E+02 -0.21832394473E+02  0.86098752295E+02  0.47000000000E+01 0. -1.
        -13    1    6    6    0    0  0.48533199961E+01 -0.61844758573E+02 -0.25386307543E+02  0.67028303638E+02  0.00000000000E+00 0.  1.
         14    1    6    6    0    0  0.49958085183E+02 -0.72986864571E+02 -0.14859959288E+03  0.17292984612E+03  0.00000000000E+00 0. -1.
         -5    1    3    3    0  503 -0.47674957583E+02  0.11653590114E+03 -0.78475957794E+02  0.14843882169E+03  0.47000000000E+01 0.  1.
         11    1    4    4    0    0  0.27699653150E+02  0.63870791101E+02 -0.18547728361E+03  0.19811252226E+03  0.00000000000E+00 0. -1.
        -12    1    4    4    0    0  0.20533874535E+02  0.16460545965E+02 -0.21443769095E+01  0.26404316488E+02  0.00000000000E+00 0.  1.
</event>
<event>
12    1  0.1066489E+000  0.1770831E+03  0.7818608E-02  0.1171200E+00
         21   -1    0    0  503  502  0.00000000000E+00  0.00000000000E+00  0.39039599045E+02  0.39039599045E+02  0.00000000000E+00 0.  1.
         21   -1    0    0  501  503 -0.00000000000E+00 -0.00000000000E+00 -0.98485533351E+03  0.98485533351E+03  0.00000000000E+00 0.  1.
          6    2    1    2  501    0 -0.17634801349E+02  0.25825169636E+02 -0.24480846753E+03  0.30086684637E+03  0.17208064349E+03 0.  0.
         24    2    3    3    0    0 -0.36989786579E+02  0.45061205928E+02 -0.64334165166E+02  0.11828069038E+03  0.80328577221E+02 0.  0.
         -6    2    1    2    0  502  0.17634801349E+02 -0.25825169636E+02 -0.70100726694E+03  0.72302808619E+03  0.17430002728E+03 0.  0.
        -24    2    5    5    0    0  0.68402082251E+02 -0.53044579253E+02 -0.44129230053E+03  0.45696011208E+03  0.81123839156E+02 0.  0.
          5    1    3    3  501    0  0.19354985230E+02 -0.19236036292E+02 -0.18047430236E+03  0.18258615599E+03  0.47000000000E+01 0. -1.
        -11    1    4    4    0    0 -0.62084127129E+01  0.59344242843E+02 -0.21031916689E+02  0.63266302774E+02  0.00000000000E+00 0.  1.
         12    1    4    4    0    0 -0.30781373866E+02 -0.14283036915E+02 -0.43302248477E+02  0.55014387607E+02  0.00000000000E+00 0. -1.
         -5    1    5    5    0  502 -0.50767280902E+02  0.27219409617E+02 -0.25971496640E+03  0.26606797410E+03  0.47000000000E+01 0.  1.
         11    1    6    6    0    0  0.54298493840E+02  0.61485537854E+01 -0.15728947439E+03  0.16651159089E+03  0.00000000000E+00 0. -1.
        -12    1    6    6    0    0  0.14103588412E+02 -0.59193133039E+02 -0.28400282614E+03  0.29044852119E+03  0.00000000000E+00 0.  1.
</event>
<event>
12    1  0.1066489E+000  0.4391123E+03  0.7818608E-02  0.1031249E+00
         21   -1    0    0  503  502  0.00000000000E+00  0.00000000000E+00  0.33073347263E+03  0.33073347263E+03  0.00000000000E+00 0.  1.
         21   -1    0    0  501  503 -0.00000000000E+00 -0.00000000000E+00 -0.58415399773E+03  0.58415399773E+03  0.00000000000E+00 0.  1.
          6    2    1    2  501    0 -0.31822048896E+03  0.24885617057E+03 -0.16984029187E+03  0.47081348186E+03  0.17212186593E+03 0.  0.
         24    2    3    3    0    0 -0.94049120304E+02  0.33989586138E+02 -0.34585762158E+02  0.13208596683E+03  0.79056933239E+02 0.  0.
         -6    2    1    2    0  502  0.31822048896E+03 -0.24885617057E+03 -0.83580233233E+02  0.44407398851E+03  0.16438484923E+03 0.  0.
        -24    2    5    5    0    0  0.28768217333E+03 -0.25934930865E+03 -0.52340125741E+02  0.39889956007E+03  0.79738782998E+02 0.  0.
          5    1    3    3  501    0 -0.22417136865E+03  0.21486658443E+03 -0.13525452971E+03  0.33872751503E+03  0.47000000000E+01 0. -1.
        -13    1    4    4    0    0 -0.23194144858E+02  0.14843053791E+02 -0.50006602945E+02  0.57087169658E+02  0.00000000000E+00 0.  1.
         14    1    4    4    0    0 -0.70854975446E+02  0.19146532347E+02  0.15420840787E+02  0.74998797170E+02  0.00000000000E+00 0. -1.
         -5    1    5    5    0  502  0.30538315629E+02  0.10493138082E+02 -0.31240107492E+02  0.45174428435E+02  0.47000000000E+01 0.  1.
         13    1    6    6    0    0  0.96259523633E+02 -0.39904881480E+02 -0.16473901754E+02  0.10549732174E+03  0.00000000000E+00 0. -1.
        -14    1    6    6    0    0  0.19142264969E+03 -0.21944442717E+03 -0.35866223987E+02  0.29340223833E+03  0.00000000000E+00 0.  1.
</event>
<event>
12    1  0.1066489E+000  0.2998431E+03  0.7818608E-02  0.1085343E+00
         21   -1    0    0  503  502  0.00000000000E+00  0.00000000000E+00  0.10898034266E+03  0.10898034266E+03  0.00000000000E+00 0.  1.
         21   -1    0    0  501  503 -0.00000000000E+00 -0.00000000000E+00 -0.83611404842E+03  0.83611404842E+03  0.00000000000E+00 0.  1.
          6    2    1    2  501    0 -0.21361298542E+03 -0.12084682379E+03 -0.41948332721E+03  0.51562794173E+03  0.17225402790E+03 0.  0.
         24    2    3    3    0    0 -0.12677409562E+03 -0.11213011188E+02 -0.28425031366E+03  0.32102418123E+03  0.77851661378E+02 0.  0.
         -6    2    1    2    0  502  0.21361298542E+03  0.12084682379E+03 -0.30765037854E+03  0.42946644935E+03  0.17192502243E+03 0.  0.
        -24    2    5    5    0    0  0.19808005846E+03  0.67698880622E+02 -0.29854104306E+03  0.37315441089E+03  0.79363795115E+02 0.  0.
          5    1    3    3  501    0 -0.86838889810E+02 -0.10963381260E+03 -0.13523301355E+03  0.19460376051E+03  0.47000000000E+01 0. -1.
        -11    1    4    4    0    0 -0.80799793132E+02  0.21402609578E+02 -0.11177935169E+03  0.13957543384E+03  0.00000000000E+00 0.  1.
         12    1    4    4    0    0 -0.45974302483E+02 -0.32615620767E+02 -0.17247096197E+03  0.18144874739E+03  0.00000000000E+00 0. -1.
         -5    1    5    5    0  502  0.15532926964E+02  0.53147943167E+02 -0.91093354832E+01  0.56312038464E+02  0.47000000000E+01 0.  1.
         13    1    6    6    0    0  0.30342271104E+02  0.35674631785E+02 -0.10546037213E+03  0.11539160653E+03  0.00000000000E+00 0. -1.
        -14    1    6    6    0    0  0.16773778736E+03  0.32024248837E+02 -0.19308067093E+03  0.25776280435E+03  0.00000000000E+00 0.  1.
</event>
<event>
12    1  0.1066489E+000  0.1986006E+03  0.7818608E-02  0.1154810E+00
         21   -1    0    0  503  502  0.00000000000E+00  0.00000000000E+00  0.31943696758E+02  0.31943696758E+02  0.00000000000E+00 0. -1.
         21   -1    0    0  501  503 -0.00000000000E+00 -0.00000000000E+00 -0.11294608756E+04  0.11294608756E+04  0.00000000000E+00 0. -1.
          6    2    1    2  501    0 -0.24905611173E+02 -0.47355851289E+02 -0.58486291171E+03  0.61766239037E+03  0.19125725308E+03 0.  0.
         24    2    3    3    0    0 -0.53600231589E+02  0.15603240786E+02 -0.50161157293E+03  0.50931063023E+03  0.68313263857E+02 0.  0.
         -6    2    1    2    0  502  0.24905611173E+02  0.47355851289E+02 -0.51265426710E+03  0.54374218196E+03  0.17314241754E+03 0.  0.
        -24    2    5    5    0    0  0.38209718279E+02  0.44324684015E+02 -0.51866033544E+03  0.52811048027E+03  0.80420616912E+02 0.  0.
          5    1    3    3  501    0  0.28694620416E+02 -0.62959092074E+02 -0.83251338787E+02  0.10835176014E+03  0.47000000000E+01 0. -1.
        -11    1    4    4    0    0 -0.51151812749E+02 -0.17730895973E+02 -0.33948528953E+03  0.34377486008E+03  0.00000000000E+00 0.  1.
         12    1    4    4    0    0 -0.24484188398E+01  0.33334136759E+02 -0.16212628340E+03  0.16553577015E+03  0.00000000000E+00 0. -1.
         -5    1    5    5    0  502 -0.13304107106E+02  0.30311672731E+01  0.60060683415E+01  0.15631701694E+02  0.47000000000E+01 0.  1.
         13    1    6    6    0    0  0.47103918943E+02  0.35242033883E+02 -0.50835022706E+03  0.51174283922E+03  0.00000000000E+00 0. -1.
        -14    1    6    6    0    0 -0.88942006637E+01  0.90826501328E+01 -0.10310108378E+02  0.16367641053E+02  0.00000000000E+00 0.  1.
</event>
<event>
12    1  0.1066489E+000  0.2178479E+03  0.7818608E-02  0.1135505E+00
         21   -1    0    0  501  502  0.00000000000E+00  0.00000000000E+00  0.15186059630E+03  0.15186059630E+03  0.00000000000E+00 0. -1.
         21   -1    0    0  502  503 -0.00000000000E+00 -0.00000000000E+00 -0.32482050710E+03  0.32482050710E+03  0.00000000000E+00 0. -1.
         -6    2    1    2    0  503  0.13394279388E+03  0.35375952211E+01 -0.39982983404E+02  0.22148662816E+03  0.17176874245E+03 0.  0.
        -24    2    3    3    0    0  0.37689981502E+02 -0.19772558229E+02 -0.74312790751E+02  0.11656478670E+03  0.79078883803E+02 0.  0.
          6    2    1    2  501    0 -0.13394279388E+03 -0.35375952211E+01 -0.13297692740E+03  0.25519447524E+03  0.17172119951E+03 0.  0.
         24    2    5    5    0    0 -0.12796106278E+03 -0.45071662490E+02 -0.51566022155E+02  0.16348468654E+03  0.75250911920E+02 0.  0.
          5    1    5    5  501    0 -0.59817311014E+01  0.41534067269E+02 -0.81410905243E+02  0.91709788700E+02  0.47000000000E+01 0. -1.
        -13    1    6    6    0    0 -0.12156432174E+03 -0.13291420902E+02 -0.35703460747E+02  0.12739420434E+03  0.00000000000E+00 0.  1.
         14    1    6    6    0    0 -0.63967410433E+01 -0.31780241588E+02 -0.15862561408E+02  0.36090482205E+02  0.00000000000E+00 0. -1.
         -5    1    3    3    0  503  0.96252812379E+02  0.23310153450E+02  0.34329807348E+02  0.10492184147E+03  0.47000000000E+01 0.  1.
         13    1    4    4    0    0  0.33478318152E+02  0.26838859503E+02 -0.38232107056E+02  0.57470132901E+02  0.00000000000E+00 0. -1.
        -14    1    4    4    0    0  0.42116633507E+01 -0.46611417732E+02 -0.36080683695E+02  0.59094653795E+02  0.00000000000E+00 0.  1.
</event>
<event>
12    1  0.1066489E+000  0.3042724E+03  0.7818608E-02  0.1083159E+00
         21   -1    0    0  503  502  0.00000000000E+00  0.00000000000E+00  0.20052338976E+03  0.20052338976E+03  0.00000000000E+00 0. -1.
         21   -1    0    0  501  503 -0.00000000000E+00 -0.00000000000E+00 -0.76595084071E+03  0.76595084071E+03  0.00000000000E+00 0. -1.
          6    2    1    2  501    0 -0.14251667714E+03 -0.20562329527E+03  0.21984040158E+02  0.30506552991E+03  0.17317545063E+03 0.  0.
         24    2    3    3    0    0 -0.15706349169E+03 -0.19505596424E+03 -0.15269964170E+02  0.26343346130E+03  0.80300978318E+02 0.  0.
         -6    2    1    2    0  502  0.14251667714E+03  0.20562329527E+03 -0.58741149111E+03  0.66140870055E+03  0.17267676875E+03 0.  0.
        -24    2    5    5    0    0  0.12292902710E+03  0.63307573968E+02 -0.31522367986E+03  0.35360074882E+03  0.80920495496E+02 0.  0.
          5    1    3    3  501    0  0.14546814550E+02 -0.10567331028E+02  0.37254004329E+02  0.41632068615E+02  0.47000000000E+01 0. -1.
        -11    1    4    4    0    0 -0.22001727831E+02 -0.32578099858E+02 -0.33111092641E+02  0.51397987060E+02  0.00000000000E+00 0.  1.
         12    1    4    4    0    0 -0.13506176386E+03 -0.16247786438E+03  0.17841128471E+02  0.21203547424E+03  0.00000000000E+00 0. -1.
         -5    1    5    5    0  502  0.19587650039E+02  0.14231572130E+03 -0.27218781124E+03  0.30780795174E+03  0.47000000000E+01 0.  1.
         13    1    6    6    0    0  0.10650246037E+03  0.71480148017E+02 -0.20471246021E+03  0.24157685525E+03  0.00000000000E+00 0. -1.
        -14    1    6    6    0    0  0.16426566727E+02 -0.81725740488E+01 -0.11051121966E+03  0.11202389357E+03  0.00000000000E+00 0.  1.
</event>
<event>
12    1  0.1066489E+000  0.2976241E+03  0.7818608E-02  0.1086453E+00
         21   -1    0    0  503  502  0.00000000000E+00  0.00000000000E+00  0.63061390100E+03  0.63061390100E+03  0.00000000000E+00 0.  1.
         21   -1    0    0  501  503 -0.00000000000E+00 -0.00000000000E+00 -0.20409686240E+03  0.20409686240E+03  0.00000000000E+00 0. -1.
          6    2    1    2  501    0  0.16371863082E+03 -0.18204494347E+03 -0.19867203817E+02  0.29828643570E+03  0.16922157195E+03 0.  0.
         24    2    3    3    0    0  0.94825880612E+02 -0.18877450880E+03  0.17366221079E+01  0.22562067089E+03  0.79208007617E+02 0.  0.
         -6    2    1    2    0  502 -0.16371863082E+03  0.18204494347E+03  0.44638424242E+03  0.53642432770E+03  0.16896158125E+03 0.  0.
        -24    2    5    5    0    0 -0.17733273278E+02  0.28186863922E+02  0.13162255638E+03  0.15684424094E+03  0.78528022320E+02 0.  0.
          5    1    3    3  501    0  0.68892750208E+02  0.67295653284E+01 -0.21603825925E+02  0.72665764809E+02  0.47000000000E+01 0. -1.
        -11    1    4    4    0    0  0.55735382748E+02 -0.11076308883E+03  0.40077178072E+02  0.13031145360E+03  0.00000000000E+00 0.  1.
         12    1    4    4    0    0  0.39090497865E+02 -0.78011419971E+02 -0.38340555964E+02  0.95309217293E+02  0.00000000000E+00 0. -1.
         -5    1    5    5    0  502 -0.14598535754E+03  0.15385807955E+03  0.31476168605E+03  0.37958008676E+03  0.47000000000E+01 0.  1.
         11    1    6    6    0    0  0.13018786026E+01  0.25673344756E+02  0.19743986491E+01  0.25782043536E+02  0.00000000000E+00 0. -1.
        -12    1    6    6    0    0 -0.19035151881E+02  0.25135191660E+01  0.12964815773E+03  0.13106219740E+03  0.00000000000E+00 0.  1.
</event>
<event>
12    1  0.1066489E+000  0.1997593E+03  0.7818608E-02  0.1149995E+00
         21   -1    0    0  503  502  0.00000000000E+00  0.00000000000E+00  0.47595565534E+03  0.47595565534E+03  0.00000000000E+00 0.  1.
         21   -1    0    0  501  503 -0.00000000000E+00 -0.00000000000E+00 -0.84972875026E+02  0.84972875026E+02  0.00000000000E+00 0.  1.
          6    2    1    2  501    0  0.84796652120E+02 -0.56539031857E+02  0.22945691724E+03  0.30422729212E+03  0.17180405719E+03 0.  0.
         24    2    3    3    0    0  0.77880070291E+02  0.15056638393E+02  0.79772952840E+02  0.13809132882E+03  0.80084226805E+02 0.  0.
         -6    2    1    2    0  502 -0.84796652120E+02  0.56539031857E+02  0.16152586307E+03  0.25670123824E+03  0.17151614192E+03 0.  0.
        -24    2    5    5    0    0 -0.39253549319E+02  0.21441377489E+02  0.17500485873E+03  0.19745773330E+03  0.79763914506E+02 0.  0.
          5    1    3    3  501    0  0.69165818292E+01 -0.71595670250E+02  0.14968396440E+03  0.16613596330E+03  0.47000000000E+01 0. -1.
        -13    1    4    4    0    0 -0.14796930417E+02  0.92704589034E+01  0.32397345276E+01  0.17759122666E+02  0.00000000000E+00 0.  1.
         14    1    4    4    0    0  0.92677000708E+02  0.57861794898E+01  0.76533218313E+02  0.12033220616E+03  0.00000000000E+00 0. -1.
         -5    1    5    5    0  502 -0.45543102801E+02  0.35097654368E+02 -0.13478995652E+02  0.59243504949E+02  0.47000000000E+01 0.  1.
         11    1    6    6    0    0 -0.52554055404E+02  0.18109579213E+02  0.60595048063E+02  0.82229225026E+02  0.00000000000E+00 0. -1.
        -12    1    6    6    0    0  0.13300506084E+02  0.33317982761E+01  0.11440981066E+03  0.11522850827E+03  0.00000000000E+00 0.  1.
</event>
<event>
12    1  0.1066489E+000  0.2610586E+03  0.7818608E-02  0.1107314E+00
         21   -1    0    0  501  502  0.00000000000E+00  0.00000000000E+00  0.13729255367E+04  0.13729255367E+04  0.00000000000E+00 0. -1.
         21   -1    0    0  502  503 -0.00000000000E+00 -0.00000000000E+00 -0.72548323449E+02  0.72548323449E+02  0.00000000000E+00 0.  1.
         -6    2    1    2    0  503 -0.18146121611E+03  0.57198270377E+02  0.23073035133E+03  0.34443072361E+03  0.17086899442E+03 0.  0.
        -24    2    3    3    0    0 -0.38893284779E+02  0.20468756114E+01  0.14230420680E+03  0.16777126469E+03  0.79873854814E+02 0.  0.
          6    2    1    2  501    0  0.18146121611E+03 -0.57198270377E+02  0.10696468619E+04  0.11010431366E+04  0.17875056426E+03 0.  0.
         24    2    5    5    0    0  0.14323950453E+03 -0.18781454432E+02  0.99517256244E+03  0.10088191577E+04  0.80482080619E+02 0.  0.
          5    1    5    5  501    0  0.38221711579E+02 -0.38416815944E+02  0.74474299497E+02  0.92223978817E+02  0.47000000000E+01 0. -1.
        -11    1    6    6    0    0  0.95269793157E+02 -0.25443620109E+02  0.41188392888E+03  0.42352341395E+03  0.00000000000E+00 0.  1.
         12    1    6    6    0    0  0.47969711375E+02  0.66621656766E+01  0.58328863356E+03  0.58529574379E+03  0.00000000000E+00 0. -1.
         -5    1    3    3    0  503 -0.14256793133E+03  0.55151394765E+02  0.88426144535E+02  0.17665945892E+03  0.47000000000E+01 0.  1.
         13    1    4    4    0    0 -0.15752474011E+02  0.37219813026E+02  0.10102073222E+03  0.10880552953E+03  0.00000000000E+00 0. -1.
        -14    1    4    4    0    0 -0.23140810768E+02 -0.35172937414E+02  0.41283474583E+02  0.58965735160E+02  0.00000000000E+00 0.  1.
</event>
<event>
12    1  0.1066489E+000  0.1735064E+03  0.7818608E-02  0.1174651E+00
         21   -1    0    0  503  502  0.00000000000E+00  0.00000000000E+00  0.12064419332E+03  0.12064419332E+03  0.00000000000E+00 0.  1.
         21   -1    0    0  501  503 -0.00000000000E+00 -0.00000000000E+00 -0.38643044274E+03  0.38643044274E+03  0.00000000000E+00 0.  1.
          6    2    1    2  501    0  0.68514089956E+01 -0.19269437423E+01 -0.28467103977E+03  0.33254355880E+03  0.17174679821E+03 0.  0.
         24    2    3    3    0    0  0.69908386787E+02 -0.24398699658E+02 -0.16981623848E+03  0.19952146423E+03  0.74086306095E+02 0.  0.
         -6    2    1    2    0  502 -0.68514089956E+01  0.19269437423E+01  0.18884790359E+02  0.17453107726E+03  0.17336033776E+03 0.  0.
        -24    2    5    5    0    0  0.36102874431E+02  0.50375953465E+02  0.36891123111E+02  0.10716123960E+03  0.79255423023E+02 0.  0.
          5    1    3    3  501    0 -0.63056977791E+02  0.22471755916E+02 -0.11485480130E+03  0.13302209457E+03  0.47000000000E+01 0. -1.
        -13    1    4    4    0    0  0.47795367847E+02  0.17659257366E+02 -0.12151522464E+03  0.13176568740E+03  0.00000000000E+00 0.  1.
         14    1    4    4    0    0  0.22113018940E+02 -0.42057957025E+02 -0.48301013841E+02  0.67755776830E+02  0.00000000000E+00 0. -1.
         -5    1    5    5    0  502 -0.42954283426E+02 -0.48449009723E+02 -0.18006332752E+02  0.67369837665E+02  0.47000000000E+01 0.  1.
         13    1    6    6    0    0 -0.44044560471E-01  0.41266588823E+02 -0.14442172461E+02  0.43720814704E+02  0.00000000000E+00 0. -1.
        -14    1    6    6    0    0  0.36146918991E+02  0.91093646426E+01  0.51333295572E+02  0.63440424896E+02  0.00000000000E+00 0.  1.
</event>
<event>
12    1  0.1066489E+000  0.1896632E+03  0.7818608E-02  0.1158997E+00
         21   -1    0    0  503  502  0.00000000000E+00  0.00000000000E+00  0.31046369920E+03  0.31046369920E+03  0.00000000000E+00 0. -1.
         21   -1    0    0  501  503 -0.00000000000E+00 -0.00000000000E+00 -0.15110620463E+03  0.15110620463E+03  0.00000000000E+00 0. -1.
          6    2    1    2  501    0 -0.18493870323E+02  0.75635284978E+02  0.19227365630E+03  0.27007644039E+03  0.17294335829E+03 0.  0.
         24    2    3    3    0    0  0.22238592383E+02 -0.17198004614E+02  0.90830544766E+02  0.12658446134E+03  0.83565014433E+02 0.  0.
         -6    2    1    2    0  502  0.18493870323E+02 -0.75635284978E+02 -0.32916161733E+02  0.19149346343E+03  0.17182419289E+03 0.  0.
        -24    2    5    5    0    0  0.40549606938E+02 -0.10355839517E+03 -0.73774372454E+01  0.14744267401E+03  0.96521001366E+02 0.  0.
          5    1    3    3  501    0 -0.40732462707E+02  0.92833289592E+02  0.10144311153E+03  0.14349197905E+03  0.47000000000E+01 0. -1.
        -11    1    4    4    0    0 -0.33310775100E+01 -0.14682834489E+02 -0.12833823380E+02  0.19783546916E+02  0.00000000000E+00 0.  1.
         12    1    4    4    0    0  0.25569669893E+02 -0.25151701242E+01  0.10366436815E+03  0.10680091443E+03  0.00000000000E+00 0. -1.
         -5    1    5    5    0  502 -0.22055736614E+02  0.27923110196E+02 -0.25538724488E+02  0.44050789426E+02  0.47000000000E+01 0.  1.
         13    1    6    6    0    0  0.50387610654E+02 -0.78613580629E+02 -0.43045092292E+02  0.10281967874E+03  0.00000000000E+00 0. -1.
        -14    1    6    6    0    0 -0.98380037165E+01 -0.24944814544E+02  0.35667655047E+02  0.44622995264E+02  0.00000000000E+00 0.  1.
</event>
<event>
12    1  0.1179083E+000  0.2397352E+03  0.7818608E-02  0.1120208E+00
         21   -1    0    0  501  502  0.00000000000E+00  0.00000000000E+00  0.20444909119E+04  0.20444909119E+04  0.00000000000E+00 0. -1.
         21   -1    0    0  502  503 -0.00000000000E+00 -0.00000000000E+00 -0.25192720347E+03  0.25192720347E+03  0.00000000000E+00 0. -1.
         -6    2    1    2    0  503 -0.27824891310E+00  0.16601898608E+03  0.19792362847E+04  0.19937023945E+04  0.17294677183E+03 0.  0.
        -24    2    3    3    0    0 -0.64803579815E+02  0.12331922952E+03  0.12928309981E+04  0.13029339130E+04  0.82569096159E+02 0.  0.
          6    2    1    2  501    0  0.27824891310E+00 -0.16601898608E+03 -0.18667257624E+03  0.30271572092E+03  0.17096132842E+03 0.  0.
         24    2    5    5    0    0 -0.30901199359E+01 -0.77471074795E+02 -0.20315909896E+02  0.11417206832E+03  0.81309339673E+02 0.  0.
          5    1    5    5  501    0  0.33683688489E+01 -0.88547911285E+02 -0.16635666634E+03  0.18854365261E+03  0.47000000000E+01 0. -1.
        -11    1    6    6    0    0  0.22274231569E+02 -0.13759171823E+02 -0.35329054340E+02  0.43972699278E+02  0.00000000000E+00 0.  1.
         12    1    6    6    0    0 -0.25364351505E+02 -0.63711902972E+02  0.15013144444E+02  0.70199369041E+02  0.00000000000E+00 0. -1.
         -5    1    3    3    0  503  0.64525330902E+02  0.42699756559E+02  0.68640528665E+03  0.69076848153E+03  0.47000000000E+01 0.  1.
         13    1    4    4    0    0  0.15797160720E+02  0.38159288969E+02  0.23252549445E+03  0.23616474587E+03  0.00000000000E+00 0. -1.
        -14    1    4    4    0    0 -0.80600740535E+02  0.85159940553E+02  0.10603055036E+04  0.10667691671E+04  0.00000000000E+00 0.  1.
</event>
<event>
12    1  0.1066489E+000  0.2121671E+03  0.7818608E-02  0.1140026E+00
         21   -1    0    0  503  502  0.00000000000E+00  0.00000000000E+00  0.77750655099E+02  0.77750655099E+02  0.00000000000E+00 0.  1.
         21   -1    0    0  501  503 -0.00000000000E+00 -0.00000000000E+00 -0.67593444036E+03  0.67593444036E+03  0.00000000000E+00 0.  1.
          6    2    1    2  501    0  0.11717861986E+03  0.37069354829E+02 -0.44401408367E+03  0.49210100961E+03  0.17294487891E+03 0.  0.
         24    2    3    3    0    0 -0.30264176895E+01  0.43089187280E+02 -0.19650636579E+03  0.21684176845E+03  0.80868804140E+02 0.  0.
         -6    2    1    2    0  502 -0.11717861986E+03 -0.37069354829E+02 -0.15416970159E+03  0.26158408585E+03  0.17190977593E+03 0.  0.
        -24    2    5    5    0    0 -0.61864436631E+02 -0.88282888327E+02 -0.82769503565E+02  0.15764870613E+03  0.79882707343E+02 0.  0.
          5    1    3    3  501    0  0.12020503755E+03 -0.60198324505E+01 -0.24750771788E+03  0.27525924116E+03  0.47000000000E+01 0. -1.
        -13    1    4    4    0    0 -0.34848140962E+02  0.11258062030E+02 -0.13940005584E+03  0.14413019274E+03  0.00000000000E+00 0.  1.
         14    1    4    4    0    0  0.31821723273E+02  0.31831125250E+02 -0.57106309951E+02  0.72711575715E+02  0.00000000000E+00 0. -1.
         -5    1    5    5    0  502 -0.55314183227E+02  0.51213533498E+02 -0.71400198022E+02  0.10393537972E+03  0.47000000000E+01 0.  1.
         11    1    6    6    0    0 -0.22494539965E+02 -0.71489105941E+02 -0.86776153939E+02  0.11465948495E+03  0.00000000000E+00 0. -1.
        -12    1    6    6    0    0 -0.39369896666E+02 -0.16793782386E+02  0.40066503740E+01  0.42989221179E+02  0.00000000000E+00 0.  1.
</event>
<event>
12    1  0.1066489E+000  0.2197354E+03  0.7818608E-02  0.1134408E+00
         21   -1    0    0  503  502  0.00000000000E+00  0.00000000000E+00  0.40064218139E+03  0.40064218139E+03  0.00000000000E+00 0. -1.
         21   -1    0    0  501  503 -0.00000000000E+00 -0.00000000000E+00 -0.28564962266E+03  0.28564962266E+03  0.00000000000E+00 0. -1.
          6    2    1    2  501    0  0.11628417239E+03  0.71388440620E+02  0.31924837765E+03  0.38756055413E+03  0.17223628620E+03 0.  0.
         24    2    3    3    0    0  0.90679063786E+02 -0.19843974872E+02  0.15499768058E+03  0.19787830217E+03  0.80715955884E+02 0.  0.
         -6    2    1    2    0  502 -0.11628417239E+03 -0.71388440620E+02 -0.20425581892E+03  0.29873124991E+03  0.17000471143E+03 0.  0.
        -24    2    5    5    0    0  0.69475364956E+01 -0.19206957689E+02 -0.62011855128E+02  0.10337415004E+03  0.80147172331E+02 0.  0.
          5    1    3    3  501    0  0.25605108609E+02  0.91232415492E+02  0.16425069707E+03  0.18968225197E+03  0.47000000000E+01 0. -1.
        -11    1    4    4    0    0  0.43327351453E+02  0.25137724549E+02  0.34511953285E+02  0.60829593941E+02  0.00000000000E+00 0.  1.
         12    1    4    4    0    0  0.47351712333E+02 -0.44981699422E+02  0.12048572730E+03  0.13704870822E+03  0.00000000000E+00 0. -1.
         -5    1    5    5    0  502 -0.12323170889E+03 -0.52181482931E+02 -0.14224396379E+03  0.19535709988E+03  0.47000000000E+01 0.  1.
         11    1    6    6    0    0  0.24383918407E+02 -0.42522795076E+02 -0.54510778263E+02  0.73308857069E+02  0.00000000000E+00 0. -1.
        -12    1    6    6    0    0 -0.17436381912E+02  0.23315837386E+02 -0.75010768654E+01  0.30065292969E+02  0.00000000000E+00 0.  1.
</event>
<event>
12    1  0.1066489E+000  0.2725827E+03  0.7818608E-02  0.1099950E+00
         21   -1    0    0  501  502  0.00000000000E+00  0.00000000000E+00  0.99926814578E+03  0.99926814578E+03  0.00000000000E+00 0. -1.
         21   -1    0    0  502  503 -0.00000000000E+00 -0.00000000000E+00 -0.11558335935E+03  0.11558335935E+03  0.00000000000E+00 0. -1.
         -6    2    1    2    0  503 -0.13728594468E+03 -0.16025928376E+03  0.10835812781E+03  0.29333059308E+03  0.17254241314E+03 0.  0.
        -24    2    3    3    0    0 -0.87467716371E+02 -0.16437668010E+03  0.12770651160E+03  0.23952298413E+03  0.79950062260E+02 0.  0.
          6    2    1    2  501    0  0.13728594468E+03  0.16025928376E+03  0.77532665862E+03  0.82152091206E+03  0.17098161521E+03 0.  0.
         24    2    5    5    0    0  0.13044435109E+03  0.13870981113E+03  0.77046084476E+03  0.79792105363E+03  0.82534562933E+02 0.  0.
          5    1    5    5  501    0  0.68415935905E+01  0.21549472629E+02  0.48658138624E+01  0.23599858431E+02  0.47000000000E+01 0. -1.
        -11    1    6    6    0    0  0.13084305839E+03  0.10080668310E+03  0.55148941021E+03  0.57569302833E+03  0.00000000000E+00 0.  1.
         12    1    6    6    0    0 -0.39870729586E+00  0.37903128028E+02  0.21897143455E+03  0.22222802530E+03  0.00000000000E+00 0. -1.
         -5    1    3    3    0  503 -0.49818228312E+02  0.41173963438E+01 -0.19348383787E+02  0.53807608941E+02  0.47000000000E+01 0.  1.
         13    1    4    4    0    0 -0.60011092645E+02 -0.34450301379E+02  0.34803630148E+02  0.77456098385E+02  0.00000000000E+00 0. -1.
        -14    1    4    4    0    0 -0.27456623726E+02 -0.12992637873E+03  0.92902881447E+02  0.16206688575E+03  0.00000000000E+00 0.  1.
</event>
<event>
12    1  0.1066489E+000  0.1788416E+03  0.7818608E-02  0.1168992E+00
         21   -1    0    0  503  502  0.00000000000E+00  0.00000000000E+00  0.42615781409E+02  0.42615781409E+02  0.00000000000E+00 0. -1.
         21   -1    0    0  501  503 -0.00000000000E+00 -0.00000000000E+00 -0.92327537353E+03  0.92327537353E+03  0.00000000000E+00 0. -1.
          6    2    1    2  501    0 -0.61624305650E+01  0.48442481896E+02 -0.23051634073E+03  0.29159852080E+03  0.17177678652E+03 0.  0.
         24    2    3    3    0    0  0.10744118369E+02  0.16347945193E+02 -0.28292979434E+02  0.86093609576E+02  0.78923542324E+02 0.  0.
         -6    2    1    2    0  502  0.61624305650E+01 -0.48442481896E+02 -0.65014325139E+03  0.67429263414E+03  0.17204551585E+03 0.  0.
        -24    2    5    5    0    0  0.58588814571E+02 -0.12081004792E+02 -0.23161138390E+03  0.25089955807E+03  0.75684577151E+02 0.  0.
          5    1    3    3  501    0 -0.16906548934E+02  0.32094536702E+02 -0.20222336130E+03  0.20550491123E+03  0.47000000000E+01 0. -1.
        -13    1    4    4    0    0  0.10919008625E+02  0.48215557876E+02 -0.17765342350E+02  0.52531630086E+02  0.00000000000E+00 0.  1.
         14    1    4    4    0    0 -0.17489025630E+00 -0.31867612683E+02 -0.10527637084E+02  0.33561979490E+02  0.00000000000E+00 0. -1.
         -5    1    5    5    0  502 -0.52426384006E+02 -0.36361477103E+02 -0.41853186750E+03  0.42339307607E+03  0.47000000000E+01 0.  1.
         11    1    6    6    0    0  0.37953700190E+02 -0.43919004716E+02 -0.12753192669E+03  0.14012050050E+03  0.00000000000E+00 0. -1.
        -12    1    6    6    0    0  0.20635114381E+02  0.31837999923E+02 -0.10407945720E+03  0.11077905757E+03  0.00000000000E+00 0.  1.
</event>
<event>
12    1  0.1066489E+000  0.1966247E+03  0.7818608E-02  0.1153130E+00
         21   -1    0    0  501  502  0.00000000000E+00  0.00000000000E+00  0.69832482253E+02  0.69832482253E+02  0.00000000000E+00 0. -1.
         21   -1    0    0  502  503 -0.00000000000E+00 -0.00000000000E+00 -0.14708028609E+04  0.14708028609E+04  0.00000000000E+00 0. -1.
         -6    2    1    2    0  503 -0.71241817921E+02  0.67389345331E+02 -0.91568360223E+02  0.21690094209E+03  0.17042456865E+03 0.  0.
        -24    2    3    3    0    0 -0.54075924947E+02  0.87113081764E+02 -0.12111207299E+03  0.17716915853E+03  0.78790112560E+02 0.  0.
          6    2    1    2  501    0  0.71241817921E+02 -0.67389345331E+02 -0.13094020184E+04  0.13237344010E+04  0.16769734113E+03 0.  0.
         24    2    5    5    0    0  0.49305379026E+02 -0.30071844627E+02 -0.35789136604E+03  0.37122801536E+03  0.79929176527E+02 0.  0.
          5    1    5    5  501    0  0.21936438894E+02 -0.37317500704E+02 -0.95151065237E+03  0.95250638569E+03  0.47000000000E+01 0. -1.
        -13    1    6    6    0    0  0.21210032626E+02  0.86196530972E+01 -0.27168964847E+03  0.27265257928E+03  0.00000000000E+00 0.  1.
         14    1    6    6    0    0  0.28095346400E+02 -0.38691497724E+02 -0.86201717571E+02  0.98575436077E+02  0.00000000000E+00 0. -1.
         -5    1    3    3    0  503 -0.17165892974E+02 -0.19723736433E+02  0.29543712770E+02  0.39731783558E+02  0.47000000000E+01 0.  1.
         13    1    4    4    0    0  0.34257812012E+01  0.35040608776E+02 -0.84189489639E+02  0.91254865108E+02  0.00000000000E+00 0. -1.
        -14    1    4    4    0    0 -0.57501706148E+02  0.52072472988E+02 -0.36922583353E+02  0.85914293424E+02  0.00000000000E+00 0.  1.
</event>
<event>
12    1  0.1066489E+000  0.1723744E+03  0.7818608E-02  0.1175400E+00
         21   -1    0    0  503  502  0.00000000000E+00  0.00000000000E+00  0.58824489344E+02  0.58824489344E+02  0.00000000000E+00 0. -1.
         21   -1    0    0  501  503 -0.00000000000E+00 -0.00000000000E+00 -0.55423632434E+03  0.55423632434E+03  0.00000000000E+00 0. -1.
          6    2    1    2  501    0 -0.73253921233E+01 -0.33334232343E+01 -0.15639723520E+03  0.23275101369E+03  0.17218642837E+03 0.  0.
         24    2    3    3    0    0  0.37184069498E+01  0.56462275966E+02 -0.14190974392E+03  0.17006554054E+03  0.74713435883E+02 0.  0.
         -6    2    1    2    0  502  0.73253921233E+01  0.33334232343E+01 -0.33901459979E+03  0.38030979999E+03  0.17216234204E+03 0.  0.
        -24    2    5    5    0    0 -0.11179372315E+01  0.32234715215E+02 -0.75772629135E+02  0.11530980074E+03  0.80712651864E+02 0.  0.
          5    1    3    3  501    0 -0.11043799073E+02 -0.59795699200E+02 -0.14487491278E+02  0.62685473153E+02  0.47000000000E+01 0. -1.
        -11    1    4    4    0    0 -0.68965137936E+01  0.30342213399E+02 -0.65466707577E+01  0.31797338167E+02  0.00000000000E+00 0.  1.
         12    1    4    4    0    0  0.10614920743E+02  0.26120062567E+02 -0.13536307317E+03  0.13826820237E+03  0.00000000000E+00 0. -1.
         -5    1    5    5    0  502  0.84433293548E+01 -0.28901291981E+02 -0.26324197066E+03  0.26499999925E+03  0.47000000000E+01 0.  1.
         13    1    6    6    0    0  0.27344765727E+02  0.19445987449E+02 -0.77092443262E+02  0.84078103265E+02  0.00000000000E+00 0. -1.
        -14    1    6    6    0    0 -0.28462702958E+02  0.12788727767E+02  0.13198141271E+01  0.31231697471E+02  0.00000000000E+00 0.  1.
</event>
<event>
12    1  0.1066489E+000  0.1904605E+03  0.7818608E-02  0.1158339E+00
         21   -1    0    0  501  502  0.00000000000E+00  0.00000000000E+00  0.75973210082E+02  0.75973210082E+02  0.00000000000E+00 0.  1.
         21   -1    0    0  502  503 -0.00000000000E+00 -0.00000000000E+00 -0.53582267434E+03  0.53582267434E+03  0.00000000000E+00 0.  1.
         -6    2    1    2    0  503 -0.77697977602E+02  0.22935356169E+01 -0.12690703597E+03  0.22886810154E+03  0.17387632414E+03 0.  0.
        -24    2    3    3    0    0 -0.63809737631E+02 -0.49329318564E+02 -0.13269282344E+03  0.17489248094E+03  0.80466951033E+02 0.  0.
          6    2    1    2  501    0  0.77697977602E+02 -0.22935356169E+01 -0.33294242828E+03  0.38292778288E+03  0.17245518351E+03 0.  0.
         24    2    5    5    0    0  0.23559265631E+02 -0.67106982213E+02 -0.17856781193E+03  0.20690109409E+03  0.76571621482E+02 0.  0.
          5    1    5    5  501    0  0.54138711971E+02  0.64813446596E+02 -0.15437461635E+03  0.17602668879E+03  0.47000000000E+01 0. -1.
        -13    1    6    6    0    0  0.31745949820E+02 -0.81767658486E+02 -0.14957435105E+03  0.17339619891E+03  0.00000000000E+00 0.  1.
         14    1    6    6    0    0 -0.81866841889E+01  0.14660676273E+02 -0.28993460885E+02  0.33504895178E+02  0.00000000000E+00 0. -1.
         -5    1    3    3    0  503 -0.13888239971E+02  0.51622854181E+02  0.57857874686E+01  0.53975620607E+02  0.47000000000E+01 0.  1.
         13    1    4    4    0    0 -0.61656785348E+02  0.28307927684E+01 -0.72573426595E+02  0.95270534872E+02  0.00000000000E+00 0. -1.
        -14    1    4    4    0    0 -0.21529522836E+01 -0.52160111333E+02 -0.60119396847E+02  0.79621946064E+02  0.00000000000E+00 0.  1.
</event>
<event>
12    1  0.1066489E+000  0.2195213E+03  0.7818608E-02  0.1134257E+00
         21   -1    0    0  503  502  0.00000000000E+00  0.00000000000E+00  0.19990592120E+03  0.19990592120E+03  0.00000000000E+00 0.  1.
         21   -1    0    0  501  503 -0.00000000000E+00 -0.00000000000E+00 -0.37426378596E+03  0.37426378596E+03  0.00000000000E+00 0.  1.
          6    2    1    2  501    0  0.28376708665E+02 -0.13326623630E+03  0.84140381290E+02  0.23509406450E+03  0.17211765764E+03 0.  0.
         24    2    3    3    0    0  0.35766003790E+00 -0.42421713297E+02  0.10702321715E+03  0.13719866818E+03  0.74630930986E+02 0.  0.
         -6    2    1    2    0  502 -0.28376708665E+02  0.13326623630E+03 -0.25849824605E+03  0.33907564266E+03  0.17200529323E+03 0.  0.
        -24    2    5    5    0    0  0.15270696546E+02  0.87547107910E+02 -0.24719572441E+03  0.27469263498E+03  0.80328247018E+02 0.  0.
          5    1    3    3  501    0  0.28019048627E+02 -0.90844522999E+02 -0.22882835864E+02  0.97895396327E+02  0.47000000000E+01 0. -1.
        -11    1    4    4    0    0 -0.91761446624E+01 -0.25895673417E+02 -0.10117101699E+01  0.27492018661E+02  0.00000000000E+00 0.  1.
         12    1    4    4    0    0  0.95338047003E+01 -0.16526039880E+02  0.10803492732E+03  0.10970664952E+03  0.00000000000E+00 0. -1.
         -5    1    5    5    0  502 -0.43647405212E+02  0.45719128386E+02 -0.11302521642E+02  0.64383007677E+02  0.47000000000E+01 0.  1.
         11    1    6    6    0    0  0.17240027587E+01  0.40619975951E+02 -0.20836592276E+03  0.21229534239E+03  0.00000000000E+00 0. -1.
        -12    1    6    6    0    0  0.13546693788E+02  0.46927131959E+02 -0.38829801647E+02  0.62397292589E+02  0.00000000000E+00 0.  1.
</event>
<event>
12    1  0.1066489E+000  0.2202390E+03  0.7818608E-02  0.1134112E+00
         21   -1    0    0  501  502  0.00000000000E+00  0.00000000000E+00  0.24407070328E+02  0.24407070328E+02  0.00000000000E+00 0. -1.
         21   -1    0    0  502  503 -0.00000000000E+00 -0.00000000000E+00 -0.20396577488E+04  0.20396577488E+04  0.00000000000E+00 0. -1.
         -6    2    1    2    0  503 -0.83653147152E+02 -0.10622160411E+03 -0.12062140536E+04  0.12261555947E+04  0.17385143403E+03 0.  0.
        -24    2    3    3    0    0 -0.99570268510E+02 -0.72429536755E+02 -0.11421209453E+04  0.11518234005E+04  0.84241415035E+02 0.  0.
          6    2    1    2  501    0  0.83653147152E+02  0.10622160411E+03 -0.80903662486E+03  0.83790922442E+03  0.17108690711E+03 0.  0.
         24    2    5    5    0    0  0.12717476870E+00  0.64913517329E+02 -0.52369106732E+03  0.53769742700E+03  0.10321050388E+03 0.  0.
          5    1    5    5  501    0  0.83525972384E+02  0.41308086777E+02 -0.28534555754E+03  0.30021179741E+03  0.47000000000E+01 0. -1.
        -11    1    6    6    0    0  0.42273192705E+02  0.54708316570E+01 -0.11684217566E+03  0.12437462295E+03  0.00000000000E+00 0.  1.
         12    1    6    6    0    0 -0.42146017937E+02  0.59442685672E+02 -0.40684889166E+03  0.41332280405E+03  0.00000000000E+00 0. -1.
         -5    1    3    3    0  503  0.15917121358E+02 -0.33792067351E+02 -0.64093108294E+02  0.74332194229E+02  0.47000000000E+01 0.  1.
         13    1    4    4    0    0 -0.72349170213E+02 -0.60930178298E+00 -0.56553553332E+03  0.57014490538E+03  0.00000000000E+00 0. -1.
        -14    1    4    4    0    0 -0.27221098297E+02 -0.71820234972E+02 -0.57658541201E+03  0.58167849512E+03  0.00000000000E+00 0.  1.
</event>
<event>
12    1  0.1066489E+000  0.3283099E+03  0.7818608E-02  0.1071910E+00
         21   -1    0    0  501  502  0.00000000000E+00  0.00000000000E+00  0.27859098127E+03  0.27859098127E+03  0.00000000000E+00 0.  1.
         21   -1    0    0  502  503 -0.00000000000E+00 -0.00000000000E+00 -0.39894248492E+03  0.39894248492E+03  0.00000000000E+00 0.  1.
         -6    2    1    2    0  503 -0.10059050208E+03  0.26068937206E+03 -0.71998482944E+00  0.32810667978E+03  0.17197696684E+03 0.  0.
        -24    2    3    3    0    0 -0.11199958688E+03  0.24149470081E+03 -0.42312187068E+02  0.28066614956E+03  0.78227669991E+02 0.  0.
          6    2    1    2  501    0  0.10059050208E+03 -0.26068937206E+03 -0.11963151882E+03  0.34942678641E+03  0.17236583465E+03 0.  0.
         24    2    5    5    0    0  0.88013106449E+01 -0.43896071108E+02 -0.43278953653E+02  0.10188609237E+03  0.80643535767E+02 0.  0.
          5    1    5    5  501    0  0.91789191431E+02 -0.21679330095E+03 -0.76352565165E+02  0.24754069405E+03  0.47000000000E+01 0. -1.
        -11    1    6    6    0    0  0.26641656382E+02 -0.30858417953E+02 -0.61131781632E+02  0.73478667236E+02  0.00000000000E+00 0.  1.
         12    1    6    6    0    0 -0.17840345737E+02 -0.13037653155E+02  0.17852827978E+02  0.28407425132E+02  0.00000000000E+00 0. -1.
         -5    1    3    3    0  503  0.11409084804E+02  0.19194671252E+02  0.41592202238E+02  0.47440530220E+02  0.47000000000E+01 0.  1.
         13    1    4    4    0    0 -0.10298167288E+03  0.13587166136E+03 -0.14696138160E+02  0.17112074622E+03  0.00000000000E+00 0. -1.
        -14    1    4    4    0    0 -0.90179140034E+01  0.10562303945E+03 -0.27616048908E+02  0.10954540334E+03  0.00000000000E+00 0.  1.
</event>
<event>
12    1  0.1066489E+000  0.1802840E+03  0.7818608E-02  0.1167978E+00
         21   -1    0    0  501  502  0.00000000000E+00  0.00000000000E+00  0.48016648564E+03  0.48016648564E+03  0.00000000000E+00 0. -1.
         21   -1    0    0  502  503 -0.00000000000E+00 -0.00000000000E+00 -0.90486594771E+02  0.90486594771E+02  0.00000000000E+00 0. -1.
         -6    2    1    2    0  503 -0.25486695510E+02  0.44684266481E+02  0.34096080823E+03  0.38568974301E+03  0.17278903262E+03 0.  0.
        -24    2    3    3    0    0 -0.58278936043E+02  0.67206822224E+02  0.15472570379E+03  0.19519512187E+03  0.79043664191E+02 0.  0.
          6    2    1    2  501    0  0.25486695510E+02 -0.44684266481E+02  0.48719082637E+02  0.18496333740E+03  0.17085558771E+03 0.  0.
         24    2    5    5    0    0  0.63593672903E+02 -0.77173027560E+02  0.36700042538E+02  0.13325058610E+03  0.80056193745E+02 0.  0.
          5    1    5    5  501    0 -0.38106977394E+02  0.32488761079E+02  0.12019040099E+02  0.51712751304E+02  0.47000000000E+01 0. -1.
        -11    1    6    6    0    0  0.23696793304E+02 -0.48540097196E+02  0.58410097200E+02  0.79557642647E+02  0.00000000000E+00 0.  1.
         12    1    6    6    0    0  0.39896879599E+02 -0.28632930364E+02 -0.21710054661E+02  0.53692943450E+02  0.00000000000E+00 0. -1.
         -5    1    3    3    0  503  0.32792240533E+02 -0.22522555744E+02  0.18623510444E+03  0.19049462114E+03  0.47000000000E+01 0.  1.
         13    1    4    4    0    0 -0.32984767838E+02  0.50240054589E+02  0.30705892488E+02  0.67490072070E+02  0.00000000000E+00 0. -1.
        -14    1    4    4    0    0 -0.25294168204E+02  0.16966767635E+02  0.12401981130E+03  0.12770504980E+03  0.00000000000E+00 0.  1.
</event>
<event>
12    1  0.1066489E+000  0.2002101E+03  0.7818608E-02  0.1149952E+00
         21   -1    0    0  501  502  0.00000000000E+00  0.00000000000E+00  0.10610619748E+04  0.10610619748E+04  0.00000000000E+00 0. -1.
         21   -1    0    0  502  503 -0.00000000000E+00 -0.00000000000E+00 -0.39303022179E+02  0.39303022179E+02  0.00000000000E+00 0. -1.
         -6    2    1    2    0  503  0.44481958745E+02  0.89228380864E+02  0.62872848066E+03  0.65927878677E+03  0.17148955561E+03 0.  0.
        -24    2    3    3    0    0 -0.92859563582E+01  0.70007871856E+02  0.19886482879E+03  0.22561386328E+03  0.79793884911E+02 0.  0.
          6    2    1    2  501    0 -0.44481958745E+02 -0.89228380864E+02  0.39303047194E+03  0.44108621019E+03  0.17361953905E+03 0.  0.
         24    2    5    5    0    0  0.13659811122E+02 -0.61872593549E+02  0.10254855084E+03  0.14354521976E+03  0.77937260428E+02 0.  0.
          5    1    5    5  501    0 -0.58141769867E+02 -0.27355787315E+02  0.29048192110E+03  0.29754099043E+03  0.47000000000E+01 0. -1.
        -13    1    6    6    0    0 -0.31758568424E+02 -0.26976991415E+02  0.55627863030E+02  0.69504128506E+02  0.00000000000E+00 0.  1.
         14    1    6    6    0    0  0.45418379546E+02 -0.34895602133E+02  0.46920687811E+02  0.74041091250E+02  0.00000000000E+00 0. -1.
         -5    1    3    3    0  503  0.53767915104E+02  0.19220509008E+02  0.42986365187E+03  0.43366492348E+03  0.47000000000E+01 0.  1.
         11    1    4    4    0    0 -0.14762061789E+01 -0.13347064866E+02  0.74464458966E+02  0.75665573244E+02  0.00000000000E+00 0. -1.
        -12    1    4    4    0    0 -0.78097501792E+01  0.83354936722E+02  0.12440036982E+03  0.14994829004E+03  0.00000000000E+00 0.  1.
</event>
<event>
12    1  0.1066489E+000  0.1718232E+03  0.7818608E-02  0.1177447E+00
         21   -1    0    0  503  502  0.00000000000E+00  0.00000000000E+00  0.14420540999E+04  0.14420540999E+04  0.00000000000E+00 0. -1.
         21   -1    0    0  501  503 -0.00000000000E+00 -0.00000000000E+00 -0.42637356069E+02  0.42637356069E+02  0.00000000000E+00 0. -1.
          6    2    1    2  501    0 -0.49077546863E+01  0.10139134789E+02  0.12484124231E+04  0.12601812589E+04  0.17145360598E+03 0.  0.
         24    2    3    3    0    0 -0.44624984563E+02  0.27904145548E+02  0.11268234925E+04  0.11309566018E+04  0.81003835189E+02 0.  0.
         -6    2    1    2    0  502  0.49077546863E+01 -0.10139134789E+02  0.15100432074E+03  0.22451019709E+03  0.16575776182E+03 0.  0.
        -24    2    5    5    0    0 -0.46467112098E+02 -0.29465485532E+02  0.13624128891E+03  0.16747580501E+03  0.80368209620E+02 0.  0.
          5    1    3    3  501    0  0.39717229877E+02 -0.17765010759E+02  0.12158893058E+03  0.12922465708E+03  0.47000000000E+01 0. -1.
        -11    1    4    4    0    0 -0.34547692663E+02  0.18621221496E+02  0.11012069896E+04  0.11019061335E+04  0.00000000000E+00 0.  1.
         12    1    4    4    0    0 -0.10077291900E+02  0.92829240519E+01  0.25616502857E+02  0.29050468320E+02  0.00000000000E+00 0. -1.
         -5    1    5    5    0  502  0.51374866784E+02  0.19326350743E+02  0.14763031831E+02  0.57034392072E+02  0.47000000000E+01 0.  1.
         13    1    6    6    0    0  0.11797427773E+02  0.17260374972E+02  0.44583068192E+02  0.49241748706E+02  0.00000000000E+00 0. -1.
        -14    1    6    6    0    0 -0.58264539871E+02 -0.46725860504E+02  0.91658220716E+02  0.11823405631E+03  0.00000000000E+00 0.  1.
</event>
<event>
12    1  0.1066489E+000  0.2535970E+03  0.7818608E-02  0.1111139E+00
         21   -1    0    0  501  502  0.00000000000E+00  0.00000000000E+00  0.51453536370E+03  0.51453536370E+03  0.00000000000E+00 0. -1.
         21   -1    0    0  502  503 -0.00000000000E+00 -0.00000000000E+00 -0.13679982914E+03  0.13679982914E+03  0.00000000000E+00 0. -1.
         -6    2    1    2    0  503 -0.17599164325E+03  0.60738002518E+02  0.28547809507E+03  0.38147803713E+03  0.17136390111E+03 0.  0.
        -24    2    3    3    0    0 -0.58857833435E+02  0.20563635915E+02  0.21754456132E+03  0.24015796021E+03  0.80393420203E+02 0.  0.
          6    2    1    2  501    0  0.17599164325E+03 -0.60738002518E+02  0.92257439496E+02  0.26985715571E+03  0.17218968000E+03 0.  0.
         24    2    5    5    0    0  0.19104100987E+03 -0.70387536552E+02  0.51376955106E+02  0.22499179104E+03  0.80812386224E+02 0.  0.
          5    1    5    5  501    0 -0.15049366613E+02  0.96495340330E+01  0.40880484390E+02  0.44865364665E+02  0.47000000000E+01 0. -1.
        -13    1    6    6    0    0  0.51912794341E+02 -0.14897886368E+01 -0.17969471448E+02  0.54955068834E+02  0.00000000000E+00 0.  1.
         14    1    6    6    0    0  0.13912821552E+03 -0.68897747915E+02  0.69346426553E+02  0.17003672221E+03  0.00000000000E+00 0. -1.
         -5    1    3    3    0  503 -0.11713380982E+03  0.40174366604E+02  0.67933533746E+02  0.14132007692E+03  0.47000000000E+01 0.  1.
         13    1    4    4    0    0  0.18846270209E+02 -0.20615904450E+01  0.25656258225E+02  0.31901028856E+02  0.00000000000E+00 0. -1.
        -14    1    4    4    0    0 -0.77704103644E+02  0.22625226360E+02  0.19188830310E+03  0.20825693135E+03  0.00000000000E+00 0.  1.
</event>
<event>
12    1  0.1066489E+000  0.2142148E+03  0.7818608E-02  0.1138479E+00
         21   -1    0    0  503  502  0.00000000000E+00  0.00000000000E+00  0.41177507670E+03  0.41177507670E+03  0.00000000000E+00 0.  1.
         21   -1    0    0  501  503 -0.00000000000E+00 -0.00000000000E+00 -0.11122804921E+03  0.11122804921E+03  0.00000000000E+00 0.  1.
          6    2    1    2  501    0  0.11831578533E+03 -0.42533306807E+02  0.16450052569E+03  0.26923823668E+03  0.17210780892E+03 0.  0.
         24    2    3    3    0    0 -0.49831809634E+01 -0.37965904178E+02  0.51852714918E+02  0.10210022326E+03  0.79180234742E+02 0.  0.
         -6    2    1    2    0  502 -0.11831578533E+03  0.42533306807E+02  0.13604650181E+03  0.25376488923E+03  0.17343661986E+03 0.  0.
        -24    2    5    5    0    0 -0.15129680935E+03  0.43794146423E+02  0.94813268036E+02  0.20074029844E+03  0.80613025263E+02 0.  0.
          5    1    3    3  501    0  0.12329896629E+03 -0.45674026290E+01  0.11264781077E+03  0.16713801341E+03  0.47000000000E+01 0. -1.
        -11    1    4    4    0    0 -0.12467809828E+02 -0.23184785739E+02  0.71621854249E+02  0.76306425533E+02  0.00000000000E+00 0.  1.
         12    1    4    4    0    0  0.74846288651E+01 -0.14781118439E+02 -0.19769139330E+02  0.25793797732E+02  0.00000000000E+00 0. -1.
         -5    1    5    5    0  502  0.32981024017E+02 -0.12608396159E+01  0.41233233770E+02  0.53024590794E+02  0.47000000000E+01 0.  1.
         13    1    6    6    0    0 -0.39342058081E+02  0.34096529334E+02  0.67229467896E+02  0.85030419264E+02  0.00000000000E+00 0. -1.
        -14    1    6    6    0    0 -0.11195475127E+03  0.96976170889E+01  0.27583800139E+02  0.11570987917E+03  0.00000000000E+00 0.  1.
</event>
<event>
12    1  0.1066489E+000  0.2731763E+03  0.7818608E-02  0.1099533E+00
         21   -1    0    0  503  502  0.00000000000E+00  0.00000000000E+00  0.13478042187E+03  0.13478042187E+03  0.00000000000E+00 0. -1.
         21   -1    0    0  501  503 -0.00000000000E+00 -0.00000000000E+00 -0.95484182871E+03  0.95484182871E+03  0.00000000000E+00 0.  1.
          6    2    1    2  501    0 -0.21029361111E+03  0.24716701080E+02 -0.56710598786E+02  0.27900066125E+03  0.17260057583E+03 0.  0.
         24    2    3    3    0    0 -0.65974381020E+02  0.66370534906E+02 -0.38621887730E+02  0.12763232402E+03  0.77721895687E+02 0.  0.
         -6    2    1    2    0  502  0.21029361111E+03 -0.24716701080E+02 -0.76335080805E+03  0.81062158933E+03  0.17195518819E+03 0.  0.
        -24    2    5    5    0    0  0.22488945344E+03 -0.17629392394E+01 -0.61702058679E+03  0.66171041631E+03  0.81042558617E+02 0.  0.
          5    1    3    3  501    0 -0.14431923009E+03 -0.41653833827E+02 -0.18088711056E+02  0.15136833723E+03  0.47000000000E+01 0. -1.
        -13    1    4    4    0    0  0.16090844093E+02  0.18210732924E+02 -0.18075435800E+02  0.30286423305E+02  0.00000000000E+00 0.  1.
         14    1    4    4    0    0 -0.82065225113E+02  0.48159801983E+02 -0.20546451930E+02  0.97345900719E+02  0.00000000000E+00 0. -1.
         -5    1    5    5    0  502 -0.14595842324E+02 -0.22953761840E+02 -0.14633022126E+03  0.14891117302E+03  0.47000000000E+01 0.  1.
         11    1    6    6    0    0  0.20124561828E+03 -0.12467951636E+02 -0.45569432386E+03  0.49830970841E+03  0.00000000000E+00 0. -1.
        -12    1    6    6    0    0  0.23643835153E+02  0.10705012397E+02 -0.16132626293E+03  0.16340070790E+03  0.00000000000E+00 0.  1.
</event>
<event>
12    1  0.1066489E+000  0.1981375E+03  0.7818608E-02  0.1151402E+00
         21   -1    0    0  501  502  0.00000000000E+00  0.00000000000E+00  0.47683505877E+03  0.47683505877E+03  0.00000000000E+00 0. -1.
         21   -1    0    0  502  503 -0.00000000000E+00 -0.00000000000E+00 -0.87280856437E+02  0.87280856437E+02  0.00000000000E+00 0. -1.
         -6    2    1    2    0  503  0.84074477187E+02 -0.51531319945E+02  0.12671398180E+03  0.23519122110E+03  0.17185599393E+03 0.  0.
        -24    2    3    3    0    0  0.32156689324E+02 -0.43362335914E+02  0.14922382889E+03  0.17782422525E+03  0.80245617535E+02 0.  0.
          6    2    1    2  501    0 -0.84074477187E+02  0.51531319945E+02  0.26284022053E+03  0.32892469410E+03  0.17141317981E+03 0.  0.
         24    2    5    5    0    0 -0.20095213788E+02  0.67639477158E+02  0.23424454401E+03  0.25686484682E+03  0.78295125321E+02 0.  0.
          5    1    5    5  501    0 -0.63979263399E+02 -0.16108157212E+02  0.28595676523E+02  0.72059847278E+02  0.47000000000E+01 0. -1.
        -11    1    6    6    0    0 -0.46216541169E+02  0.64122120729E+02  0.17601314099E+03  0.19294621231E+03  0.00000000000E+00 0.  1.
         12    1    6    6    0    0  0.26121327382E+02  0.35173564290E+01  0.58231403019E+02  0.63918634513E+02  0.00000000000E+00 0. -1.
         -5    1    3    3    0  503  0.51917787863E+02 -0.81689840314E+01 -0.22509847092E+02  0.57366995850E+02  0.47000000000E+01 0.  1.
         11    1    4    4    0    0 -0.23242388860E+02 -0.94754545214E+01  0.16422973623E+02  0.29995115284E+02  0.00000000000E+00 0. -1.
        -12    1    4    4    0    0  0.55399078184E+02 -0.33886881392E+02  0.13280085527E+03  0.14782910997E+03  0.00000000000E+00 0.  1.
</event>
<event>
12    1  0.1066489E+000  0.3195999E+03  0.7818608E-02  0.1075883E+00
         21   -1    0    0  501  502  0.00000000000E+00  0.00000000000E+00  0.29209519363E+03  0.29209519363E+03  0.00000000000E+00 0.  1.
         21   -1    0    0  502  503 -0.00000000000E+00 -0.00000000000E+00 -0.37117396466E+03  0.37117396466E+03  0.00000000000E+00 0.  1.
         -6    2    1    2    0  503 -0.26055092004E+02 -0.26701350744E+03  0.41123293230E+02  0.32181249060E+03  0.17290770048E+03 0.  0.
        -24    2    3    3    0    0 -0.42855271586E+02 -0.28293166232E+03  0.42480736777E+02  0.29815733594E+03  0.72154584964E+02 0.  0.
          6    2    1    2  501    0  0.26055092004E+02  0.26701350744E+03 -0.12020206426E+03  0.34145666768E+03  0.17369236793E+03 0.  0.
         24    2    5    5    0    0  0.53103364099E+02  0.19825840875E+03 -0.24723911988E+02  0.22063845639E+03  0.77095348078E+02 0.  0.
          5    1    5    5  501    0 -0.27048272095E+02  0.68755098692E+02 -0.95478152271E+02  0.12081821130E+03  0.47000000000E+01 0. -1.
        -13    1    6    6    0    0 -0.21542604871E+01  0.15811081663E+02  0.19246796309E+02  0.25001406156E+02  0.00000000000E+00 0.  1.
         14    1    6    6    0    0  0.55257624586E+02  0.18244732709E+03 -0.43970708297E+02  0.19563705023E+03  0.00000000000E+00 0. -1.
         -5    1    3    3    0  503  0.16800179582E+02  0.15918154883E+02 -0.13574435472E+01  0.23655154657E+02  0.47000000000E+01 0.  1.
         11    1    4    4    0    0 -0.16993318436E+02 -0.25332343364E+03  0.48209963349E+02  0.25842936263E+03  0.00000000000E+00 0. -1.
        -12    1    4    4    0    0 -0.25861953150E+02 -0.29608228684E+02 -0.57292265718E+01  0.39727973314E+02  0.00000000000E+00 0.  1.
</event>
<event>
12    1  0.1066489E+000  0.2590781E+03  0.7818608E-02  0.1107836E+00
         21   -1    0    0  501  502  0.00000000000E+00  0.00000000000E+00  0.48582504265E+03  0.48582504265E+03  0.00000000000E+00 0. -1.
         21   -1    0    0  502  503 -0.00000000000E+00 -0.00000000000E+00 -0.15317739799E+03  0.15317739799E+03  0.00000000000E+00 0.  1.
         -6    2    1    2    0  503  0.14410193637E+03  0.12879549940E+03  0.26770546291E+03  0.37190889593E+03  0.17116180435E+03 0.  0.
        -24    2    3    3    0    0 -0.20737248178E+00  0.39745094598E+02  0.88197050653E+02  0.12492608016E+03  0.79044862016E+02 0.  0.
          6    2    1    2  501    0 -0.14410193637E+03 -0.12879549940E+03  0.64942181745E+02  0.26709354471E+03  0.17253355015E+03 0.  0.
         24    2    5    5    0    0 -0.15961841286E+02 -0.88750998250E+02  0.64924597826E+01  0.12059471865E+03  0.79808608963E+02 0.  0.
          5    1    5    5  501    0 -0.12814009509E+03 -0.40044501146E+02  0.58449721963E+02  0.14649882606E+03  0.47000000000E+01 0. -1.
        -13    1    6    6    0    0 -0.21555080727E+02  0.56917669966E+01 -0.10214725940E+02  0.24522608807E+02  0.00000000000E+00 0.  1.
         14    1    6    6    0    0  0.55932394406E+01 -0.94442765247E+02  0.16707185722E+02  0.96072109843E+02  0.00000000000E+00 0. -1.
         -5    1    3    3    0  503  0.14430930885E+03  0.89050404798E+02  0.17950841226E+03  0.24698281577E+03  0.47000000000E+01 0.  1.
         13    1    4    4    0    0  0.33881124124E+02  0.25912837171E+02  0.74158452858E+02  0.85550463660E+02  0.00000000000E+00 0. -1.
        -14    1    4    4    0    0 -0.34088496605E+02  0.13832257427E+02  0.14038597795E+02  0.39375616496E+02  0.00000000000E+00 0.  1.
</event>
<event>
12    1  0.1066489E+000  0.2178979E+03  0.7818608E-02  0.1136484E+00
         21   -1    0    0  503  502  0.00000000000E+00  0.00000000000E+00  0.15763137687E+03  0.15763137687E+03  0.00000000000E+00 0. -1.
         21   -1    0    0  501  503 -0.00000000000E+00 -0.00000000000E+00 -0.43545043320E+03  0.43545043320E+03  0.00000000000E+00 0.  1.
          6    2    1    2  501    0  0.69713559944E+01 -0.13110213212E+03  0.31348154896E+02  0.21484400339E+03  0.16714924506E+03 0.  0.
         24    2    3    3    0    0  0.68492259416E+02 -0.72654356372E+02  0.90037003503E+01  0.12696722206E+03  0.77908688588E+02 0.  0.
         -6    2    1    2    0  502 -0.69713559944E+01  0.13110213212E+03 -0.30916721122E+03  0.37823780669E+03  0.17390544863E+03 0.  0.
        -24    2    5    5    0    0  0.56612621189E+02  0.92901393024E+02 -0.24705584842E+03  0.28137641081E+03  0.79375277123E+02 0.  0.
          5    1    3    3  501    0 -0.61520903422E+02 -0.58447775746E+02  0.22344454546E+02  0.87876781327E+02  0.47000000000E+01 0. -1.
        -11    1    4    4    0    0  0.41284838149E+02 -0.86431178109E+02  0.10947625637E+02  0.96408697312E+02  0.00000000000E+00 0.  1.
         12    1    4    4    0    0  0.27207421267E+02  0.13776821737E+02 -0.19439252864E+01  0.30558524747E+02  0.00000000000E+00 0. -1.
         -5    1    5    5    0  502 -0.63583977183E+02  0.38200739094E+02 -0.62111362797E+02  0.96861395872E+02  0.47000000000E+01 0.  1.
         13    1    6    6    0    0  0.26394104912E+02  0.11355108368E+02 -0.12717688058E+02  0.31421757584E+02  0.00000000000E+00 0. -1.
        -14    1    6    6    0    0  0.30218516277E+02  0.81546284655E+02 -0.23433816037E+03  0.24995465323E+03  0.00000000000E+00 0.  1.
</event>
<event>
12    1  0.1066489E+000  0.1728452E+03  0.7818608E-02  0.1175295E+00
         21   -1    0    0  503  502  0.00000000000E+00  0.00000000000E+00  0.95450893580E+03  0.95450893580E+03  0.00000000000E+00 0.  1.
         21   -1    0    0  501  503 -0.00000000000E+00 -0.00000000000E+00 -0.36589763620E+02  0.36589763620E+02  0.00000000000E+00 0.  1.
          6    2    1    2  501    0  0.76656013142E+01  0.98885729247E+01  0.65381920491E+03  0.67628027149E+03  0.17239172711E+03 0.  0.
         24    2    3    3    0    0 -0.15361944197E+02  0.66853945859E+02  0.32619188159E+03  0.34290799527E+03  0.80494162506E+02 0.  0.
         -6    2    1    2    0  502 -0.76656013142E+01 -0.98885729247E+01  0.26409996727E+03  0.31481842793E+03  0.17089559542E+03 0.  0.
        -24    2    5    5    0    0 -0.54708430341E+02 -0.48008107494E+02  0.19140013814E+03  0.22008996424E+03  0.80670866748E+02 0.  0.
          5    1    3    3  501    0  0.23027545511E+02 -0.56965372934E+02  0.32762732332E+03  0.33337227622E+03  0.47000000000E+01 0. -1.
        -13    1    4    4    0    0 -0.16649117082E+02  0.37699364807E+01  0.20997071959E+03  0.21066349614E+03  0.00000000000E+00 0.  1.
         14    1    4    4    0    0  0.12871728853E+01  0.63084009378E+02  0.11622116200E+03  0.13224449913E+03  0.00000000000E+00 0. -1.
         -5    1    5    5    0  502  0.47042829027E+02  0.38119534569E+02  0.72699829131E+02  0.94728463696E+02  0.47000000000E+01 0.  1.
         13    1    6    6    0    0 -0.45410225910E+02  0.11880642824E+02  0.99339648051E+02  0.10987085130E+03  0.00000000000E+00 0. -1.
        -14    1    6    6    0    0 -0.92982044309E+01 -0.59888750318E+02  0.92060490091E+02  0.11021911293E+03  0.00000000000E+00 0.  1.
</event>
<event>
12    1  0.1066489E+000  0.1976602E+03  0.7818608E-02  0.1152484E+00
         21   -1    0    0  503  502  0.00000000000E+00  0.00000000000E+00  0.14675774860E+03  0.14675774860E+03  0.00000000000E+00 0.  1.
         21   -1    0    0  501  503 -0.00000000000E+00 -0.00000000000E+00 -0.27523224368E+03  0.27523224368E+03  0.00000000000E+00 0.  1.
          6    2    1    2  501    0  0.14081923363E+02 -0.88131098369E+02 -0.11185839283E+03  0.22711639602E+03  0.17636373274E+03 0.  0.
         24    2    3    3    0    0  0.73677463248E+02 -0.35836062258E+02 -0.45312679775E+02  0.12349776303E+03  0.80534878009E+02 0.  0.
         -6    2    1    2    0  502 -0.14081923363E+02  0.88131098369E+02 -0.16616102246E+02  0.19487359626E+03  0.17243616964E+03 0.  0.
        -24    2    5    5    0    0 -0.60996293009E+02  0.91850789685E+02  0.14931594101E+02  0.13802167169E+03  0.81669541614E+02 0.  0.
          5    1    3    3  501    0 -0.59595539885E+02 -0.52295036110E+02 -0.66545713056E+02  0.10361863299E+03  0.47000000000E+01 0. -1.
        -11    1    4    4    0    0  0.13367622642E+02  0.17659823330E+02 -0.36104336248E+02  0.42356649903E+02  0.00000000000E+00 0.  1.
         12    1    4    4    0    0  0.60309840606E+02 -0.53495885588E+02 -0.92083435277E+01  0.81141113126E+02  0.00000000000E+00 0. -1.
         -5    1    5    5    0  502  0.46914369646E+02 -0.37196913159E+01 -0.31547696347E+02  0.56851924572E+02  0.47000000000E+01 0.  1.
         11    1    6    6    0    0 -0.70278470165E+02  0.65060768623E+02 -0.14835623014E+02  0.96912654967E+02  0.00000000000E+00 0. -1.
        -12    1    6    6    0    0  0.92821771558E+01  0.26790021062E+02  0.29767217115E+02  0.41109016724E+02  0.00000000000E+00 0.  1.
</event>
<event>
12    1  0.1066489E+000  0.2130849E+03  0.7818608E-02  0.1139711E+00
         21   -1    0    0  501  502  0.00000000000E+00  0.00000000000E+00  0.15402583559E+04  0.15402583559E+04  0.00000000000E+00 0.  1.
         21   -1    0    0  502  503 -0.00000000000E+00 -0.00000000000E+00 -0.30206531697E+02  0.30206531697E+02  0.00000000000E+00 0. -1.
         -6    2    1    2    0  503  0.12068407595E+03 -0.36329176220E+02  0.91154692069E+03  0.93612123636E+03  0.17181596351E+03 0.  0.
        -24    2    3    3    0    0  0.32011205378E+02 -0.70067644380E+02  0.47896646335E+03  0.49323399983E+03  0.89088234453E+02 0.  0.
          6    2    1    2  501    0 -0.12068407595E+03  0.36329176220E+02  0.59850490349E+03  0.63434365121E+03  0.16822393736E+03 0.  0.
         24    2    5    5    0    0 -0.14754526602E+03  0.51115571593E+02  0.45680071532E+03  0.48928391191E+03  0.79683409546E+02 0.  0.
          5    1    5    5  501    0  0.26861190073E+02 -0.14786395373E+02  0.14170418817E+03  0.14505973930E+03  0.47000000000E+01 0. -1.
        -11    1    6    6    0    0 -0.97637805318E+02  0.32237231356E+02  0.39241212430E+03  0.40565953140E+03  0.00000000000E+00 0.  1.
         12    1    6    6    0    0 -0.49907460701E+02  0.18878340238E+02  0.64388591016E+02  0.83624380517E+02  0.00000000000E+00 0. -1.
         -5    1    3    3    0  503  0.88672870568E+02  0.33738468159E+02  0.43258045734E+03  0.44288723653E+03  0.47000000000E+01 0.  1.
         13    1    4    4    0    0  0.38362276481E+02  0.58447578653E+01  0.11466795345E+03  0.12105604074E+03  0.00000000000E+00 0. -1.
        -14    1    4    4    0    0 -0.63510711022E+01 -0.75912402245E+02  0.36429850989E+03  0.37217795909E+03  0.00000000000E+00 0.  1.
</event>
<event>
12    1  0.1066489E+000  0.1906580E+03  0.7818608E-02  0.1158937E+00
         21   -1    0    0  501  502  0.00000000000E+00  0.00000000000E+00  0.17253209620E+03  0.17253209620E+03  0.00000000000E+00 0. -1.
         21   -1    0    0  502  503 -0.00000000000E+00 -0.00000000000E+00 -0.26766560167E+03  0.26766560167E+03  0.00000000000E+00 0. -1.
         -6    2    1    2    0  503 -0.67388775859E+02 -0.16500418631E+02  0.58014605441E+02  0.19928910884E+03  0.17758643961E+03 0.  0.
        -24    2    3    3    0    0 -0.92639750807E+02  0.37647369184E+02  0.55727949596E+02  0.13931483556E+03  0.79395032621E+02 0.  0.
          6    2    1    2  501    0  0.67388775859E+02  0.16500418631E+02 -0.15314811091E+03  0.24090858902E+03  0.17253722341E+03 0.  0.
         24    2    5    5    0    0  0.22616123359E+02 -0.56051448990E+02 -0.89721065262E+02  0.13454391431E+03  0.79993383203E+02 0.  0.
          5    1    5    5  501    0  0.44772652500E+02  0.72551867621E+02 -0.63427045645E+02  0.10636467471E+03  0.47000000000E+01 0. -1.
        -13    1    6    6    0    0 -0.19519217508E+02 -0.90150881375E+01  0.36651264592E+01  0.21810658363E+02  0.00000000000E+00 0.  1.
         14    1    6    6    0    0  0.42135340867E+02 -0.47036360852E+02 -0.93386191721E+02  0.11273325595E+03  0.00000000000E+00 0. -1.
         -5    1    3    3    0  503  0.25250974947E+02 -0.54147787816E+02  0.22866558446E+01  0.59974273285E+02  0.47000000000E+01 0.  1.
         13    1    4    4    0    0 -0.53240366065E+02 -0.20831095972E+02  0.24912611548E+02  0.62362724061E+02  0.00000000000E+00 0. -1.
        -14    1    4    4    0    0 -0.39399384741E+02  0.58478465157E+02  0.30815338048E+02  0.76952111499E+02  0.00000000000E+00 0.  1.
</event>
<event>
12    1  0.1066489E+000  0.2855323E+03  0.7818608E-02  0.1092746E+00
         21   -1    0    0  503  502  0.00000000000E+00  0.00000000000E+00  0.53030509013E+03  0.53030509013E+03  0.00000000000E+00 0. -1.
         21   -1    0    0  501  503 -0.00000000000E+00 -0.00000000000E+00 -0.17307917318E+03  0.17307917318E+03  0.00000000000E+00 0. -1.
          6    2    1    2  501    0  0.22569779690E+03 -0.30753868524E+02  0.60637937457E+02  0.29190007646E+03  0.17217258558E+03 0.  0.
         24    2    3    3    0    0  0.22629784752E+03  0.23580272449E+01  0.80200640148E+02  0.25315027596E+03  0.80228694707E+02 0.  0.
         -6    2    1    2    0  502 -0.22569779690E+03  0.30753868524E+02  0.29658797950E+03  0.41148418685E+03  0.17166685903E+03 0.  0.
        -24    2    5    5    0    0 -0.69805896785E+02 -0.23294096895E+02  0.65474876459E+02  0.12747921597E+03  0.80922882307E+02 0.  0.
          5    1    3    3  501    0 -0.60005062186E+00 -0.33111895769E+02 -0.19562702691E+02  0.38749800499E+02  0.47000000000E+01 0. -1.
        -13    1    4    4    0    0  0.10431495724E+03  0.18990427290E+02  0.75102489586E+02  0.12993317734E+03  0.00000000000E+00 0.  1.
         14    1    4    4    0    0  0.12198289028E+03 -0.16632400045E+02  0.50981505617E+01  0.12321709862E+03  0.00000000000E+00 0. -1.
         -5    1    5    5    0  502 -0.15589190011E+03  0.54047965419E+02  0.23111310304E+03  0.28400497088E+03  0.47000000000E+01 0.  1.
         13    1    6    6    0    0  0.12421631087E+02 -0.96083408536E-01 -0.80153350373E+01  0.14783495752E+02  0.00000000000E+00 0. -1.
        -14    1    6    6    0    0 -0.82227527872E+02 -0.23198013486E+02  0.73490211497E+02  0.11269572022E+03  0.00000000000E+00 0.  1.
</event>
<event>
12    1  0.1066489E+000  0.2433509E+03  0.7818608E-02  0.1117745E+00
         21   -1    0    0  503  502  0.00000000000E+00  0.00000000000E+00  0.29564860077E+03  0.29564860077E+03  0.00000000000E+00 0.  1.
         21   -1    0    0  501  503 -0.00000000000E+00 -0.00000000000E+00 -0.36506499390E+03  0.36506499390E+03  0.00000000000E+00 0.  1.
          6    2    1    2  501    0  0.17017524938E+03  0.33186957630E+01  0.18781986860E+03  0.30660888532E+03  0.17251688692E+03 0.  0.
         24    2    3    3    0    0  0.11363165930E+03 -0.83619909465E+01  0.20422934794E+03  0.24640110315E+03  0.77600258936E+02 0.  0.
         -6    2    1    2    0  502 -0.17017524938E+03 -0.33186957630E+01 -0.25723626172E+03  0.35410470935E+03  0.17392245857E+03 0.  0.
        -24    2    5    5    0    0 -0.12526975585E+03 -0.36247083688E+02 -0.89780386291E+02  0.17757045687E+03  0.80401409101E+02 0.  0.
          5    1    3    3  501    0  0.56543590077E+02  0.11680686709E+02 -0.16409479341E+02  0.60207782164E+02  0.47000000000E+01 0. -1.
        -11    1    4    4    0    0  0.32201271530E+02  0.33352651141E+02  0.68997621517E+02  0.83126367665E+02  0.00000000000E+00 0.  1.
         12    1    4    4    0    0  0.81430387775E+02 -0.41714642087E+02  0.13523172642E+03  0.16327473549E+03  0.00000000000E+00 0. -1.
         -5    1    5    5    0  502 -0.44905493532E+02  0.32928387925E+02 -0.16745587543E+03  0.17653425248E+03  0.47000000000E+01 0.  1.
         13    1    6    6    0    0 -0.25489188411E+02 -0.87143476997E+01  0.14540128741E+02  0.30611336551E+02  0.00000000000E+00 0. -1.
        -14    1    6    6    0    0 -0.99780567440E+02 -0.27532735988E+02 -0.10432051503E+03  0.14695912032E+03  0.00000000000E+00 0.  1.
</event>
<event>
12    1  0.1066489E+000  0.1807492E+03  0.7818608E-02  0.1167259E+00
         21   -1    0    0  503  502  0.00000000000E+00  0.00000000000E+00  0.70641216472E+02  0.70641216472E+02  0.00000000000E+00 0.  1.
         21   -1    0    0  501  503 -0.00000000000E+00 -0.00000000000E+00 -0.50629220247E+03  0.50629220247E+03  0.00000000000E+00 0. -1.
          6    2    1    2  501    0 -0.28942846690E+02  0.39089565804E+02 -0.30409083747E+03  0.35337507216E+03  0.17331192013E+03 0.  0.
         24    2    3    3    0    0 -0.39628890946E+02  0.33582277957E+02 -0.64218454779E+02  0.11315564801E+03  0.77343211411E+02 0.  0.
         -6    2    1    2    0  502  0.28942846690E+02 -0.39089565804E+02 -0.13156014852E+03  0.22355834678E+03  0.17408210478E+03 0.  0.
        -24    2    5    5    0    0  0.80764466706E+02 -0.45486674688E+02 -0.11722413646E+03  0.16920750000E+03  0.79358321760E+02 0.  0.
          5    1    3    3  501    0  0.10686044256E+02  0.55072878474E+01 -0.23987238269E+03  0.24021942415E+03  0.47000000000E+01 0. -1.
        -13    1    4    4    0    0 -0.19370365224E+02  0.40967941109E+02 -0.76074029271E+02  0.88548524421E+02  0.00000000000E+00 0.  1.
         14    1    4    4    0    0 -0.20258525723E+02 -0.73856631523E+01  0.11855574492E+02  0.24607123586E+02  0.00000000000E+00 0. -1.
         -5    1    5    5    0  502 -0.51821620016E+02  0.63971088841E+01 -0.14336012064E+02  0.54350846774E+02  0.47000000000E+01 0.  1.
         11    1    6    6    0    0  0.13386409682E+02 -0.78262427724E+01 -0.83578087080E+02  0.85004368594E+02  0.00000000000E+00 0. -1.
        -12    1    6    6    0    0  0.67378057024E+02 -0.37660431916E+02 -0.33646049378E+02  0.84203131410E+02  0.00000000000E+00 0.  1.
</event>
<event>
12    1  0.1066489E+000  0.2000405E+03  0.7818608E-02  0.1151763E+00
         21   -1    0    0  503  502  0.00000000000E+00  0.00000000000E+00  0.21625944344E+03  0.21625944344E+03  0.00000000000E+00 0. -1.
         21   -1    0    0  501  503 -0.00000000000E+00 -0.00000000000E+00 -0.23014598144E+03  0.23014598144E+03  0.00000000000E+00 0. -1.
          6    2    1    2  501    0  0.32480747571E+02 -0.86321950596E+02  0.10107674390E+03  0.21568316248E+03  0.16672204504E+03 0.  0.
         24    2    3    3    0    0  0.64234717338E+02 -0.69364255287E+02  0.12272655511E+03  0.17341399699E+03  0.77930149488E+02 0.  0.
         -6    2    1    2    0  502 -0.32480747571E+02  0.86321950596E+02 -0.11496328190E+03  0.23072226240E+03  0.17750979709E+03 0.  0.
        -24    2    5    5    0    0 -0.37568967508E+02  0.66887435523E+02  0.22195004759E+01  0.11173703288E+03  0.81208878725E+02 0.  0.
          5    1    3    3  501    0 -0.31753969767E+02 -0.16957695309E+02 -0.21649811208E+02  0.42269165494E+02  0.47000000000E+01 0. -1.
        -11    1    4    4    0    0  0.47431613012E+02 -0.65367997864E+02  0.42332181586E+02  0.91185232661E+02  0.00000000000E+00 0.  1.
         12    1    4    4    0    0  0.16803104327E+02 -0.39962574234E+01  0.80394373526E+02  0.82228764329E+02  0.00000000000E+00 0. -1.
         -5    1    5    5    0  502  0.50882199370E+01  0.19434515073E+02 -0.11718278238E+03  0.11898522952E+03  0.47000000000E+01 0.  1.
         11    1    6    6    0    0  0.17368003576E+02 -0.34506470137E+01  0.12818414639E+02  0.21860152491E+02  0.00000000000E+00 0. -1.
        -12    1    6    6    0    0 -0.54936971084E+02  0.70338082536E+02 -0.10598914164E+02  0.89876880388E+02  0.00000000000E+00 0.  1.
</event>
<event>
12    1  0.1066489E+000  0.2194081E+03  0.7818608E-02  0.1135805E+00
         21   -1    0    0  503  502  0.00000000000E+00  0.00000000000E+00  0.15308067248E+04  0.15308067248E+04  0.00000000000E+00 0.  1.
         21   -1    0    0  501  503 -0.00000000000E+00 -0.00000000000E+00 -0.35755745772E+02  0.35755745772E+02  0.00000000000E+00 0.  1.
          6    2    1    2  501    0 -0.48851362458E+02  0.11554197767E+03  0.43144567303E+03  0.48056239738E+03  0.17046537705E+03 0.  0.
         24    2    3    3    0    0 -0.34492971591E+02  0.13161673435E+03  0.43043069780E+03  0.45847888848E+03  0.80122254841E+02 0.  0.
         -6    2    1    2    0  502  0.48851362458E+02 -0.11554197767E+03  0.10636053060E+04  0.10860000732E+04  0.18000974369E+03 0.  0.
        -24    2    5    5    0    0  0.68824996615E+01 -0.13829704197E+03  0.93265543165E+03  0.94653990689E+03  0.83175720766E+02 0.  0.
          5    1    3    3  501    0 -0.14358390866E+02 -0.16074756675E+02  0.10149752298E+01  0.22083508895E+02  0.47000000000E+01 0. -1.
        -13    1    4    4    0    0 -0.50078429133E+02  0.79276964481E+02  0.18942691187E+03  0.21136518422E+03  0.00000000000E+00 0.  1.
         14    1    4    4    0    0  0.15585457542E+02  0.52339769867E+02  0.24100378593E+03  0.24711370426E+03  0.00000000000E+00 0. -1.
         -5    1    5    5    0  502  0.41968862796E+02  0.22755064301E+02  0.13094987435E+03  0.13946016631E+03  0.47000000000E+01 0.  1.
         13    1    6    6    0    0  0.44779348601E+02 -0.79445266051E+02  0.49719679795E+03  0.50549124250E+03  0.00000000000E+00 0. -1.
        -14    1    6    6    0    0 -0.37896848939E+02 -0.58851775924E+02  0.43545863371E+03  0.44104866439E+03  0.00000000000E+00 0.  1.
</event>
<event>
12    1  0.1066489E+000  0.1919167E+03  0.7818608E-02  0.1157485E+00
         21   -1    0    0  503  502  0.00000000000E+00  0.00000000000E+00  0.15610887753E+03  0.15610887753E+03  0.00000000000E+00 0.  1.
         21   -1    0    0  501  503 -0.00000000000E+00 -0.00000000000E+00 -0.29824555331E+03  0.29824555331E+03  0.00000000000E+00 0.  1.
          6    2    1    2  501    0 -0.54007716445E+02 -0.57230563577E+02 -0.17869160739E+03  0.26222641712E+03  0.17504237327E+03 0.  0.
         24    2    3    3    0    0  0.35190110912E+02 -0.15557758277E+02 -0.65525536176E+02  0.11215468500E+03  0.82490543266E+02 0.  0.
         -6    2    1    2    0  502  0.54007716445E+02  0.57230563577E+02  0.36554931607E+02  0.19212801371E+03  0.17141977653E+03 0.  0.
        -24    2    5    5    0    0  0.57104546688E+02 -0.25495421611E+02  0.86695505164E+01  0.10464736750E+03  0.83456363710E+02 0.  0.
          5    1    3    3  501    0 -0.89197827357E+02 -0.41672805300E+02 -0.11316607121E+03  0.15007173211E+03  0.47000000000E+01 0. -1.
        -13    1    4    4    0    0 -0.18627103305E+02  0.46048311643E+01 -0.48589606126E+02  0.52241011391E+02  0.00000000000E+00 0.  1.
         14    1    4    4    0    0  0.53817214217E+02 -0.20162589441E+02 -0.16935930050E+02  0.59913673612E+02  0.00000000000E+00 0. -1.
         -5    1    5    5    0  502 -0.30968302430E+01  0.82725985188E+02  0.27885381090E+02  0.87480646211E+02  0.47000000000E+01 0.  1.
         11    1    6    6    0    0 -0.65635078894E+01  0.23066799531E+02  0.49414853890E+01  0.24486223765E+02  0.00000000000E+00 0. -1.
        -12    1    6    6    0    0  0.63668054578E+02 -0.48562221141E+02  0.37280651274E+01  0.80161143739E+02  0.00000000000E+00 0.  1.
</event>
<event>
12    1  0.1066489E+000  0.2371664E+03  0.7818608E-02  0.1121780E+00
         21   -1    0    0  503  502  0.00000000000E+00  0.00000000000E+00  0.55900634319E+02  0.55900634319E+02  0.00000000000E+00 0. -1.
         21   -1    0    0  501  503 -0.00000000000E+00 -0.00000000000E+00 -0.10486935681E+04  0.10486935681E+04  0.00000000000E+00 0. -1.
          6    2    1    2  501    0 -0.16013889731E+03  0.30535960001E+02 -0.38299346766E+03  0.45047961097E+03  0.17225264104E+03 0.  0.
         24    2    3    3    0    0 -0.12357764330E+03  0.84703562389E+02 -0.25081132906E+03  0.30294974210E+03  0.80162934387E+02 0.  0.
         -6    2    1    2    0  502  0.16013889731E+03 -0.30535960001E+02 -0.60979946609E+03  0.65411459142E+03  0.17156222947E+03 0.  0.
        -24    2    5    5    0    0  0.18625961785E+02 -0.60083742123E+01 -0.33821041785E+03  0.34685213926E+03  0.74411643936E+02 0.  0.
          5    1    3    3  501    0 -0.36561254009E+02 -0.54167602388E+02 -0.13218213860E+03  0.14752986887E+03  0.47000000000E+01 0. -1.
        -11    1    4    4    0    0 -0.55079941396E+02  0.13855742804E+02 -0.15673557074E+03  0.16670879007E+03  0.00000000000E+00 0.  1.
         12    1    4    4    0    0 -0.68497701902E+02  0.70847819585E+02 -0.94075758326E+02  0.13624095203E+03  0.00000000000E+00 0. -1.
         -5    1    5    5    0  502  0.14151293552E+03 -0.24527585788E+02 -0.27158904824E+03  0.30726245216E+03  0.47000000000E+01 0.  1.
         11    1    6    6    0    0 -0.23584480962E+02  0.61659434175E+01 -0.53751662578E+02  0.59021079543E+02  0.00000000000E+00 0. -1.
        -12    1    6    6    0    0  0.42210442747E+02 -0.12174317630E+02 -0.28445875527E+03  0.28783105972E+03  0.00000000000E+00 0.  1.
</event>
<event>
12    1  0.1066489E+000  0.2292209E+03  0.7818608E-02  0.1129148E+00
         21   -1    0    0  501  502  0.00000000000E+00  0.00000000000E+00  0.70727355917E+03  0.70727355917E+03  0.00000000000E+00 0.  1.
         21   -1    0    0  502  503 -0.00000000000E+00 -0.00000000000E+00 -0.76258230515E+02  0.76258230515E+02  0.00000000000E+00 0. -1.
         -6    2    1    2    0  503 -0.41712028992E+02  0.14444368285E+03  0.41294378361E+03  0.46715001019E+03  0.15843829308E+03 0.  0.
        -24    2    3    3    0    0 -0.17930144076E+02  0.14033294456E+03  0.41132664823E+03  0.44250896016E+03  0.81300325210E+02 0.  0.
          6    2    1    2  501    0  0.41712028992E+02 -0.14444368285E+03  0.21807154505E+03  0.31638177950E+03  0.17302705211E+03 0.  0.
         24    2    5    5    0    0  0.71713331330E+02 -0.13989688878E+03  0.22421248378E+03  0.28506800287E+03  0.79237535267E+02 0.  0.
          5    1    5    5  501    0 -0.30001302338E+02 -0.45467940724E+01 -0.61409387375E+01  0.31313776631E+02  0.47000000000E+01 0. -1.
        -13    1    6    6    0    0  0.14191941828E+02 -0.54526194763E+02  0.26721185597E+02  0.62358150132E+02  0.00000000000E+00 0.  1.
         14    1    6    6    0    0  0.57521389503E+02 -0.85370694018E+02  0.19749129819E+03  0.22270985274E+03  0.00000000000E+00 0. -1.
         -5    1    3    3    0  503 -0.23781884916E+02  0.41107382927E+01  0.16171353773E+01  0.24641050024E+02  0.47000000000E+01 0.  1.
         11    1    4    4    0    0  0.20580491759E+02  0.57118300205E+01  0.35301497675E+02  0.41259876167E+02  0.00000000000E+00 0. -1.
        -12    1    4    4    0    0 -0.38510635835E+02  0.13462111454E+03  0.37602515056E+03  0.40124908399E+03  0.00000000000E+00 0.  1.
</event>
<event>
12    1  0.1066489E+000  0.3860566E+03  0.7818608E-02  0.1048723E+00
         21   -1    0    0  501  502  0.00000000000E+00  0.00000000000E+00  0.15513094196E+04  0.15513094196E+04  0.00000000000E+00 0.  1.
         21   -1    0    0  502  503 -0.00000000000E+00 -0.00000000000E+00 -0.99471865559E+02  0.99471865559E+02  0.00000000000E+00 0.  1.
         -6    2    1    2    0  503 -0.31672790047E+03 -0.13782210609E+03  0.57309672928E+03  0.69099897325E+03  0.17241874626E+03 0.  0.
        -24    2    3    3    0    0 -0.19212873676E+03 -0.15481525644E+03  0.40572458472E+03  0.48159686359E+03  0.80261355945E+02 0.  0.
          6    2    1    2  501    0  0.31672790047E+03  0.13782210609E+03  0.87874082480E+03  0.95978231195E+03  0.17229379934E+03 0.  0.
         24    2    5    5    0    0  0.23244962644E+03  0.12894394916E+03  0.49879201374E+03  0.57046902143E+03  0.77343781830E+02 0.  0.
          5    1    5    5  501    0  0.84278274034E+02  0.88781569320E+01  0.37994881106E+03  0.38931329052E+03  0.47000000000E+01 0. -1.
        -11    1    6    6    0    0  0.18601611306E+02  0.16696101382E+02  0.10971578344E+03  0.11252703177E+03  0.00000000000E+00 0.  1.
         12    1    6    6    0    0  0.21384801513E+03  0.11224784778E+03  0.38907623031E+03  0.45794198966E+03  0.00000000000E+00 0. -1.
         -5    1    3    3    0  503 -0.12459916371E+03  0.16993150347E+02  0.16737214456E+03  0.20940210966E+03  0.47000000000E+01 0.  1.
         13    1    4    4    0    0 -0.18472075706E+03 -0.12271041073E+03  0.37925252617E+03  0.43933140293E+03  0.00000000000E+00 0. -1.
        -14    1    4    4    0    0 -0.74079796948E+01 -0.32104845707E+02  0.26472058548E+02  0.42265460660E+02  0.00000000000E+00 0.  1.
</event>
<event>
12    1  0.1066489E+000  0.1906065E+03  0.7818608E-02  0.1162043E+00
         21   -1    0    0  503  502  0.00000000000E+00  0.00000000000E+00  0.28677006464E+02  0.28677006464E+02  0.00000000000E+00 0.  1.
         21   -1    0    0  501  503 -0.00000000000E+00 -0.00000000000E+00 -0.11546093951E+04  0.11546093951E+04  0.00000000000E+00 0.  1.
          6    2    1    2  501    0  0.11465547965E+02  0.25194291971E+02 -0.51758912445E+03  0.54578161777E+03  0.17091770360E+03 0.  0.
         24    2    3    3    0    0  0.51963752602E+02 -0.16573144855E+02 -0.18437178373E+03  0.20749104811E+03  0.78004356913E+02 0.  0.
         -6    2    1    2    0  502 -0.11465547965E+02 -0.25194291971E+02 -0.60834326422E+03  0.63750478383E+03  0.18858581905E+03 0.  0.
        -24    2    5    5    0    0  0.37558251295E+02 -0.40967964172E+02 -0.55334768780E+03  0.56201475101E+03  0.81104379895E+02 0.  0.
          5    1    3    3  501    0 -0.40498204637E+02  0.41767436826E+02 -0.33321734072E+03  0.33829056965E+03  0.47000000000E+01 0. -1.
        -13    1    4    4    0    0  0.36688040420E+02  0.19231651619E+02 -0.14982166614E+03  0.15544259513E+03  0.00000000000E+00 0.  1.
         14    1    4    4    0    0  0.15275712181E+02 -0.35804796474E+02 -0.34550117585E+02  0.52048452987E+02  0.00000000000E+00 0. -1.
         -5    1    5    5    0  502 -0.49023799260E+02  0.15773672201E+02 -0.54995576422E+02  0.75490032816E+02  0.47000000000E+01 0.  1.
         11    1    6    6    0    0 -0.12825373418E+02  0.46771053292E+00 -0.15051143546E+02  0.19779936261E+02  0.00000000000E+00 0. -1.
        -12    1    6    6    0    0  0.50383624713E+02 -0.41435674705E+02 -0.53829654425E+03  0.54223481475E+03  0.00000000000E+00 0.  1.
</event>
<event>
12    1  0.1066489E+000  0.1774735E+03  0.7818608E-02  0.1170475E+00
         21   -1    0    0  501  502  0.00000000000E+00  0.00000000000E+00  0.68015056045E+03  0.68015056045E+03  0.00000000000E+00 0. -1.
         21   -1    0    0  502  503 -0.00000000000E+00 -0.00000000000E+00 -0.46433250805E+02  0.46433250805E+02  0.00000000000E+00 0. -1.
         -6    2    1    2    0  503 -0.48654998608E+02 -0.10217198627E+02  0.34720027343E+03  0.38955434179E+03  0.16950768509E+03 0.  0.
        -24    2    3    3    0    0 -0.12919859653E+02 -0.67859628910E+02  0.27830766991E+03  0.29276627050E+03  0.59034549232E+02 0.  0.
          6    2    1    2  501    0  0.48654998608E+02  0.10217198627E+02  0.28651703622E+03  0.33702946946E+03  0.17036769414E+03 0.  0.
         24    2    5    5    0    0  0.82439139104E+02  0.46528845354E+02  0.23344526545E+03  0.26423794050E+03  0.79773755888E+02 0.  0.
          5    1    5    5  501    0 -0.33784140496E+02 -0.36311646728E+02  0.53071770766E+02  0.72791528967E+02  0.47000000000E+01 0. -1.
        -11    1    6    6    0    0  0.45983903202E+02  0.55502224104E+02  0.20450554599E+03  0.21683527060E+03  0.00000000000E+00 0.  1.
         12    1    6    6    0    0  0.36455235902E+02 -0.89733787493E+01  0.28939719462E+02  0.47402669897E+02  0.00000000000E+00 0. -1.
         -5    1    3    3    0  503 -0.35735138955E+02  0.57642430284E+02  0.68892603518E+02  0.96788071293E+02  0.47000000000E+01 0.  1.
         13    1    4    4    0    0  0.24240312979E+01 -0.93053914129E+01  0.15603278345E+03  0.15632880652E+03  0.00000000000E+00 0. -1.
        -14    1    4    4    0    0 -0.15343890951E+02 -0.58554237498E+02  0.12227488645E+03  0.13643746397E+03  0.00000000000E+00 0.  1.
</event>
<event>
12    1  0.1066489E+000  0.1861160E+03  0.7818608E-02  0.1165302E+00
         21   -1    0    0  503  502  0.00000000000E+00  0.00000000000E+00  0.28930856605E+02  0.28930856605E+02  0.00000000000E+00 0.  1.
         21   -1    0    0  501  503 -0.00000000000E+00 -0.00000000000E+00 -0.11844033967E+04  0.11844033967E+04  0.00000000000E+00 0.  1.
          6    2    1    2  501    0  0.14358790573E+01  0.20177395009E+02 -0.44760440919E+03  0.48475650396E+03  0.18501343732E+03 0.  0.
         24    2    3    3    0    0 -0.40909337371E+02 -0.31486483884E+02 -0.37103903463E+03  0.38303816580E+03  0.79895548619E+02 0.  0.
         -6    2    1    2    0  502 -0.14358790573E+01 -0.20177395009E+02 -0.70786813092E+03  0.72857774936E+03  0.17128647661E+03 0.  0.
        -24    2    5    5    0    0  0.59262939645E+02 -0.41493269446E+02 -0.41971588073E+03  0.43329394963E+03  0.79677090944E+02 0.  0.
          5    1    3    3  501    0  0.42345216428E+02  0.51663878892E+02 -0.76565374555E+02  0.10171833816E+03  0.47000000000E+01 0. -1.
        -13    1    4    4    0    0  0.22417649409E+02  0.36121292967E+01 -0.91248202963E+02  0.94031021621E+02  0.00000000000E+00 0.  1.
         14    1    4    4    0    0 -0.63326986780E+02 -0.35098613181E+02 -0.27979083167E+03  0.28900714418E+03  0.00000000000E+00 0. -1.
         -5    1    5    5    0  502 -0.60698818703E+02  0.21315874437E+02 -0.28815225019E+03  0.29528379973E+03  0.47000000000E+01 0.  1.
         11    1    6    6    0    0  0.40299496409E+02  0.90197837610E+01 -0.87870584725E+02  0.97090913941E+02  0.00000000000E+00 0. -1.
        -12    1    6    6    0    0  0.18963443236E+02 -0.50513053207E+02 -0.33184529601E+03  0.33620303569E+03  0.00000000000E+00 0.  1.
</event>
<event>
12    1  0.1066489E+000  0.5004971E+03  0.7818608E-02  0.1013690E+00
         21   -1    0    0  503  502  0.00000000000E+00  0.00000000000E+00  0.65351964922E+03  0.65351964922E+03  0.00000000000E+00 0.  1.
         21   -1    0    0  501  503 -0.00000000000E+00 -0.00000000000E+00 -0.39862990668E+03  0.39862990668E+03  0.00000000000E+00 0. -1.
          6    2    1    2  501    0  0.18090094558E+03 -0.43416574001E+03  0.22786608345E+02  0.50101552483E+03  0.17109145124E+03 0.  0.
         24    2    3    3    0    0  0.79494464561E+02 -0.35257666648E+03  0.25071946985E+02  0.37075668987E+03  0.78754332669E+02 0.  0.
         -6    2    1    2    0  502 -0.18090094558E+03  0.43416574001E+03  0.23210313419E+03  0.55113403107E+03  0.16926846544E+03 0.  0.
        -24    2    5    5    0    0 -0.19570011425E+03  0.32043946449E+03  0.15707489994E+03  0.41400632756E+03  0.75820379465E+02 0.  0.
          5    1    3    3  501    0  0.10140648102E+03 -0.81589073533E+02 -0.22853386400E+01  0.13025883496E+03  0.47000000000E+01 0. -1.
        -13    1    4    4    0    0 -0.89717508379E+01 -0.13123768959E+03  0.91682787074E+01  0.13186311393E+03  0.00000000000E+00 0.  1.
         14    1    4    4    0    0  0.88466215399E+02 -0.22133897689E+03  0.15903668278E+02  0.23889357594E+03  0.00000000000E+00 0. -1.
         -5    1    5    5    0  502  0.14799168669E+02  0.11372627552E+03  0.75028234251E+02  0.13712770352E+03  0.47000000000E+01 0.  1.
         13    1    6    6    0    0 -0.81003815140E+02  0.11264437293E+03  0.20735452724E+02  0.14028660599E+03  0.00000000000E+00 0. -1.
        -14    1    6    6    0    0 -0.11469629911E+03  0.20779509157E+03  0.13633944722E+03  0.27371972157E+03  0.00000000000E+00 0.  1.
</event>
<event>
12    1  0.1066489E+000  0.1786548E+03  0.7818608E-02  0.1170050E+00
         21   -1    0    0  501  502  0.00000000000E+00  0.00000000000E+00  0.80897855189E+02  0.80897855189E+02  0.00000000000E+00 0.  1.
         21   -1    0    0  502  503 -0.00000000000E+00 -0.00000000000E+00 -0.44901334556E+03  0.44901334556E+03  0.00000000000E+00 0.  1.
         -6    2    1    2    0  503  0.21819530425E+02  0.44867382886E+02 -0.83262501829E+02  0.19366906685E+03  0.16758845214E+03 0.  0.
        -24    2    3    3    0    0  0.15578606216E+02  0.48569236288E+02 -0.12148331281E+03  0.15448267577E+03  0.80653816619E+02 0.  0.
          6    2    1    2  501    0 -0.21819530425E+02 -0.44867382886E+02 -0.28485298854E+03  0.33624213389E+03  0.17154700106E+03 0.  0.
         24    2    5    5    0    0 -0.12815020540E+02 -0.35133960126E+02 -0.30149032455E+03  0.31445425501E+03  0.81156902291E+02 0.  0.
          5    1    5    5  501    0 -0.90045098842E+01 -0.97334227595E+01  0.16637336011E+02  0.21787878887E+02  0.47000000000E+01 0. -1.
        -11    1    6    6    0    0  0.33002342804E+02 -0.73051951102E+01 -0.86198438973E+02  0.92588829713E+02  0.00000000000E+00 0.  1.
         12    1    6    6    0    0 -0.45817363344E+02 -0.27828765016E+02 -0.21529188558E+03  0.22186542529E+03  0.00000000000E+00 0. -1.
         -5    1    3    3    0  503  0.62409242083E+01 -0.37018534023E+01  0.38220810986E+02  0.39186391081E+02  0.47000000000E+01 0.  1.
         11    1    4    4    0    0 -0.20570888084E+02  0.18836307852E+02 -0.98432956880E+02  0.10230843040E+03  0.00000000000E+00 0. -1.
        -12    1    4    4    0    0  0.36149494300E+02  0.29732928436E+02 -0.23050355935E+02  0.52174245373E+02  0.00000000000E+00 0.  1.
</event>
<event>
12    1  0.1066489E+000  0.1808513E+03  0.7818608E-02  0.1168758E+00
         21   -1    0    0  503  502  0.00000000000E+00  0.00000000000E+00  0.22967954182E+02  0.22967954182E+02  0.00000000000E+00 0.  1.
         21   -1    0    0  501  503 -0.00000000000E+00 -0.00000000000E+00 -0.15908147302E+04  0.15908147302E+04  0.00000000000E+00 0.  1.
          6    2    1    2  501    0 -0.18906686599E+02 -0.53529441214E+02 -0.10723189054E+04  0.10862838159E+04  0.16407873098E+03 0.  0.
         24    2    3    3    0    0 -0.46647745958E+02  0.17174943531E+02 -0.69324235286E+03  0.69964470889E+03  0.80291767854E+02 0.  0.
         -6    2    1    2    0  502  0.18906686599E+02  0.53529441214E+02 -0.49552787054E+03  0.52749886839E+03  0.17170999330E+03 0.  0.
        -24    2    5    5    0    0  0.37792194219E+02  0.95539509377E+02 -0.30753238401E+03  0.33388610750E+03  0.79672565982E+02 0.  0.
          5    1    3    3  501    0  0.27741059359E+02 -0.70704384745E+02 -0.37907655258E+03  0.38663910706E+03  0.47000000000E+01 0. -1.
        -11    1    4    4    0    0  0.26827711078E+01  0.71583872776E+01 -0.41157550159E+01  0.86821200512E+01  0.00000000000E+00 0.  1.
         12    1    4    4    0    0 -0.49330517066E+02  0.10016556253E+02 -0.68912659784E+03  0.69096258883E+03  0.00000000000E+00 0. -1.
         -5    1    5    5    0  502 -0.18885507620E+02 -0.42010068162E+02 -0.18799548653E+03  0.19361276089E+03  0.47000000000E+01 0.  1.
         11    1    6    6    0    0 -0.10143753838E+02  0.28578763332E+02 -0.17677642414E+03  0.17935870647E+03  0.00000000000E+00 0. -1.
        -12    1    6    6    0    0  0.47935948057E+02  0.66960746045E+02 -0.13075595988E+03  0.15452740104E+03  0.00000000000E+00 0.  1.
</event>
<event>
12    1  0.1066489E+000  0.1782685E+03  0.7818608E-02  0.1169527E+00
         21   -1    0    0  503  502  0.00000000000E+00  0.00000000000E+00  0.40729841343E+03  0.40729841343E+03  0.00000000000E+00 0. -1.
         21   -1    0    0  501  503 -0.00000000000E+00 -0.00000000000E+00 -0.78321253603E+02  0.78321253603E+02  0.00000000000E+00 0. -1.
          6    2    1    2  501    0 -0.10890323054E+02 -0.44684279479E+02  0.14790857636E+03  0.23152225938E+03  0.17207651106E+03 0.  0.
         24    2    3    3    0    0 -0.29802905768E+02 -0.86912140023E+02  0.13798261636E+03  0.18396710537E+03  0.79766911467E+02 0.  0.
         -6    2    1    2    0  502  0.10890323054E+02  0.44684279479E+02  0.18106858347E+03  0.25409740765E+03  0.17223349467E+03 0.  0.
        -24    2    5    5    0    0 -0.25091764162E+02  0.22909775726E+02  0.26552153351E+02  0.93890488981E+02  0.83402353810E+02 0.  0.
          5    1    3    3  501    0  0.18912582714E+02  0.42227860543E+02  0.99259599999E+01  0.47555154010E+02  0.47000000000E+01 0. -1.
        -13    1    4    4    0    0 -0.52465927511E+02 -0.33343587869E+02  0.84862616202E+02  0.10519568447E+03  0.00000000000E+00 0.  1.
         14    1    4    4    0    0  0.22663021743E+02 -0.53568552154E+02  0.53120000157E+02  0.78771420903E+02  0.00000000000E+00 0. -1.
         -5    1    5    5    0  502  0.35982087216E+02  0.21774503754E+02  0.15451643011E+03  0.16020691867E+03  0.47000000000E+01 0.  1.
         13    1    6    6    0    0 -0.18673679007E+02 -0.25026298882E+02 -0.10523169824E+02  0.32950857752E+02  0.00000000000E+00 0. -1.
        -14    1    6    6    0    0 -0.64180851542E+01  0.47936074608E+02  0.37075323175E+02  0.60939631230E+02  0.00000000000E+00 0.  1.
</event>
<event>
12    1  0.1066489E+000  0.1991787E+03  0.7818608E-02  0.1150656E+00
         21   -1    0    0  503  502  0.00000000000E+00  0.00000000000E+00  0.25103148095E+04  0.25103148095E+04  0.00000000000E+00 0. -1.
         21   -1    0    0  501  503 -0.00000000000E+00 -0.00000000000E+00 -0.21537042067E+02  0.21537042067E+02  0.00000000000E+00 0. -1.
          6    2    1    2  501    0  0.70918881460E+02 -0.71292279654E+02  0.18998637871E+04  0.19101671708E+04  0.17071653097E+03 0.  0.
         24    2    3    3    0    0  0.40413184494E+02 -0.91393069535E+02  0.86650371990E+03  0.87615084704E+03  0.82617743409E+02 0.  0.
         -6    2    1    2    0  502 -0.70918881460E+02  0.71292279654E+02  0.58891398031E+03  0.62168468075E+03  0.17193047779E+03 0.  0.
        -24    2    5    5    0    0 -0.30981540073E+02  0.11080166536E+03  0.46793093745E+03  0.48821195150E+03  0.78451784470E+02 0.  0.
          5    1    3    3  501    0  0.30505696966E+02  0.20100789881E+02  0.10333600672E+04  0.10340163238E+04  0.47000000000E+01 0. -1.
        -13    1    4    4    0    0  0.83921280610E+01 -0.78196650078E+02  0.76221644126E+03  0.76626304049E+03  0.00000000000E+00 0.  1.
         14    1    4    4    0    0  0.32021056433E+02 -0.13196419457E+02  0.10428727864E+03  0.10988780655E+03  0.00000000000E+00 0. -1.
         -5    1    5    5    0  502 -0.39937341387E+02 -0.39509385708E+02  0.12098304286E+03  0.13347272925E+03  0.47000000000E+01 0.  1.
         11    1    6    6    0    0  0.47980185977E+00  0.98768627697E+02  0.27136784740E+03  0.28878362251E+03  0.00000000000E+00 0. -1.
        -12    1    6    6    0    0 -0.31461341933E+02  0.12033037665E+02  0.19656309006E+03  0.19942832899E+03  0.00000000000E+00 0.  1.
</event>
<event>
12    1  0.1066489E+000  0.1940595E+03  0.7818608E-02  0.1155317E+00
         21   -1    0    0  501  502  0.00000000000E+00  0.00000000000E+00  0.31216602938E+03  0.31216602938E+03  0.00000000000E+00 0. -1.
         21   -1    0    0  502  503 -0.00000000000E+00 -0.00000000000E+00 -0.11998421537E+03  0.11998421537E+03  0.00000000000E+00 0. -1.
         -6    2    1    2    0  503 -0.49596616655E+02 -0.71630460190E+02  0.11157697867E+03  0.22201638088E+03  0.17102954131E+03 0.  0.
        -24    2    3    3    0    0 -0.53726548790E+02 -0.59200284067E+01  0.64210373581E+01  0.97860111697E+02  0.81325168056E+02 0.  0.
          6    2    1    2  501    0  0.49596616655E+02  0.71630460190E+02  0.80604835334E+02  0.21013386387E+03  0.17340228965E+03 0.  0.
         24    2    5    5    0    0 -0.24190364033E+02  0.78014339577E+02  0.71020333275E+02  0.13530589373E+03  0.81193511127E+02 0.  0.
          5    1    5    5  501    0  0.73786980688E+02 -0.63838793870E+01  0.95845020588E+01  0.74827970136E+02  0.47000000000E+01 0. -1.
        -13    1    6    6    0    0 -0.27098931355E+02  0.94321222422E+02  0.64858038317E+02  0.11763252192E+03  0.00000000000E+00 0.  1.
         14    1    6    6    0    0  0.29085673225E+01 -0.16306882845E+02  0.61622949584E+01  0.17673371811E+02  0.00000000000E+00 0. -1.
         -5    1    3    3    0  503  0.41299321348E+01 -0.65710431783E+02  0.10515594131E+03  0.12415626918E+03  0.47000000000E+01 0.  1.
         11    1    4    4    0    0  0.13611842661E+01 -0.31301259957E+02 -0.13362763742E+02  0.34061490753E+02  0.00000000000E+00 0. -1.
        -12    1    4    4    0    0 -0.55087733056E+02  0.25381231551E+02  0.19783801101E+02  0.63798620943E+02  0.00000000000E+00 0.  1.
</event>
<event>
12    1  0.1066489E+000  0.1880030E+03  0.7818608E-02  0.1162035E+00
         21   -1    0    0  501  502  0.00000000000E+00  0.00000000000E+00  0.57435400057E+03  0.57435400057E+03  0.00000000000E+00 0. -1.
         21   -1    0    0  502  503 -0.00000000000E+00 -0.00000000000E+00 -0.59925680991E+02  0.59925680991E+02  0.00000000000E+00 0. -1.
         -6    2    1    2    0  503 -0.47848199160E+02  0.44764482129E+02  0.28928166980E+03  0.34096050162E+03  0.16815727805E+03 0.  0.
        -24    2    3    3    0    0  0.62397406489E+00  0.77908995676E+02  0.13111910468E+03  0.17218373379E+03  0.79905053777E+02 0.  0.
          6    2    1    2  501    0  0.47848199160E+02 -0.44764482129E+02  0.22514664978E+03  0.29331917993E+03  0.17621526151E+03 0.  0.
         24    2    5    5    0    0  0.62489877861E+02  0.36470784888E+02  0.10484323432E+03  0.14734469883E+03  0.74048993956E+02 0.  0.
          5    1    5    5  501    0 -0.14641678701E+02 -0.81235267017E+02  0.12030341546E+03  0.14597448110E+03  0.47000000000E+01 0. -1.
        -11    1    6    6    0    0  0.52080276002E+02  0.77360922123E+01  0.18590325447E+02  0.55837285673E+02  0.00000000000E+00 0.  1.
         12    1    6    6    0    0  0.10409601859E+02  0.28734692676E+02  0.86252908871E+02  0.91507413157E+02  0.00000000000E+00 0. -1.
         -5    1    3    3    0  503 -0.48472173225E+02 -0.33144513547E+02  0.15816256512E+03  0.16877676783E+03  0.47000000000E+01 0.  1.
         11    1    4    4    0    0 -0.36110087627E+02  0.47729154526E+02  0.49235527319E+02  0.77499340452E+02  0.00000000000E+00 0. -1.
        -12    1    4    4    0    0  0.36734061692E+02  0.30179841150E+02  0.81883577365E+02  0.94684393341E+02  0.00000000000E+00 0.  1.
</event>
<event>
12    1  0.1066489E+000  0.2761431E+03  0.7818608E-02  0.1097845E+00
         21   -1    0    0  503  502  0.00000000000E+00  0.00000000000E+00  0.16171246813E+04  0.16171246813E+04  0.00000000000E+00 0.  1.
         21   -1    0    0  501  503 -0.00000000000E+00 -0.00000000000E+00 -0.63672268967E+02  0.63672268967E+02  0.00000000000E+00 0. -1.
          6    2    1    2  501    0  0.16694014375E+03 -0.13669832825E+03  0.12050205811E+04  0.12362075551E+04  0.17198567986E+03 0.  0.
         24    2    3    3    0    0  0.65832009940E+02 -0.13832504893E+03  0.78378838376E+03  0.80298226158E+03  0.83597901878E+02 0.  0.
         -6    2    1    2    0  502 -0.16694014375E+03  0.13669832825E+03  0.34843183123E+03  0.44458939508E+03  0.17233555832E+03 0.  0.
        -24    2    5    5    0    0 -0.50660132108E+02  0.11075761641E+03  0.25216535484E+03  0.29134682229E+03  0.80385981994E+02 0.  0.
          5    1    3    3  501    0  0.10110813381E+03  0.16267206837E+01  0.42123219729E+03  0.43322529355E+03  0.47000000000E+01 0. -1.
        -13    1    4    4    0    0  0.66771943515E+02 -0.53831122054E+02  0.48273240910E+03  0.49029262786E+03  0.00000000000E+00 0.  1.
         14    1    4    4    0    0 -0.93993357552E+00 -0.84493926875E+02  0.30105597466E+03  0.31268963372E+03  0.00000000000E+00 0. -1.
         -5    1    5    5    0  502 -0.11628001164E+03  0.25940711835E+02  0.96266476400E+02  0.15324257279E+03  0.47000000000E+01 0.  1.
         13    1    6    6    0    0  0.15290923267E+02  0.38523354407E+02  0.39449297168E+02  0.57219823629E+02  0.00000000000E+00 0. -1.
        -14    1    6    6    0    0 -0.65951055375E+02  0.72234262003E+02  0.21271605767E+03  0.23412699866E+03  0.00000000000E+00 0.  1.
</event>
<event>
12    1  0.1066489E+000  0.2199607E+03  0.7818608E-02  0.1136860E+00
         21   -1    0    0  501  502  0.00000000000E+00  0.00000000000E+00  0.69724745833E+02  0.69724745833E+02  0.00000000000E+00 0.  1.
         21   -1    0    0  502  503 -0.00000000000E+00 -0.00000000000E+00 -0.65028111531E+03  0.65028111531E+03  0.00000000000E+00 0.  1.
         -6    2    1    2    0  503 -0.11179600235E+03 -0.52719502611E+01 -0.32720767663E+03  0.39426838682E+03  0.18935827841E+03 0.  0.
        -24    2    3    3    0    0 -0.23949758472E+01 -0.77744962886E+01 -0.46016727664E+02  0.92498131305E+02  0.79825975523E+02 0.  0.
          6    2    1    2  501    0  0.11179600235E+03  0.52719502611E+01 -0.25334869286E+03  0.32573747432E+03  0.17144445866E+03 0.  0.
         24    2    5    5    0    0  0.14695068034E+03 -0.16558992993E+01 -0.19354039111E+03  0.25585922706E+03  0.80055084930E+02 0.  0.
          5    1    5    5  501    0 -0.35154677989E+02  0.69278495604E+01 -0.59808301741E+02  0.69878247267E+02  0.47000000000E+01 0. -1.
        -11    1    6    6    0    0  0.10054552447E+03  0.35827546253E+02 -0.13696696189E+03  0.17364608896E+03  0.00000000000E+00 0.  1.
         12    1    6    6    0    0  0.46405155866E+02 -0.37483445552E+02 -0.56573429220E+02  0.82213138093E+02  0.00000000000E+00 0. -1.
         -5    1    3    3    0  503 -0.10940102650E+03  0.25025460275E+01 -0.28119094896E+03  0.30177025552E+03  0.47000000000E+01 0.  1.
         11    1    4    4    0    0 -0.35118661791E+02  0.13044751843E+02 -0.37051061543E+02  0.52690294344E+02  0.00000000000E+00 0. -1.
        -12    1    4    4    0    0  0.32723685944E+02 -0.20819248132E+02 -0.89656661207E+01  0.39807836961E+02  0.00000000000E+00 0.  1.
</event>
<event>
12    1  0.1066489E+000  0.1992578E+03  0.7818608E-02  0.1150591E+00
         21   -1    0    0  503  502  0.00000000000E+00  0.00000000000E+00  0.92575591601E+02  0.92575591601E+02  0.00000000000E+00 0. -1.
         21   -1    0    0  501  503 -0.00000000000E+00 -0.00000000000E+00 -0.44293471201E+03  0.44293471201E+03  0.00000000000E+00 0. -1.
          6    2    1    2  501    0 -0.25704867435E+02  0.96636075803E+02 -0.22703155337E+03  0.30207115090E+03  0.17234959422E+03 0.  0.
         24    2    3    3    0    0 -0.26178966503E+01 -0.24690447473E+00 -0.39334494997E+02  0.89535046185E+02  0.80389101587E+02 0.  0.
         -6    2    1    2    0  502  0.25704867435E+02 -0.96636075803E+02 -0.12332756704E+03  0.23343915271E+03  0.17112824977E+03 0.  0.
        -24    2    5    5    0    0 -0.25193946790E+02 -0.15926145599E+02 -0.12837350791E+02  0.87374235600E+02  0.81123870734E+02 0.  0.
          5    1    3    3  501    0 -0.23086970784E+02  0.96882980277E+02 -0.18769705837E+03  0.21253610472E+03  0.47000000000E+01 0. -1.
        -11    1    4    4    0    0 -0.16122271442E+02 -0.26437606730E+02 -0.49479462914E+02  0.58370300122E+02  0.00000000000E+00 0.  1.
         12    1    4    4    0    0  0.13504374792E+02  0.26190702255E+02  0.10144967918E+02  0.31164746063E+02  0.00000000000E+00 0. -1.
         -5    1    5    5    0  502  0.50898814225E+02 -0.80709930203E+02 -0.11049021625E+03  0.14606491711E+03  0.47000000000E+01 0.  1.
         11    1    6    6    0    0 -0.44016568794E+02  0.86541585507E+01 -0.28021319362E+02  0.52891843676E+02  0.00000000000E+00 0. -1.
        -12    1    6    6    0    0  0.18822622004E+02 -0.24580304150E+02  0.15183968571E+02  0.34482391924E+02  0.00000000000E+00 0.  1.
</event>
<event>
12    1  0.1066489E+000  0.2698688E+03  0.7818608E-02  0.1101463E+00
         21   -1    0    0  503  502  0.00000000000E+00  0.00000000000E+00  0.89252666542E+02  0.89252666542E+02  0.00000000000E+00 0.  1.
         21   -1    0    0  501  503 -0.00000000000E+00 -0.00000000000E+00 -0.89233342272E+03  0.89233342272E+03  0.00000000000E+00 0. -1.
          6    2    1    2  501    0 -0.53953127713E+01  0.20739553533E+03 -0.54772953661E+03  0.61060362720E+03  0.17258947475E+03 0.  0.
         24    2    3    3    0    0  0.15889901382E+02  0.20308844284E+03 -0.54608359683E+03  0.58832335554E+03  0.80122851707E+02 0.  0.
         -6    2    1    2    0  502  0.53953127713E+01 -0.20739553533E+03 -0.25535121957E+03  0.37098246206E+03  0.17141098083E+03 0.  0.
        -24    2    5    5    0    0 -0.42235319445E+02 -0.12962500295E+03 -0.22696089880E+03  0.27535279540E+03  0.75640258818E+02 0.  0.
          5    1    3    3  501    0 -0.21285214153E+02  0.43070924946E+01 -0.16459397772E+01  0.22280271656E+02  0.47000000000E+01 0. -1.
        -13    1    4    4    0    0  0.29654216024E+02  0.79775104990E+02 -0.14132384496E+03  0.16497232816E+03  0.00000000000E+00 0.  1.
         14    1    4    4    0    0 -0.13764314642E+02  0.12331333785E+03 -0.40475975188E+03  0.42335102738E+03  0.00000000000E+00 0. -1.
         -5    1    5    5    0  502  0.47630632217E+02 -0.77770532383E+02 -0.28390320769E+02  0.95629666661E+02  0.47000000000E+01 0.  1.
         11    1    6    6    0    0 -0.43491863836E+02 -0.11654462422E+03 -0.13948897684E+03  0.18689934809E+03  0.00000000000E+00 0. -1.
        -12    1    6    6    0    0  0.12565443905E+01 -0.13080378729E+02 -0.87471921952E+02  0.88453447313E+02  0.00000000000E+00 0.  1.
</event>
<event>
12    1  0.1066489E+000  0.3099857E+03  0.7818608E-02  0.1080391E+00
         21   -1    0    0  503  502  0.00000000000E+00  0.00000000000E+00  0.13747815338E+03  0.13747815338E+03  0.00000000000E+00 0. -1.
         21   -1    0    0  501  503 -0.00000000000E+00 -0.00000000000E+00 -0.82243626760E+03  0.82243626760E+03  0.00000000000E+00 0. -1.
          6    2    1    2  501    0  0.19150898420E+03 -0.17186685963E+03 -0.52884578668E+03  0.61283773801E+03  0.17227396372E+03 0.  0.
         24    2    3    3    0    0  0.21639034363E+03 -0.14442079396E+03 -0.45822757271E+03  0.53295413073E+03  0.79909014046E+02 0.  0.
         -6    2    1    2    0  502 -0.19150898420E+03  0.17186685963E+03 -0.15611232755E+03  0.34707668297E+03  0.17285038786E+03 0.  0.
        -24    2    5    5    0    0 -0.87810668829E+02  0.53706202563E+02 -0.63029761061E+01  0.12986661583E+03  0.78933773796E+02 0.  0.
          5    1    3    3  501    0 -0.24881359434E+02 -0.27446065662E+02 -0.70618213970E+02  0.79883607279E+02  0.47000000000E+01 0. -1.
        -13    1    4    4    0    0  0.12127819206E+03 -0.10279275464E+03 -0.20614040992E+03  0.26032406511E+03  0.00000000000E+00 0.  1.
         14    1    4    4    0    0  0.95112151575E+02 -0.41628039321E+02 -0.25208716279E+03  0.27263006562E+03  0.00000000000E+00 0. -1.
         -5    1    5    5    0  502 -0.10369831537E+03  0.11816065706E+03 -0.14980935144E+03  0.21721006714E+03  0.47000000000E+01 0.  1.
         11    1    6    6    0    0 -0.24110506132E+02  0.36244819195E+02  0.31528051761E+02  0.53749618345E+02  0.00000000000E+00 0. -1.
        -12    1    6    6    0    0 -0.63700162697E+02  0.17461383368E+02 -0.37831027867E+02  0.76116997485E+02  0.00000000000E+00 0.  1.
</event>
<event>
12    1  0.1066489E+000  0.2670732E+03  0.7818608E-02  0.1103093E+00
         21   -1    0    0  501  502  0.00000000000E+00  0.00000000000E+00  0.36598457358E+03  0.36598457358E+03  0.00000000000E+00 0. -1.
         21   -1    0    0  502  503 -0.00000000000E+00 -0.00000000000E+00 -0.20912660826E+03  0.20912660826E+03  0.00000000000E+00 0. -1.
         -6    2    1    2    0  503  0.11247208225E+03 -0.17059738589E+03  0.15521900910E+03  0.30890298499E+03  0.17197289320E+03 0.  0.
        -24    2    3    3    0    0  0.67075392134E+02 -0.19598530029E+02  0.41700796908E+02  0.11455796076E+03  0.80631007075E+02 0.  0.
          6    2    1    2  501    0 -0.11247208225E+03  0.17059738589E+03  0.16389562213E+01  0.26620819684E+03  0.17061852341E+03 0.  0.
         24    2    5    5    0    0 -0.94480892161E+02  0.30267904899E+02  0.25344427757E+02  0.12268089792E+03  0.67568318349E+02 0.  0.
          5    1    5    5  501    0 -0.17991190086E+02  0.14032948099E+03 -0.23705471536E+02  0.14352729893E+03  0.47000000000E+01 0. -1.
        -11    1    6    6    0    0 -0.94652567134E+02  0.45331865133E+02  0.22928461183E+02  0.10742346482E+03  0.00000000000E+00 0.  1.
         12    1    6    6    0    0  0.17167497257E+00 -0.15063960234E+02  0.24159665746E+01  0.15257433097E+02  0.00000000000E+00 0. -1.
         -5    1    3    3    0  503  0.45396690113E+02 -0.15099885586E+03  0.11351821219E+03  0.19434502423E+03  0.47000000000E+01 0.  1.
         11    1    4    4    0    0 -0.10981510295E+02 -0.20995136154E+02 -0.40992829881E+01  0.24045653068E+02  0.00000000000E+00 0. -1.
        -12    1    4    4    0    0  0.78056902429E+02  0.13966061244E+01  0.45800079896E+02  0.90512307693E+02  0.00000000000E+00 0.  1.
</event>
<event>
12    1  0.1066489E+000  0.3229753E+03  0.7818608E-02  0.1074349E+00
         21   -1    0    0  501  502  0.00000000000E+00  0.00000000000E+00  0.86856729120E+03  0.86856729120E+03  0.00000000000E+00 0.  1.
         21   -1    0    0  502  503 -0.00000000000E+00 -0.00000000000E+00 -0.11995813127E+03  0.11995813127E+03  0.00000000000E+00 0.  1.
         -6    2    1    2    0  503 -0.25417156154E+03  0.10094748121E+03  0.38493101330E+03  0.50213583882E+03  0.17080672987E+03 0.  0.
        -24    2    3    3    0    0 -0.24176778572E+03  0.75843668909E+02  0.39134436108E+03  0.47302783174E+03  0.80006226765E+02 0.  0.
          6    2    1    2  501    0  0.25417156154E+03 -0.10094748121E+03  0.36367814663E+03  0.48638958366E+03  0.17181226993E+03 0.  0.
         24    2    5    5    0    0  0.19766595065E+03 -0.12872870154E+03  0.33345347492E+03  0.41638743336E+03  0.80897268699E+02 0.  0.
          5    1    5    5  501    0  0.56505610892E+02  0.27781220339E+02  0.30224671718E+02  0.70002150297E+02  0.47000000000E+01 0. -1.
        -11    1    6    6    0    0  0.65107717994E+02 -0.25457759549E+02  0.16140354727E+03  0.17589263070E+03  0.00000000000E+00 0.  1.
         12    1    6    6    0    0  0.13255823265E+03 -0.10327094200E+03  0.17204992765E+03  0.24049480266E+03  0.00000000000E+00 0. -1.
         -5    1    3    3    0  503 -0.12403775819E+02  0.25103812297E+02 -0.64133477844E+01  0.29108007081E+02  0.47000000000E+01 0.  1.
         13    1    4    4    0    0 -0.23284018612E+03  0.73153648692E+02  0.32714129108E+03  0.40815123780E+03  0.00000000000E+00 0. -1.
        -14    1    4    4    0    0 -0.89275996063E+01  0.26900202166E+01  0.64203069997E+02  0.64876593935E+02  0.00000000000E+00 0.  1.
</event>
<event>
12    1  0.1066489E+000  0.2236350E+03  0.7818608E-02  0.1131499E+00
         21   -1    0    0  501  502  0.00000000000E+00  0.00000000000E+00  0.26551416568E+03  0.26551416568E+03  0.00000000000E+00 0.  1.
         21   -1    0    0  502  503 -0.00000000000E+00 -0.00000000000E+00 -0.25620147625E+03  0.25620147625E+03  0.00000000000E+00 0.  1.
         -6    2    1    2    0  503 -0.17646147007E+02  0.14097217564E+03 -0.13092931756E+03  0.25774513574E+03  0.17060342315E+03 0.  0.
        -24    2    3    3    0    0  0.17399502478E+02  0.14394051135E+03 -0.14434553729E+03  0.21980974967E+03  0.80368391926E+02 0.  0.
          6    2    1    2  501    0  0.17646147007E+02 -0.14097217564E+03  0.14024200699E+03  0.26397050619E+03  0.17270803920E+03 0.  0.
         24    2    5    5    0    0  0.54076113461E+02 -0.69942734222E+02  0.13969596179E+03  0.18400356196E+03  0.80784509380E+02 0.  0.
          5    1    5    5  501    0 -0.36429966454E+02 -0.71029441414E+02  0.54604519467E+00  0.79966944226E+02  0.47000000000E+01 0. -1.
        -13    1    6    6    0    0  0.61542328366E+02 -0.68989502753E+02  0.75483448325E+02  0.11935141659E+03  0.00000000000E+00 0.  1.
         14    1    6    6    0    0 -0.74662149054E+01 -0.95323146854E+00  0.64212513470E+02  0.64652145373E+02  0.00000000000E+00 0. -1.
         -5    1    3    3    0  503 -0.35045649485E+02 -0.29683357153E+01  0.13416219722E+02  0.37935386071E+02  0.47000000000E+01 0.  1.
         11    1    4    4    0    0 -0.99678277052E+01  0.55060651121E+02 -0.10664994638E+02  0.56962926555E+02  0.00000000000E+00 0. -1.
        -12    1    4    4    0    0  0.27367330183E+02  0.88879860230E+02 -0.13368054265E+03  0.16284682311E+03  0.00000000000E+00 0.  1.
</event>
<event>
12    1  0.1066489E+000  0.2046613E+03  0.7818608E-02  0.1146870E+00
         21   -1    0    0  501  502  0.00000000000E+00  0.00000000000E+00  0.54456617299E+03  0.54456617299E+03  0.00000000000E+00 0. -1.
         21   -1    0    0  502  503 -0.00000000000E+00 -0.00000000000E+00 -0.79887934480E+02  0.79887934480E+02  0.00000000000E+00 0. -1.
         -6    2    1    2    0  503 -0.23160286118E+02 -0.10489904146E+03  0.30610578635E+03  0.36554974854E+03  0.16848043942E+03 0.  0.
        -24    2    3    3    0    0 -0.41872797708E+01 -0.15936541877E+02  0.23905155863E+03  0.25244510338E+03  0.79444168185E+02 0.  0.
          6    2    1    2  501    0  0.23160286118E+02  0.10489904146E+03  0.15857245216E+03  0.25890435893E+03  0.17420113873E+03 0.  0.
         24    2    5    5    0    0  0.71532604277E+02  0.83097326649E+02  0.63749167394E+02  0.15014434207E+03  0.80357251958E+02 0.  0.
          5    1    5    5  501    0 -0.48372318159E+02  0.21801714812E+02  0.94823284762E+02  0.10876001685E+03  0.47000000000E+01 0. -1.
        -13    1    6    6    0    0  0.51709052369E+00  0.17083452055E+02 -0.16894184219E+02  0.24031753518E+02  0.00000000000E+00 0.  1.
         14    1    6    6    0    0  0.71015513753E+02  0.66013874594E+02  0.80643351613E+02  0.12611258855E+03  0.00000000000E+00 0. -1.
         -5    1    3    3    0  503 -0.18973006347E+02 -0.88962499584E+02  0.67054227727E+02  0.11310464517E+03  0.47000000000E+01 0.  1.
         13    1    4    4    0    0  0.57125648216E+01  0.12471324069E+02  0.24448522660E+01  0.13933578990E+02  0.00000000000E+00 0. -1.
        -14    1    4    4    0    0 -0.98998445924E+01 -0.28407865946E+02  0.23660670636E+03  0.23851152439E+03  0.00000000000E+00 0.  1.
</event>
<event>
12    1  0.1066489E+000  0.1909848E+03  0.7818608E-02  0.1157856E+00
         21   -1    0    0  501  502  0.00000000000E+00  0.00000000000E+00  0.11708858724E+03  0.11708858724E+03  0.00000000000E+00 0. -1.
         21   -1    0    0  502  503 -0.00000000000E+00 -0.00000000000E+00 -0.87459916016E+03  0.87459916016E+03  0.00000000000E+00 0. -1.
         -6    2    1    2    0  503 -0.46844146993E+02 -0.63066914665E+02  0.20254253518E+02  0.19081739173E+03  0.17271141355E+03 0.  0.
        -24    2    3    3    0    0 -0.11450507445E+02  0.27818651667E+02 -0.17154056958E+02  0.86249865319E+02  0.78992316690E+02 0.  0.
          6    2    1    2  501    0  0.46844146993E+02  0.63066914665E+02 -0.77776482644E+03  0.80087035566E+03  0.17407869339E+03 0.  0.
         24    2    5    5    0    0  0.88633602341E+02  0.51866493492E+02 -0.57058528857E+03  0.58916948432E+03  0.10491454195E+03 0.  0.
          5    1    5    5  501    0 -0.41789455348E+02  0.11200421174E+02 -0.20717953787E+03  0.21170087134E+03  0.47000000000E+01 0. -1.
        -11    1    6    6    0    0  0.36128975961E+02  0.62414921238E+02 -0.46723695437E+03  0.47276981379E+03  0.00000000000E+00 0.  1.
         12    1    6    6    0    0  0.52504626380E+02 -0.10548427746E+02 -0.10334833420E+03  0.11639967053E+03  0.00000000000E+00 0. -1.
         -5    1    3    3    0  503 -0.35393639548E+02 -0.90885566333E+02  0.37408310476E+02  0.10456752642E+03  0.47000000000E+01 0.  1.
         13    1    4    4    0    0 -0.79252139284E+01  0.21726057667E+02  0.30389320732E+02  0.38188236568E+02  0.00000000000E+00 0. -1.
        -14    1    4    4    0    0 -0.35252935167E+01  0.60925940002E+01 -0.47543377690E+02  0.48061628751E+02  0.00000000000E+00 0.  1.
</event>
<event>
12    1  0.1066489E+000  0.2770555E+03  0.7818608E-02  0.1097335E+00
         21   -1    0    0  501  502  0.00000000000E+00  0.00000000000E+00  0.20834677525E+03  0.20834677525E+03  0.00000000000E+00 0. -1.
         21   -1    0    0  502  503 -0.00000000000E+00 -0.00000000000E+00 -0.37767185876E+03  0.37767185876E+03  0.00000000000E+00 0. -1.
         -6    2    1    2    0  503  0.45798130654E+02 -0.21080444435E+03 -0.38151047790E+02  0.27947923161E+03  0.17354295124E+03 0.  0.
        -24    2    3    3    0    0  0.40430467384E+02 -0.92854534609E+02  0.43238334137E+02  0.13599642948E+03  0.79805313119E+02 0.  0.
          6    2    1    2  501    0 -0.45798130654E+02  0.21080444435E+03 -0.13117403572E+03  0.30653940240E+03  0.17384992105E+03 0.  0.
         24    2    5    5    0    0 -0.92471502824E+02  0.99039829800E+02 -0.79769158967E+02  0.17487967398E+03  0.76550081164E+02 0.  0.
          5    1    5    5  501    0  0.46673372171E+02  0.11176461455E+03 -0.51404876755E+02  0.13165972843E+03  0.47000000000E+01 0. -1.
        -13    1    6    6    0    0 -0.27242017238E+02 -0.96116151845E+01 -0.15620692702E+02  0.32840777855E+02  0.00000000000E+00 0.  1.
         14    1    6    6    0    0 -0.65229485587E+02  0.10865144498E+03 -0.64148466265E+02  0.14203889612E+03  0.00000000000E+00 0. -1.
         -5    1    3    3    0  503  0.53676632695E+01 -0.11794990974E+03 -0.81389381926E+02  0.14348280213E+03  0.47000000000E+01 0.  1.
         13    1    4    4    0    0  0.64294392379E+02 -0.65826301661E+02  0.23840280814E+02  0.95053826177E+02  0.00000000000E+00 0. -1.
        -14    1    4    4    0    0 -0.23863924995E+02 -0.27028232948E+02  0.19398053322E+02  0.40942603302E+02  0.00000000000E+00 0.  1.
</event>
<event>
12    1  0.1066489E+000  0.3494937E+03  0.7818608E-02  0.1062831E+00
         21   -1    0    0  503  502  0.00000000000E+00  0.00000000000E+00  0.79318322128E+03  0.79318322128E+03  0.00000000000E+00 0. -1.
         21   -1    0    0  501  503 -0.00000000000E+00 -0.00000000000E+00 -0.18199550085E+03  0.18199550085E+03  0.00000000000E+00 0. -1.
          6    2    1    2  501    0 -0.27009324479E+03 -0.14114605801E+03  0.11425426691E+03  0.36769533841E+03  0.17109428339E+03 0.  0.
         24    2    3    3    0    0 -0.24855976050E+03 -0.14162558437E+03  0.53051829312E+02  0.30264344175E+03  0.83299433101E+02 0.  0.
         -6    2    1    2    0  502  0.27009324479E+03  0.14114605801E+03  0.49693345353E+03  0.60748338372E+03  0.17094043899E+03 0.  0.
        -24    2    5    5    0    0  0.27549454002E+03  0.94155183638E+02  0.43859224330E+03  0.53222979194E+03  0.78377007824E+02 0.  0.
          5    1    3    3  501    0 -0.21533484292E+02  0.47952636156E+00  0.61202437594E+02  0.65051896657E+02  0.47000000000E+01 0. -1.
        -11    1    4    4    0    0 -0.17264151785E+03 -0.53262904605E+02  0.21475282512E+02  0.18194289888E+03  0.00000000000E+00 0.  1.
         12    1    4    4    0    0 -0.75918242642E+02 -0.88362679768E+02  0.31576546799E+02  0.12070054287E+03  0.00000000000E+00 0. -1.
         -5    1    5    5    0  502 -0.54012952338E+01  0.46990874373E+02  0.58341210227E+02  0.75253591777E+02  0.47000000000E+01 0.  1.
         11    1    6    6    0    0  0.10045511627E+03  0.47310426713E+02  0.23350833368E+03  0.25856459301E+03  0.00000000000E+00 0. -1.
        -12    1    6    6    0    0  0.17503942375E+03  0.46844756925E+02  0.20508390962E+03  0.27366519893E+03  0.00000000000E+00 0.  1.
</event>
<event>
12    1  0.1066489E+000  0.2186890E+03  0.7818608E-02  0.1135003E+00
         21   -1    0    0  503  502  0.00000000000E+00  0.00000000000E+00  0.17734249892E+03  0.17734249892E+03  0.00000000000E+00 0.  1.
         21   -1    0    0  501  503 -0.00000000000E+00 -0.00000000000E+00 -0.27291271158E+03  0.27291271158E+03  0.00000000000E+00 0.  1.
          6    2    1    2  501    0  0.71628793514E+02 -0.11360218430E+03 -0.20115804831E+02  0.21961220753E+03  0.17259413592E+03 0.  0.
         24    2    3    3    0    0  0.28516231040E+02 -0.51333672554E+02  0.52836499194E+02  0.11434972960E+03  0.82679160866E+02 0.  0.
         -6    2    1    2    0  502 -0.71628793514E+02  0.11360218430E+03 -0.75454407834E+02  0.23064300297E+03  0.17165863456E+03 0.  0.
        -24    2    5    5    0    0 -0.60123860963E+02  0.14966533602E+03 -0.59972333209E+02  0.18947628073E+03  0.79309449286E+02 0.  0.
          5    1    3    3  501    0  0.43112562475E+02 -0.62268511748E+02 -0.72952304025E+02  0.10526247793E+03  0.47000000000E+01 0. -1.
        -11    1    4    4    0    0  0.17335138120E+02  0.21392753530E+02  0.18342610857E+02  0.33084864973E+02  0.00000000000E+00 0.  1.
         12    1    4    4    0    0  0.11181092919E+02 -0.72726426085E+02  0.34493888337E+02  0.81264864625E+02  0.00000000000E+00 0. -1.
         -5    1    5    5    0  502 -0.11504932551E+02 -0.36063151720E+02 -0.15482074625E+02  0.41166722236E+02  0.47000000000E+01 0.  1.
         11    1    6    6    0    0  0.16811391370E+02  0.55753455977E+02 -0.16498877551E+02  0.60525066655E+02  0.00000000000E+00 0. -1.
        -12    1    6    6    0    0 -0.76935252333E+02  0.93911880045E+02 -0.43473455658E+02  0.12895121408E+03  0.00000000000E+00 0.  1.
</event>
<event>
12    1  0.1066489E+000  0.2480665E+03  0.7818608E-02  0.1114552E+00
         21   -1    0    0  501  502  0.00000000000E+00  0.00000000000E+00  0.11064104045E+03  0.11064104045E+03  0.00000000000E+00 0.  1.
         21   -1    0    0  502  503 -0.00000000000E+00 -0.00000000000E+00 -0.55594112636E+03  0.55594112636E+03  0.00000000000E+00 0.  1.
         -6    2    1    2    0  503 -0.70005317785E+02 -0.16460266506E+03 -0.22481259726E+03  0.33478008356E+03  0.17187849951E+03 0.  0.
        -24    2    3    3    0    0 -0.96995981244E+02 -0.13517335769E+03 -0.22954474459E+03  0.29429473726E+03  0.78984464301E+02 0.  0.
          6    2    1    2  501    0  0.70005317785E+02  0.16460266506E+03 -0.22048748865E+03  0.33180208325E+03  0.17170645864E+03 0.  0.
         24    2    5    5    0    0 -0.23135203660E+02  0.11642353740E+03 -0.11740075053E+03  0.18467849353E+03  0.78952720271E+02 0.  0.
          5    1    5    5  501    0  0.93140521445E+02  0.48179127659E+02 -0.10308673811E+03  0.14712358972E+03  0.47000000000E+01 0. -1.
        -11    1    6    6    0    0 -0.48307547035E+01  0.11941085021E+03 -0.11521702116E+03  0.16600376292E+03  0.00000000000E+00 0.  1.
         12    1    6    6    0    0 -0.18304448957E+02 -0.29873128099E+01 -0.21837293747E+01  0.18674730611E+02  0.00000000000E+00 0. -1.
         -5    1    3    3    0  503  0.26990663459E+02 -0.29429307375E+02  0.47321473333E+01  0.40485346299E+02  0.47000000000E+01 0.  1.
         11    1    4    4    0    0 -0.40026217705E+02 -0.11658123416E+03 -0.16828209982E+03  0.20859565524E+03  0.00000000000E+00 0. -1.
        -12    1    4    4    0    0 -0.56969763539E+02 -0.18592123522E+02 -0.61262644769E+02  0.85699082019E+02  0.00000000000E+00 0.  1.
</event>
<event>
12    1  0.1066489E+000  0.2134050E+03  0.7818608E-02  0.1139445E+00
         21   -1    0    0  503  502  0.00000000000E+00  0.00000000000E+00  0.21957209760E+04  0.21957209760E+04  0.00000000000E+00 0.  1.
         21   -1    0    0  501  503 -0.00000000000E+00 -0.00000000000E+00 -0.20742367275E+02  0.20742367275E+02  0.00000000000E+00 0.  1.
          6    2    1    2  501    0 -0.94106857148E+02 -0.78293507129E+02  0.95329456893E+03  0.97628045291E+03  0.17136806518E+03 0.  0.
         24    2    3    3    0    0 -0.25982721479E+02  0.14002851083E+02  0.56376390567E+03  0.57018225885E+03  0.80043021662E+02 0.  0.
         -6    2    1    2    0  502  0.94106857148E+02  0.78293507129E+02  0.12216840398E+04  0.12401828904E+04  0.17480198695E+03 0.  0.
        -24    2    5    5    0    0  0.12856021594E+03  0.34754319236E+02  0.80975148774E+03  0.82449886101E+03  0.79782880926E+02 0.  0.
          5    1    3    3  501    0 -0.68124135669E+02 -0.92296358212E+02  0.38953066326E+03  0.40609819406E+03  0.47000000000E+01 0. -1.
        -13    1    4    4    0    0  0.24765128091E+02  0.52882279754E+01  0.32209041401E+03  0.32308437245E+03  0.00000000000E+00 0.  1.
         14    1    4    4    0    0 -0.50747849570E+02  0.87146231075E+01  0.24167349166E+03  0.24709788640E+03  0.00000000000E+00 0. -1.
         -5    1    5    5    0  502 -0.34453358790E+02  0.43539187893E+02  0.41193255210E+03  0.41568402939E+03  0.47000000000E+01 0.  1.
         13    1    6    6    0    0  0.17597085049E+02  0.14495663172E+01  0.21694937765E+02  0.27971931813E+02  0.00000000000E+00 0. -1.
        -14    1    6    6    0    0  0.11096313089E+03  0.33304752919E+02  0.78805654997E+03  0.79652692920E+03  0.00000000000E+00 0.  1.
</event>
<event>
12    1  0.1066489E+000  0.2091669E+03  0.7818608E-02  0.1144310E+00
         21   -1    0    0  501  502  0.00000000000E+00  0.00000000000E+00  0.81512981925E+03  0.81512981925E+03  0.00000000000E+00 0.  1.
         21   -1    0    0  502  503 -0.00000000000E+00 -0.00000000000E+00 -0.93352004619E+02  0.93352004619E+02  0.00000000000E+00 0. -1.
         -6    2    1    2    0  503 -0.17081318025E+02  0.12059705438E+03  0.66153570444E+03  0.69081253120E+03  0.15734371314E+03 0.  0.
        -24    2    3    3    0    0 -0.20446967458E+02  0.93972918891E+02  0.64891012589E+03  0.66078475371E+03  0.79392388181E+02 0.  0.
          6    2    1    2  501    0  0.17081318025E+02 -0.12059705438E+03  0.60242110196E+02  0.21766929267E+03  0.17004525333E+03 0.  0.
         24    2    5    5    0    0 -0.52966947353E+01  0.43326903228E+01  0.39118229387E+02  0.88919438661E+02  0.79558805426E+02 0.  0.
          5    1    5    5  501    0  0.22378012760E+02 -0.12492974471E+03  0.21123880809E+02  0.12874985401E+03  0.47000000000E+01 0. -1.
        -13    1    6    6    0    0 -0.41906071194E+02 -0.36966824269E+01  0.24549541406E+02  0.48707948500E+02  0.00000000000E+00 0.  1.
         14    1    6    6    0    0  0.36609376459E+02  0.80293727497E+01  0.14568687981E+02  0.40211490161E+02  0.00000000000E+00 0. -1.
         -5    1    3    3    0  503  0.33656494326E+01  0.26624135493E+02  0.12625578551E+02  0.30027777483E+02  0.47000000000E+01 0.  1.
         13    1    4    4    0    0 -0.31429921594E+02  0.45268561546E+01  0.11414798792E+03  0.11848246935E+03  0.00000000000E+00 0. -1.
        -14    1    4    4    0    0  0.10982954136E+02  0.89446062737E+02  0.53476213797E+03  0.54230228436E+03  0.00000000000E+00 0.  1.
</event>
<event>
12    1  0.1066489E+000  0.2058873E+03  0.7818608E-02  0.1145479E+00
         21   -1    0    0  503  502  0.00000000000E+00  0.00000000000E+00  0.18275966984E+03  0.18275966984E+03  0.00000000000E+00 0. -1.
         21   -1    0    0  501  503 -0.00000000000E+00 -0.00000000000E+00 -0.24452189084E+03  0.24452189084E+03  0.00000000000E+00 0. -1.
          6    2    1    2  501    0 -0.94803540373E+02  0.43406628908E+02 -0.85652019628E+02  0.22299288993E+03  0.17753228944E+03 0.  0.
         24    2    3    3    0    0 -0.31143388093E+02  0.89815674793E+02 -0.34185933992E+02  0.12877366419E+03  0.79857450790E+02 0.  0.
         -6    2    1    2    0  502  0.94803540373E+02 -0.43406628908E+02  0.23889798631E+02  0.20428867075E+03  0.17404393645E+03 0.  0.
        -24    2    5    5    0    0  0.48027433963E+02 -0.40750772747E+02  0.80803868236E+02  0.13042149927E+03  0.80704661931E+02 0.  0.
          5    1    3    3  501    0 -0.63660152280E+02 -0.46409045885E+02 -0.51466085636E+02  0.94219225740E+02  0.47000000000E+01 0. -1.
        -13    1    4    4    0    0 -0.38022408949E+02  0.93513267785E+02 -0.77913547264E+01  0.10124791377E+03  0.00000000000E+00 0.  1.
         14    1    4    4    0    0  0.68790208560E+01 -0.36975929917E+01 -0.26394579266E+02  0.27525750426E+02  0.00000000000E+00 0. -1.
         -5    1    5    5    0  502  0.46776106410E+02 -0.26558561607E+01 -0.56914069605E+02  0.73867171476E+02  0.47000000000E+01 0.  1.
         11    1    6    6    0    0 -0.10380316544E+02 -0.32737245210E+02  0.57606314942E+02  0.67066874959E+02  0.00000000000E+00 0. -1.
        -12    1    6    6    0    0  0.58407750506E+02 -0.80135275367E+01  0.23197553294E+02  0.63354624311E+02  0.00000000000E+00 0.  1.
</event>
<event>
12    1  0.1066489E+000  0.2407265E+03  0.7818608E-02  0.1119806E+00
         21   -1    0    0  501  502  0.00000000000E+00  0.00000000000E+00  0.23127285146E+03  0.23127285146E+03  0.00000000000E+00 0.  1.
         21   -1    0    0  502  503 -0.00000000000E+00 -0.00000000000E+00 -0.30968703348E+03  0.30968703348E+03  0.00000000000E+00 0.  1.
         -6    2    1    2    0  503  0.44594953612E+02  0.16165707737E+03  0.81819152299E+02  0.25425114364E+03  0.17270654246E+03 0.  0.
        -24    2    3    3    0    0  0.64314889213E+02  0.16293762062E+03  0.24520267714E+02  0.19345831655E+03  0.78356898382E+02 0.  0.
          6    2    1    2  501    0 -0.44594953612E+02 -0.16165707737E+03 -0.16023333432E+03  0.28670874131E+03  0.16853919534E+03 0.  0.
         24    2    5    5    0    0  0.13535368199E+02 -0.15885496501E+03 -0.12906002801E+03  0.22052074260E+03  0.80961725423E+02 0.  0.
          5    1    5    5  501    0 -0.58130321811E+02 -0.28021123590E+01 -0.31173306306E+02  0.66187998712E+02  0.47000000000E+01 0. -1.
        -13    1    6    6    0    0  0.20324725688E+02 -0.16879630883E+02  0.28901438979E+01  0.26577609840E+02  0.00000000000E+00 0.  1.
         14    1    6    6    0    0 -0.67893574898E+01 -0.14197533413E+03 -0.13195017191E+03  0.19394313276E+03  0.00000000000E+00 0. -1.
         -5    1    3    3    0  503 -0.19719935601E+02 -0.12805432518E+01  0.57298884584E+02  0.60792827091E+02  0.47000000000E+01 0.  1.
         11    1    4    4    0    0 -0.16440197427E+02  0.39986691592E+02  0.16041517898E+02  0.46114486795E+02  0.00000000000E+00 0. -1.
        -12    1    4    4    0    0  0.80755086640E+02  0.12295092903E+03  0.84787498167E+01  0.14734382975E+03  0.00000000000E+00 0.  1.
</event>
<event>
12    1  0.1066489E+000  0.2145943E+03  0.7818608E-02  0.1138236E+00
         21   -1    0    0  503  502  0.00000000000E+00  0.00000000000E+00  0.90054945962E+02  0.90054945962E+02  0.00000000000E+00 0.  1.
         21   -1    0    0  501  503 -0.00000000000E+00 -0.00000000000E+00 -0.62681004051E+03  0.62681004051E+03  0.00000000000E+00 0.  1.
          6    2    1    2  501    0  0.12460859555E+03  0.21723763281E+02 -0.11313233819E+03  0.24258945431E+03  0.17335366573E+03 0.  0.
         24    2    3    3    0    0  0.33314551305E+02 -0.33028953740E+02 -0.98006916569E+02  0.13496357027E+03  0.80056470635E+02 0.  0.
         -6    2    1    2    0  502 -0.12460859555E+03 -0.21723763281E+02 -0.42362275636E+03  0.47427553217E+03  0.17170269867E+03 0.  0.
        -24    2    5    5    0    0 -0.17643110311E+02 -0.57442636026E+02 -0.20162771185E+03  0.22523468674E+03  0.80411405605E+02 0.  0.
          5    1    3    3  501    0  0.91294044245E+02  0.54752717021E+02 -0.15125421621E+02  0.10762588404E+03  0.47000000000E+01 0. -1.
        -11    1    4    4    0    0 -0.17162245280E+02 -0.33354786075E+02 -0.21296638471E+02  0.43135034802E+02  0.00000000000E+00 0.  1.
         12    1    4    4    0    0  0.50476796585E+02  0.32583233506E+00 -0.76710278098E+02  0.91828535467E+02  0.00000000000E+00 0. -1.
         -5    1    5    5    0  502 -0.10696548524E+03  0.35718872745E+02 -0.22199504451E+03  0.24904084542E+03  0.47000000000E+01 0.  1.
         11    1    6    6    0    0 -0.27632000223E+02 -0.71989229013E+02 -0.18713756667E+03  0.20240169314E+03  0.00000000000E+00 0. -1.
        -12    1    6    6    0    0  0.99888899116E+01  0.14546592987E+02 -0.14490145183E+02  0.22832993597E+02  0.00000000000E+00 0.  1.
</event>
<event>
12    1  0.1066489E+000  0.2780717E+03  0.7818608E-02  0.1097252E+00
         21   -1    0    0  503  502  0.00000000000E+00  0.00000000000E+00  0.92250886484E+03  0.92250886484E+03  0.00000000000E+00 0.  1.
         21   -1    0    0  501  503 -0.00000000000E+00 -0.00000000000E+00 -0.92750463606E+02  0.92750463606E+02  0.00000000000E+00 0. -1.
          6    2    1    2  501    0  0.14993826103E+03 -0.15352020800E+03  0.24555137709E+03  0.36824950047E+03  0.17106220921E+03 0.  0.
         24    2    3    3    0    0  0.73014129674E+02 -0.10103214530E+03  0.57576176815E+02  0.15841841452E+03  0.79011520732E+02 0.  0.
         -6    2    1    2    0  502 -0.14993826103E+03  0.15352020800E+03  0.58420702415E+03  0.64700982798E+03  0.17684437807E+03 0.  0.
        -24    2    5    5    0    0 -0.77307635595E+02  0.11907343689E+03  0.51840488228E+03  0.54302040705E+03  0.77282511649E+02 0.  0.
          5    1    3    3  501    0  0.76924131354E+02 -0.52488062705E+02  0.18797520027E+03  0.20983108594E+03  0.47000000000E+01 0. -1.
        -11    1    4    4    0    0  0.89866054749E+02 -0.79300513806E+02  0.50245973684E+02  0.12995821312E+03  0.00000000000E+00 0.  1.
         12    1    4    4    0    0 -0.16851925075E+02 -0.21731631490E+02  0.73302031308E+01  0.28460201403E+02  0.00000000000E+00 0. -1.
         -5    1    5    5    0  502 -0.72630625433E+02  0.34446771108E+02  0.65802141865E+02  0.10398942093E+03  0.47000000000E+01 0.  1.
         11    1    6    6    0    0 -0.92045425977E+02  0.10981015028E+03  0.47829192123E+03  0.49929329203E+03  0.00000000000E+00 0. -1.
        -12    1    6    6    0    0  0.14737790382E+02  0.92632866079E+01  0.40112961052E+02  0.43727115025E+02  0.00000000000E+00 0.  1.
</event>
<event>
12    1  0.1066489E+000  0.1822977E+03  0.7818608E-02  0.1165823E+00
         21   -1    0    0  503  502  0.00000000000E+00  0.00000000000E+00  0.59388700431E+03  0.59388700431E+03  0.00000000000E+00 0.  1.
         21   -1    0    0  501  503 -0.00000000000E+00 -0.00000000000E+00 -0.56836577862E+02  0.56836577862E+02  0.00000000000E+00 0.  1.
          6    2    1    2  501    0  0.58418951420E+02 -0.10010505831E+02  0.22118958799E+03  0.28603119545E+03  0.17139436054E+03 0.  0.
         24    2    3    3    0    0  0.19231693658E+02 -0.46550575722E+01  0.23204719204E+03  0.24474803226E+03  0.75260695988E+02 0.  0.
         -6    2    1    2    0  502 -0.58418951420E+02  0.10010505831E+02  0.31586083846E+03  0.36469238672E+03  0.17239339764E+03 0.  0.
        -24    2    5    5    0    0 -0.40212907367E+02  0.72067394455E+02  0.16518179365E+03  0.20065342181E+03  0.78523776448E+02 0.  0.
          5    1    3    3  501    0  0.39187257761E+02 -0.53554482588E+01 -0.10857604052E+02  0.41283163186E+02  0.47000000000E+01 0. -1.
        -13    1    4    4    0    0 -0.18806830122E+02  0.15024211508E+02  0.15265269182E+03  0.15453888867E+03  0.00000000000E+00 0.  1.
         14    1    4    4    0    0  0.38038523780E+02 -0.19679269080E+02  0.79394500218E+02  0.90209143593E+02  0.00000000000E+00 0. -1.
         -5    1    5    5    0  502 -0.18206044052E+02 -0.62056888624E+02  0.15067904481E+03  0.16403896491E+03  0.47000000000E+01 0.  1.
         11    1    6    6    0    0 -0.49898866524E+02  0.41898078955E+02  0.15371899916E+03  0.16695770903E+03  0.00000000000E+00 0. -1.
        -12    1    6    6    0    0  0.96859591564E+01  0.30169315500E+02  0.11462794493E+02  0.33695712786E+02  0.00000000000E+00 0.  1.
</event>
<event>
12    1  0.1066489E+000  0.2441945E+03  0.7818608E-02  0.1117198E+00
         21   -1    0    0  501  502  0.00000000000E+00  0.00000000000E+00  0.69644593772E+03  0.69644593772E+03  0.00000000000E+00 0. -1.
         21   -1    0    0  502  503 -0.00000000000E+00 -0.00000000000E+00 -0.85423355304E+02  0.85423355304E+02  0.00000000000E+00 0. -1.
         -6    2    1    2    0  503  0.90277000959E+02  0.14889209194E+03  0.32192311576E+03  0.40343901785E+03  0.16973437107E+03 0.  0.
        -24    2    3    3    0    0  0.38693576287E+02  0.13871389813E+02  0.76112645996E+02  0.11824379218E+03  0.80615452654E+02 0.  0.
          6    2    1    2  501    0 -0.90277000959E+02 -0.14889209194E+03  0.28909946665E+03  0.37843027517E+03  0.17120800098E+03 0.  0.
         24    2    5    5    0    0  0.14322715753E+02 -0.36442074968E+02  0.12574299951E+03  0.15416807949E+03  0.80145678571E+02 0.  0.
          5    1    5    5  501    0 -0.10459971671E+03 -0.11245001697E+03  0.16335646714E+03  0.22426219568E+03  0.47000000000E+01 0. -1.
        -13    1    6    6    0    0  0.22483215700E+02 -0.59111608134E+02  0.75809150791E+02  0.98725399710E+02  0.00000000000E+00 0.  1.
         14    1    6    6    0    0 -0.81604999474E+01  0.22669533166E+02  0.49933848720E+02  0.55442679781E+02  0.00000000000E+00 0. -1.
         -5    1    3    3    0  503  0.51583424672E+02  0.13502070213E+03  0.24581046977E+03  0.28519522568E+03  0.47000000000E+01 0.  1.
         13    1    4    4    0    0  0.25218080674E+02  0.26170769363E+02  0.88848074501E+02  0.95993963896E+02  0.00000000000E+00 0. -1.
        -14    1    4    4    0    0  0.13475495612E+02 -0.12299379550E+02 -0.12735428505E+02  0.22249828280E+02  0.00000000000E+00 0.  1.
</event>
<event>
12    1  0.1066489E+000  0.2482288E+03  0.7818608E-02  0.1114582E+00
         21   -1    0    0  501  502  0.00000000000E+00  0.00000000000E+00  0.47447851992E+03  0.47447851992E+03  0.00000000000E+00 0. -1.
         21   -1    0    0  502  503 -0.00000000000E+00 -0.00000000000E+00 -0.22046305065E+03  0.22046305065E+03  0.00000000000E+00 0. -1.
         -6    2    1    2    0  503 -0.16563568772E+03  0.63211211910E+02  0.35022396747E+03  0.42872058758E+03  0.17237655429E+03 0.  0.
        -24    2    3    3    0    0 -0.37849677328E+02  0.90188908610E+01  0.22676613448E+03  0.24289809530E+03  0.77863126620E+02 0.  0.
          6    2    1    2  501    0  0.16563568772E+03 -0.63211211910E+02 -0.96208498203E+02  0.26622098299E+03  0.17374319642E+03 0.  0.
         24    2    5    5    0    0  0.14531369084E+03 -0.13660651221E+01 -0.21643525277E+02  0.16712592294E+03  0.79653606650E+02 0.  0.
          5    1    5    5  501    0  0.20321996872E+02 -0.61845146788E+02 -0.74564972926E+02  0.99095060046E+02  0.47000000000E+01 0. -1.
        -13    1    6    6    0    0  0.27939067662E+02  0.21077400786E+02 -0.31676588482E+02  0.47204391571E+02  0.00000000000E+00 0.  1.
         14    1    6    6    0    0  0.11737462318E+03 -0.22443465908E+02  0.10033063206E+02  0.11992153137E+03  0.00000000000E+00 0. -1.
         -5    1    3    3    0  503 -0.12778601039E+03  0.54192321049E+02  0.12345783299E+03  0.18582249228E+03  0.47000000000E+01 0.  1.
         11    1    4    4    0    0 -0.59649082319E+02  0.22250398462E+01  0.19389242370E+03  0.20287246189E+03  0.00000000000E+00 0. -1.
        -12    1    4    4    0    0  0.21799404991E+02  0.67938510147E+01  0.32873710775E+02  0.40025633408E+02  0.00000000000E+00 0.  1.
</event>
<event>
12    1  0.1066489E+000  0.1794397E+03  0.7818608E-02  0.1168416E+00
         21   -1    0    0  503  502  0.00000000000E+00  0.00000000000E+00  0.18619853033E+04  0.18619853033E+04  0.00000000000E+00 0. -1.
         21   -1    0    0  501  503 -0.00000000000E+00 -0.00000000000E+00 -0.18274301680E+02  0.18274301680E+02  0.00000000000E+00 0. -1.
          6    2    1    2  501    0  0.44964090077E+02 -0.19335175343E+01  0.70022887912E+03  0.72278392123E+03  0.17340878221E+03 0.  0.
         24    2    3    3    0    0 -0.35764690830E+02 -0.76023018819E+01  0.48069725413E+03  0.48876363246E+03  0.80517887373E+02 0.  0.
         -6    2    1    2    0  502 -0.44964090077E+02  0.19335175343E+01  0.11434821225E+04  0.11574756838E+04  0.17370401870E+03 0.  0.
        -24    2    5    5    0    0 -0.74635325577E+02 -0.26140285467E+02  0.44416105922E+03  0.45694691191E+03  0.72578835954E+02 0.  0.
          5    1    3    3  501    0  0.80728780907E+02  0.56687843476E+01  0.21953162499E+03  0.23402028877E+03  0.47000000000E+01 0. -1.
        -13    1    4    4    0    0 -0.25145453080E+02 -0.12992268642E+02  0.46731268934E+02  0.54634278171E+02  0.00000000000E+00 0.  1.
         14    1    4    4    0    0 -0.10619237750E+02  0.53899667599E+01  0.43396598519E+03  0.43412935429E+03  0.00000000000E+00 0. -1.
         -5    1    5    5    0  502  0.29671235499E+02  0.28073803001E+02  0.69932106333E+03  0.70052877189E+03  0.47000000000E+01 0.  1.
         13    1    6    6    0    0 -0.51764663816E+02 -0.40775406487E+02  0.18534377464E+03  0.19670924989E+03  0.00000000000E+00 0. -1.
        -14    1    6    6    0    0 -0.22870661761E+02  0.14635121021E+02  0.25881728458E+03  0.26023766202E+03  0.00000000000E+00 0.  1.
</event>
<event>
12    1  0.1066489E+000  0.2063190E+03  0.7818608E-02  0.1144939E+00
         21   -1    0    0  503  502  0.00000000000E+00  0.00000000000E+00  0.60297393326E+03  0.60297393326E+03  0.00000000000E+00 0.  1.
         21   -1    0    0  501  503 -0.00000000000E+00 -0.00000000000E+00 -0.69887910369E+02  0.69887910369E+02  0.00000000000E+00 0.  1.
          6    2    1    2  501    0  0.36383732024E+02  0.10491013072E+03  0.26281251517E+03  0.33283936960E+03  0.17141095747E+03 0.  0.
         24    2    3    3    0    0 -0.13323475068E+02  0.12624417679E+02  0.18575847800E+03  0.20265921016E+03  0.78915476321E+02 0.  0.
         -6    2    1    2    0  502 -0.36383732024E+02 -0.10491013072E+03  0.27027350773E+03  0.34002247404E+03  0.17388962703E+03 0.  0.
        -24    2    5    5    0    0  0.17582961906E+01 -0.71361089263E+02  0.26804678230E+03  0.28895975961E+03  0.80951643004E+02 0.  0.
          5    1    3    3  501    0  0.49707207092E+02  0.92285713037E+02  0.77054037164E+02  0.13018015944E+03  0.47000000000E+01 0. -1.
        -13    1    4    4    0    0 -0.45005289003E+02 -0.40714649002E+01  0.10133879207E+03  0.11095766600E+03  0.00000000000E+00 0.  1.
         14    1    4    4    0    0  0.31681813935E+02  0.16695882580E+02  0.84419685932E+02  0.91701544164E+02  0.00000000000E+00 0. -1.
         -5    1    5    5    0  502 -0.38142028214E+02 -0.33549041454E+02  0.22267254298E+01  0.51062714430E+02  0.47000000000E+01 0.  1.
         13    1    6    6    0    0 -0.12120737610E+02  0.60138113257E+00  0.14668121297E+03  0.14718237727E+03  0.00000000000E+00 0. -1.
        -14    1    6    6    0    0  0.13879033801E+02 -0.71962470395E+02  0.12136556932E+03  0.14177738234E+03  0.00000000000E+00 0.  1.
</event>
<event>
12    1  0.1066489E+000  0.2017097E+03  0.7818608E-02  0.1148319E+00
         21   -1    0    0  503  502  0.00000000000E+00  0.00000000000E+00  0.23099792133E+03  0.23099792133E+03  0.00000000000E+00 0.  1.
         21   -1    0    0  501  503 -0.00000000000E+00 -0.00000000000E+00 -0.18091937557E+03  0.18091937557E+03  0.00000000000E+00 0.  1.
          6    2    1    2  501    0  0.10008291307E+03 -0.29725681874E+02 -0.86652701256E+01  0.20182766585E+03  0.17250830167E+03 0.  0.
         24    2    3    3    0    0  0.55975454351E+02 -0.84029237514E+02 -0.20855656763E+02  0.13065857427E+03  0.80265436922E+02 0.  0.
         -6    2    1    2    0  502 -0.10008291307E+03  0.29725681874E+02  0.58743815888E+02  0.21008963105E+03  0.17258798196E+03 0.  0.
        -24    2    5    5    0    0  0.26727569834E+01  0.51550164885E+02  0.16020557848E+02  0.96588958958E+02  0.80051268505E+02 0.  0.
          5    1    3    3  501    0  0.44107458718E+02  0.54303555641E+02  0.12190386638E+02  0.71169091579E+02  0.47000000000E+01 0. -1.
        -13    1    4    4    0    0  0.70219320265E+02 -0.84618988183E+02 -0.29676934541E+02  0.11389401452E+03  0.00000000000E+00 0.  1.
         14    1    4    4    0    0 -0.14243865914E+02  0.58975066898E+00  0.88212777775E+01  0.16764559751E+02  0.00000000000E+00 0. -1.
         -5    1    5    5    0  502 -0.10275567005E+03 -0.21824483011E+02  0.42723258041E+02  0.11350067209E+03  0.47000000000E+01 0.  1.
         13    1    6    6    0    0  0.64751397945E+01 -0.73243103662E+01 -0.23584953600E+02  0.25530824390E+02  0.00000000000E+00 0. -1.
        -14    1    6    6    0    0 -0.38023828110E+01  0.58874475252E+02  0.39605511448E+02  0.71058134568E+02  0.00000000000E+00 0.  1.
</event>
<event>
12    1  0.1066489E+000  0.2480758E+03  0.7818608E-02  0.1114534E+00
         21   -1    0    0  501  502  0.00000000000E+00  0.00000000000E+00  0.28141160502E+03  0.28141160502E+03  0.00000000000E+00 0.  1.
         21   -1    0    0  502  503 -0.00000000000E+00 -0.00000000000E+00 -0.21865184890E+03  0.21865184890E+03  0.00000000000E+00 0.  1.
         -6    2    1    2    0  503 -0.16315633553E+03 -0.72478220240E+02  0.30261135155E+02  0.24991468006E+03  0.17224554792E+03 0.  0.
        -24    2    3    3    0    0 -0.18686044085E+03 -0.68049519135E+02  0.46273677445E+01  0.21440865192E+03  0.80013099415E+02 0.  0.
          6    2    1    2  501    0  0.16315633553E+03  0.72478220240E+02  0.32498620966E+02  0.25014877386E+03  0.17217771768E+03 0.  0.
         24    2    5    5    0    0  0.16720302379E+03  0.32261982967E+02 -0.13174819814E+02  0.18897790972E+03  0.80878846287E+02 0.  0.
          5    1    5    5  501    0 -0.40466882637E+01  0.40216237273E+02  0.45673440780E+02  0.61170864134E+02  0.47000000000E+01 0. -1.
        -11    1    6    6    0    0  0.38174956176E+02  0.32797497643E+02  0.22467847117E+02  0.55116306887E+02  0.00000000000E+00 0.  1.
         12    1    6    6    0    0  0.12902806761E+03 -0.53551467612E+00 -0.35642666931E+02  0.13386160284E+03  0.00000000000E+00 0. -1.
         -5    1    3    3    0  503  0.23704105322E+02 -0.44287011053E+01  0.25633767410E+02  0.35506028140E+02  0.47000000000E+01 0.  1.
         13    1    4    4    0    0 -0.94763710740E+02 -0.75344381639E+02 -0.71446429752E+01  0.12127647192E+03  0.00000000000E+00 0. -1.
        -14    1    4    4    0    0 -0.92096730109E+02  0.72948625048E+01  0.11772010720E+02  0.93132180003E+02  0.00000000000E+00 0.  1.
</event>
<event>
12    1  0.1066489E+000  0.2499330E+03  0.7818608E-02  0.1113821E+00
         21   -1    0    0  501  502  0.00000000000E+00  0.00000000000E+00  0.28017716828E+03  0.28017716828E+03  0.00000000000E+00 0.  1.
         21   -1    0    0  502  503 -0.00000000000E+00 -0.00000000000E+00 -0.30555606109E+03  0.30555606109E+03  0.00000000000E+00 0.  1.
         -6    2    1    2    0  503  0.32398603590E+02 -0.17451580622E+03  0.14206014175E+03  0.28489713250E+03  0.17169698918E+03 0.  0.
        -24    2    3    3    0    0 -0.18221291007E+02 -0.26744098109E+02  0.35358396383E+02  0.95671859573E+02  0.82798709470E+02 0.  0.
          6    2    1    2  501    0 -0.32398603590E+02  0.17451580622E+03 -0.16743903457E+03  0.30083609687E+03  0.17595763908E+03 0.  0.
         24    2    5    5    0    0 -0.93376569813E+01  0.91672570511E+02 -0.10850545612E+02  0.12212724473E+03  0.79412074293E+02 0.  0.
          5    1    5    5  501    0 -0.23060946608E+02  0.82843235711E+02 -0.15658848895E+03  0.17870885214E+03  0.47000000000E+01 0. -1.
        -13    1    6    6    0    0 -0.38463819702E+02  0.33767015598E+02 -0.23112887696E+02  0.56159436839E+02  0.00000000000E+00 0.  1.
         14    1    6    6    0    0  0.29126162721E+02  0.57905554913E+02  0.12262342084E+02  0.65967807891E+02  0.00000000000E+00 0. -1.
         -5    1    3    3    0  503  0.50619894596E+02 -0.14777170811E+03  0.10670174537E+03  0.18922527292E+03  0.47000000000E+01 0.  1.
         13    1    4    4    0    0  0.91479741196E+01 -0.44952219805E+02  0.41929590826E+02  0.62148838145E+02  0.00000000000E+00 0. -1.
        -14    1    4    4    0    0 -0.27369265126E+02  0.18208121697E+02 -0.65711944431E+01  0.33523021428E+02  0.00000000000E+00 0.  1.
</event>
<event>
12    1  0.1066489E+000  0.3253792E+03  0.7818608E-02  0.1073293E+00
         21   -1    0    0  503  502  0.00000000000E+00  0.00000000000E+00  0.17825676457E+04  0.17825676457E+04  0.00000000000E+00 0.  1.
         21   -1    0    0  501  503 -0.00000000000E+00 -0.00000000000E+00 -0.85434408535E+02  0.85434408535E+02  0.00000000000E+00 0.  1.
          6    2    1    2  501    0 -0.42072185231E+02 -0.27288982185E+03  0.33216012403E+03  0.46497521746E+03  0.17214145699E+03 0.  0.
         24    2    3    3    0    0 -0.24023150951E+02 -0.51186618286E+02  0.67166301018E+02  0.11896669973E+03  0.80278153802E+02 0.  0.
         -6    2    1    2    0  502  0.42072185231E+02  0.27288982185E+03  0.13649731132E+04  0.14030268368E+04  0.17056899340E+03 0.  0.
        -24    2    5    5    0    0  0.17533780397E+02  0.28464718572E+03  0.12737329588E+04  0.13076999011E+04  0.79698977536E+02 0.  0.
          5    1    3    3  501    0 -0.18049034280E+02 -0.22170320356E+03  0.26499382301E+03  0.34600851773E+03  0.47000000000E+01 0. -1.
        -13    1    4    4    0    0 -0.15250150894E+02  0.17946961603E+02  0.35066276984E+02  0.42241026439E+02  0.00000000000E+00 0.  1.
         14    1    4    4    0    0 -0.87730000573E+01 -0.69133579889E+02  0.32100024034E+02  0.76725673286E+02  0.00000000000E+00 0. -1.
         -5    1    5    5    0  502  0.24538404834E+02 -0.11757363874E+02  0.91240154325E+02  0.95326935744E+02  0.47000000000E+01 0.  1.
         13    1    6    6    0    0 -0.26010606597E+02  0.96932775437E+02  0.35133919014E+03  0.36539258495E+03  0.00000000000E+00 0. -1.
        -14    1    6    6    0    0  0.43544386994E+02  0.18771441028E+03  0.92239376870E+03  0.94230731612E+03  0.00000000000E+00 0.  1.
</event>
<event>
12    1  0.1066489E+000  0.2266596E+03  0.7818608E-02  0.1129215E+00
         21   -1    0    0  503  502  0.00000000000E+00  0.00000000000E+00  0.29680473764E+02  0.29680473764E+02  0.00000000000E+00 0.  1.
         21   -1    0    0  501  503 -0.00000000000E+00 -0.00000000000E+00 -0.18742654252E+04  0.18742654252E+04  0.00000000000E+00 0.  1.
          6    2    1    2  501    0  0.13677119301E+03  0.49857987572E+02 -0.65337654504E+03  0.69157463241E+03  0.17373078144E+03 0.  0.
         24    2    3    3    0    0  0.16561346040E+02 -0.14198762739E+02 -0.33715677286E+03  0.34723365476E+03  0.80128886600E+02 0.  0.
         -6    2    1    2    0  502 -0.13677119301E+03 -0.49857987572E+02 -0.11912084064E+04  0.12123712665E+04  0.17226271314E+03 0.  0.
        -24    2    5    5    0    0 -0.15556803697E+03 -0.48982854178E+02 -0.78322444742E+03  0.80392654816E+03  0.79098834839E+02 0.  0.
          5    1    3    3  501    0  0.12020984697E+03  0.64056750311E+02 -0.31621977218E+03  0.34434097765E+03  0.47000000000E+01 0. -1.
        -11    1    4    4    0    0  0.34361681674E+02  0.21052445070E+02 -0.12201152275E+03  0.12849413331E+03  0.00000000000E+00 0.  1.
         12    1    4    4    0    0 -0.17800335634E+02 -0.35251207810E+02 -0.21514525011E+03  0.21873952145E+03  0.00000000000E+00 0. -1.
         -5    1    5    5    0  502  0.18796843963E+02 -0.87513339334E+00 -0.40798395897E+03  0.40844471838E+03  0.47000000000E+01 0.  1.
         11    1    6    6    0    0 -0.65454429705E+02 -0.38659279154E+02 -0.20519046738E+03  0.21881944644E+03  0.00000000000E+00 0. -1.
        -12    1    6    6    0    0 -0.90113607268E+02 -0.10323575024E+02 -0.57803398003E+03  0.58510710172E+03  0.00000000000E+00 0.  1.
</event>
<event>
12    1  0.1066489E+000  0.2081225E+03  0.7818608E-02  0.1143106E+00
         21   -1    0    0  503  502  0.00000000000E+00  0.00000000000E+00  0.72527719065E+03  0.72527719065E+03  0.00000000000E+00 0. -1.
         21   -1    0    0  501  503 -0.00000000000E+00 -0.00000000000E+00 -0.95343141107E+02  0.95343141107E+02  0.00000000000E+00 0. -1.
          6    2    1    2  501    0  0.19467114762E+02 -0.11532311984E+03  0.64051566802E+02  0.21775578553E+03  0.17215280536E+03 0.  0.
         24    2    3    3    0    0 -0.56027441527E+02 -0.50253822521E+02  0.29063442702E+02  0.11202168360E+03  0.77715204514E+02 0.  0.
         -6    2    1    2    0  502 -0.19467114762E+02  0.11532311984E+03  0.56588248274E+03  0.60286454623E+03  0.17188451443E+03 0.  0.
        -24    2    5    5    0    0 -0.57283608465E+01  0.95365028009E+01  0.37764377487E+03  0.38644952170E+03  0.81269016960E+02 0.  0.
          5    1    3    3  501    0  0.75494556289E+02 -0.65069297316E+02  0.34988124100E+02  0.10573410193E+03  0.47000000000E+01 0. -1.
        -13    1    4    4    0    0  0.30111920343E+01 -0.46298477454E+02  0.25020303974E+02  0.52712729990E+02  0.00000000000E+00 0.  1.
         14    1    4    4    0    0 -0.59038633562E+02 -0.39553450668E+01  0.40431387277E+01  0.59308953609E+02  0.00000000000E+00 0. -1.
         -5    1    5    5    0  502 -0.13738753916E+02  0.10578661704E+03  0.18823870787E+03  0.21641502453E+03  0.47000000000E+01 0.  1.
         13    1    6    6    0    0 -0.15264384418E+02 -0.27023189952E+02  0.71003986331E+02  0.77490775591E+02  0.00000000000E+00 0. -1.
        -14    1    6    6    0    0  0.95360235713E+01  0.36559692753E+02  0.30663978854E+03  0.30895874611E+03  0.00000000000E+00 0.  1.
</event>
<event>
12    1  0.1066489E+000  0.2715317E+03  0.7818608E-02  0.1100631E+00
         21   -1    0    0  503  502  0.00000000000E+00  0.00000000000E+00  0.12035207430E+03  0.12035207430E+03  0.00000000000E+00 0. -1.
         21   -1    0    0  501  503 -0.00000000000E+00 -0.00000000000E+00 -0.63148409722E+03  0.63148409722E+03  0.00000000000E+00 0. -1.
          6    2    1    2  501    0 -0.42831138886E+02  0.20500643126E+03 -0.18545509407E+03  0.32882074461E+03  0.17282171985E+03 0.  0.
         24    2    3    3    0    0 -0.69170796952E+02  0.21705143871E+03 -0.17222847599E+03  0.29663544956E+03  0.80212317007E+02 0.  0.
         -6    2    1    2    0  502  0.42831138886E+02 -0.20500643126E+03 -0.32567692886E+03  0.42301542691E+03  0.17033627358E+03 0.  0.
        -24    2    5    5    0    0  0.62213299445E+02 -0.74249672493E+02 -0.93591607052E+02  0.15588496307E+03  0.78467982700E+02 0.  0.
          5    1    3    3  501    0  0.26339658066E+02 -0.12045007445E+02 -0.13226618077E+02  0.32185295045E+02  0.47000000000E+01 0. -1.
        -11    1    4    4    0    0  0.56557737142E+00  0.99563979997E+02 -0.42584989814E+02  0.10829029203E+03  0.00000000000E+00 0.  1.
         12    1    4    4    0    0 -0.69736374324E+02  0.11748745871E+03 -0.12964348618E+03  0.18834515753E+03  0.00000000000E+00 0. -1.
         -5    1    5    5    0  502 -0.19382160560E+02 -0.13075675877E+03 -0.23208532181E+03  0.26713046384E+03  0.47000000000E+01 0.  1.
         13    1    6    6    0    0  0.19415620495E+01 -0.37970534247E+02  0.96202619288E+00  0.38032310324E+02  0.00000000000E+00 0. -1.
        -14    1    6    6    0    0  0.60271737396E+02 -0.36279138247E+02 -0.94553633245E+02  0.11785265275E+03  0.00000000000E+00 0.  1.
</event>
<event>
12    1  0.1066489E+000  0.2452763E+03  0.7818608E-02  0.1116360E+00
         21   -1    0    0  503  502  0.00000000000E+00  0.00000000000E+00  0.11001586452E+03  0.11001586452E+03  0.00000000000E+00 0.  1.
         21   -1    0    0  501  503 -0.00000000000E+00 -0.00000000000E+00 -0.55205044903E+03  0.55205044903E+03  0.00000000000E+00 0.  1.
          6    2    1    2  501    0 -0.16117606810E+02  0.17425371015E+03 -0.25463599264E+03  0.35355334932E+03  0.17186142475E+03 0.  0.
         24    2    3    3    0    0  0.25121673813E+02  0.26299128991E+02 -0.12531292590E+03  0.15271066973E+03  0.79337737378E+02 0.  0.
         -6    2    1    2    0  502  0.16117606810E+02 -0.17425371015E+03 -0.18739859187E+03  0.30851296423E+03  0.17157471875E+03 0.  0.
        -24    2    5    5    0    0  0.46819239993E+02 -0.17569744197E+03 -0.11519905190E+03  0.22990292535E+03  0.80764479679E+02 0.  0.
          5    1    3    3  501    0 -0.41239280623E+02  0.14795458116E+03 -0.12932306674E+03  0.20084267958E+03  0.47000000000E+01 0. -1.
        -11    1    4    4    0    0 -0.28946917100E+02  0.11716334866E+02 -0.42456125304E+02  0.52704070888E+02  0.00000000000E+00 0.  1.
         12    1    4    4    0    0  0.54068590913E+02  0.14582794125E+02 -0.82856800596E+02  0.10000659885E+03  0.00000000000E+00 0. -1.
         -5    1    5    5    0  502 -0.30701633183E+02  0.14437318204E+01 -0.72199539965E+02  0.78610038881E+02  0.47000000000E+01 0.  1.
         13    1    6    6    0    0 -0.41322663507E+01 -0.10392436532E+03 -0.32083611630E+02  0.10884258114E+03  0.00000000000E+00 0. -1.
        -14    1    6    6    0    0  0.50951506343E+02 -0.71773076645E+02 -0.83115440273E+02  0.12106034422E+03  0.00000000000E+00 0.  1.
</event>
<event>
12    1  0.1066489E+000  0.1762775E+03  0.7818608E-02  0.1171807E+00
         21   -1    0    0  503  502  0.00000000000E+00  0.00000000000E+00  0.35080426702E+03  0.35080426702E+03  0.00000000000E+00 0.  1.
         21   -1    0    0  501  503 -0.00000000000E+00 -0.00000000000E+00 -0.88381648334E+02  0.88381648334E+02  0.00000000000E+00 0.  1.
          6    2    1    2  501    0  0.13570873112E+01  0.38492174484E+02  0.14839814063E+03  0.23042515434E+03  0.17201818052E+03 0.  0.
         24    2    3    3    0    0  0.62382323760E+02  0.31144532760E+02  0.12604147089E+03  0.16485093681E+03  0.80173828314E+02 0.  0.
         -6    2    1    2    0  502 -0.13570873112E+01 -0.38492174484E+02  0.11402447806E+03  0.20876076101E+03  0.17057545122E+03 0.  0.
        -24    2    5    5    0    0  0.79622117101E+01 -0.37151305157E+02 -0.58336874460E+01  0.88441531036E+02  0.79650839372E+02 0.  0.
          5    1    3    3  501    0 -0.61025236448E+02  0.73476417241E+01  0.22356669747E+02  0.65574217530E+02  0.47000000000E+01 0. -1.
        -11    1    4    4    0    0  0.10307474460E+01  0.28186978574E+02  0.88448743199E+02  0.92837214385E+02  0.00000000000E+00 0.  1.
         12    1    4    4    0    0  0.61351576314E+02  0.29575541860E+01  0.37592727688E+02  0.72013722428E+02  0.00000000000E+00 0. -1.
         -5    1    5    5    0  502 -0.93192990213E+01 -0.13408693272E+01  0.11985816550E+03  0.12031922998E+03  0.47000000000E+01 0.  1.
         13    1    6    6    0    0  0.37547486978E+02 -0.24166016848E+02  0.18153365762E+02  0.48201191242E+02  0.00000000000E+00 0. -1.
        -14    1    6    6    0    0 -0.29585275268E+02 -0.12985288309E+02 -0.23987053208E+02  0.40240339794E+02  0.00000000000E+00 0.  1.
</event>
<event>
12    1  0.1066489E+000  0.2536964E+03  0.7818608E-02  0.1111006E+00
         21   -1    0    0  501  502  0.00000000000E+00  0.00000000000E+00  0.18210942474E+04  0.18210942474E+04  0.00000000000E+00 0.  1.
         21   -1    0    0  502  503 -0.00000000000E+00 -0.00000000000E+00 -0.57562025712E+02  0.57562025712E+02  0.00000000000E+00 0.  1.
         -6    2    1    2    0  503 -0.12161021713E+03 -0.14122747389E+03  0.14656488813E+04  0.14874436177E+04  0.17212677927E+03 0.  0.
        -24    2    3    3    0    0 -0.11538587731E+03 -0.10197371664E+03  0.13986176551E+04  0.14093739363E+04  0.80566789200E+02 0.  0.
          6    2    1    2  501    0  0.12161021713E+03  0.14122747389E+03  0.29788334031E+03  0.39121265539E+03  0.17198433943E+03 0.  0.
         24    2    5    5    0    0  0.22662249026E+02  0.10112511575E+03  0.22990306089E+03  0.26455442269E+03  0.79960981669E+02 0.  0.
          5    1    5    5  501    0  0.98947968106E+02  0.40102358133E+02  0.67980279421E+02  0.12665823270E+03  0.47000000000E+01 0. -1.
        -13    1    6    6    0    0 -0.19472632490E+02 -0.11338907259E+01  0.45859203629E+02  0.49835084848E+02  0.00000000000E+00 0.  1.
         14    1    6    6    0    0  0.42134881517E+02  0.10225900648E+03  0.18404385726E+03  0.21471933784E+03  0.00000000000E+00 0. -1.
         -5    1    3    3    0  503 -0.62243398266E+01 -0.39253757247E+02  0.67031226197E+02  0.78069681374E+02  0.47000000000E+01 0.  1.
         13    1    4    4    0    0  0.34682764009E+01 -0.55693388621E+00  0.26677565385E+03  0.26679877924E+03  0.00000000000E+00 0. -1.
        -14    1    4    4    0    0 -0.11885415371E+03 -0.10141678275E+03  0.11318420013E+04  0.11425751571E+04  0.00000000000E+00 0.  1.
</event>
<event>
12    1  0.1066489E+000  0.1872147E+03  0.7818608E-02  0.1161043E+00
         21   -1    0    0  503  502  0.00000000000E+00  0.00000000000E+00  0.14967168396E+03  0.14967168396E+03  0.00000000000E+00 0. -1.
         21   -1    0    0  501  503 -0.00000000000E+00 -0.00000000000E+00 -0.40767575581E+03  0.40767575581E+03  0.00000000000E+00 0. -1.
          6    2    1    2  501    0  0.44804373665E+01  0.74445955017E+02  0.52886976226E+02  0.19454146593E+03  0.17171801063E+03 0.  0.
         24    2    3    3    0    0  0.55512014888E+01  0.92941845103E-02  0.81314395793E+02  0.11471558545E+03  0.80726814978E+02 0.  0.
         -6    2    1    2    0  502 -0.44804373665E+01 -0.74445955017E+02 -0.31089104808E+03  0.36280597384E+03  0.17150118466E+03 0.  0.
        -24    2    5    5    0    0  0.43641170371E+02 -0.44446889157E+02 -0.28135953953E+03  0.29869799399E+03  0.78595314252E+02 0.  0.
          5    1    3    3  501    0 -0.10707641223E+01  0.74436660832E+02 -0.28427419568E+02  0.79825880483E+02  0.47000000000E+01 0. -1.
        -13    1    4    4    0    0 -0.15332240970E+02 -0.24410082512E+02  0.17163085949E+01  0.28876901783E+02  0.00000000000E+00 0.  1.
         14    1    4    4    0    0  0.20883442459E+02  0.24419376697E+02  0.79598087199E+02  0.85838683662E+02  0.00000000000E+00 0. -1.
         -5    1    5    5    0  502 -0.48121607737E+02 -0.29999065859E+02 -0.29531508555E+02  0.64107979856E+02  0.47000000000E+01 0.  1.
         13    1    6    6    0    0  0.37800369609E+02  0.14589736917E+02 -0.12818814517E+03  0.13443931318E+03  0.00000000000E+00 0. -1.
        -14    1    6    6    0    0  0.58408007615E+01 -0.59036626074E+02 -0.15317139436E+03  0.16425868081E+03  0.00000000000E+00 0.  1.
</event>
<event>
12    1  0.1066489E+000  0.4642167E+03  0.7818608E-02  0.1023601E+00
         21   -1    0    0  503  502  0.00000000000E+00  0.00000000000E+00  0.46380762744E+03  0.46380762744E+03  0.00000000000E+00 0.  1.
         21   -1    0    0  501  503 -0.00000000000E+00 -0.00000000000E+00 -0.69420324108E+03  0.69420324108E+03  0.00000000000E+00 0.  1.
          6    2    1    2  501    0  0.30178555942E+03 -0.30793194028E+03  0.21817450776E+03  0.51247829461E+03  0.17069646421E+03 0.  0.
         24    2    3    3    0    0  0.11626959217E+03 -0.59551983318E+02  0.54421007932E+02  0.16184162250E+03  0.78523931942E+02 0.  0.
         -6    2    1    2    0  502 -0.30178555942E+03  0.30793194028E+03 -0.44857012139E+03  0.64553257390E+03  0.17204809341E+03 0.  0.
        -24    2    5    5    0    0 -0.20902358696E+03  0.16019827465E+03 -0.19750336738E+03  0.33977674900E+03  0.84180234766E+02 0.  0.
          5    1    3    3  501    0  0.18551596724E+03 -0.24837995696E+03  0.16375349982E+03  0.35063667211E+03  0.47000000000E+01 0. -1.
        -11    1    4    4    0    0  0.43999946464E+02 -0.57057449605E+02  0.53120515796E+02  0.89517244387E+02  0.00000000000E+00 0.  1.
         12    1    4    4    0    0  0.72269645711E+02 -0.24945337131E+01  0.13004921356E+01  0.72324378113E+02  0.00000000000E+00 0. -1.
         -5    1    5    5    0  502 -0.92761972459E+02  0.14773366563E+03 -0.25106675401E+03  0.30575582490E+03  0.47000000000E+01 0.  1.
         11    1    6    6    0    0 -0.11875698388E+03  0.39286786878E+02 -0.99749286658E+02  0.15998935287E+03  0.00000000000E+00 0. -1.
        -12    1    6    6    0    0 -0.90266603078E+02  0.12091148778E+03 -0.97754080726E+02  0.17978739613E+03  0.00000000000E+00 0.  1.
</event>
<event>
12    1  0.1066489E+000  0.1828643E+03  0.7818608E-02  0.1165070E+00
         21   -1    0    0  503  502  0.00000000000E+00  0.00000000000E+00  0.80938888667E+03  0.80938888667E+03  0.00000000000E+00 0. -1.
         21   -1    0    0  501  503 -0.00000000000E+00 -0.00000000000E+00 -0.44775819485E+02  0.44775819485E+02  0.00000000000E+00 0. -1.
          6    2    1    2  501    0 -0.18613441144E+02 -0.59009680918E+02  0.26335272196E+03  0.32059063353E+03  0.17203225137E+03 0.  0.
         24    2    3    3    0    0 -0.67438728622E+02  0.72651068869E+01  0.15178884686E+03  0.18186484493E+03  0.73717052939E+02 0.  0.
         -6    2    1    2    0  502  0.18613441144E+02  0.59009680918E+02  0.50126034523E+03  0.53357407263E+03  0.17207775756E+03 0.  0.
        -24    2    5    5    0    0  0.18052287612E+02  0.86805318738E+02  0.21436477229E+03  0.24529630354E+03  0.79730624508E+02 0.  0.
          5    1    3    3  501    0  0.48825287478E+02 -0.66274787805E+02  0.11156387510E+03  0.13872578860E+03  0.47000000000E+01 0. -1.
        -13    1    4    4    0    0 -0.16438438642E+02 -0.25882891145E+02  0.90342830524E+02  0.95404262725E+02  0.00000000000E+00 0.  1.
         14    1    4    4    0    0 -0.51000289979E+02  0.33147998032E+02  0.61446016333E+02  0.86460582202E+02  0.00000000000E+00 0. -1.
         -5    1    5    5    0  502  0.56115353183E+00 -0.27795637819E+02  0.28689557294E+03  0.28827776909E+03  0.47000000000E+01 0.  1.
         11    1    6    6    0    0 -0.99728447955E+01 -0.39824200293E+01 -0.86472464829E-01  0.10738937568E+02  0.00000000000E+00 0. -1.
        -12    1    6    6    0    0  0.28025132408E+02  0.90787738767E+02  0.21445124475E+03  0.23455736597E+03  0.00000000000E+00 0.  1.
</event>
<event>
12    1  0.1066489E+000  0.2116533E+03  0.7818608E-02  0.1140424E+00
         21   -1    0    0  503  502  0.00000000000E+00  0.00000000000E+00  0.27346991565E+03  0.27346991565E+03  0.00000000000E+00 0.  1.
         21   -1    0    0  501  503 -0.00000000000E+00 -0.00000000000E+00 -0.17022014388E+03  0.17022014388E+03  0.00000000000E+00 0.  1.
          6    2    1    2  501    0 -0.80256753210E+02  0.90858088011E+02  0.96655739935E+02  0.23193410099E+03  0.17249567110E+03 0.  0.
         24    2    3    3    0    0 -0.22747286595E+02 -0.15495467870E+02  0.11977542711E+02  0.84248947090E+02  0.78720232371E+02 0.  0.
         -6    2    1    2    0  502  0.80256753210E+02 -0.90858088011E+02  0.65940318377E+01  0.21175595853E+03  0.17349572365E+03 0.  0.
        -24    2    5    5    0    0  0.94068134198E+02 -0.56444490621E+02  0.58864626124E+02  0.14749590128E+03  0.79089836856E+02 0.  0.
          5    1    3    3  501    0 -0.57509466615E+02  0.10635355588E+03  0.84678197224E+02  0.14768515390E+03  0.47000000000E+01 0. -1.
        -13    1    4    4    0    0  0.81606624547E+00 -0.84945949518E+01  0.43469449926E+02  0.44299178146E+02  0.00000000000E+00 0.  1.
         14    1    4    4    0    0 -0.23563352841E+02 -0.70008729180E+01 -0.31491907215E+02  0.39949768945E+02  0.00000000000E+00 0. -1.
         -5    1    5    5    0  502 -0.13811380988E+02 -0.34413597389E+02 -0.52270594286E+02  0.64260057245E+02  0.47000000000E+01 0.  1.
         11    1    6    6    0    0  0.70426102780E+02 -0.31868860048E+02 -0.24458411297E+01  0.77339784926E+02  0.00000000000E+00 0. -1.
        -12    1    6    6    0    0  0.23642031418E+02 -0.24575630573E+02  0.61310467254E+02  0.70156116359E+02  0.00000000000E+00 0.  1.
</event>
<event>
12    1  0.1066489E+000  0.3601489E+03  0.7818608E-02  0.1059139E+00
         21   -1    0    0  503  502  0.00000000000E+00  0.00000000000E+00  0.12156630439E+04  0.12156630439E+04  0.00000000000E+00 0. -1.
         21   -1    0    0  501  503 -0.00000000000E+00 -0.00000000000E+00 -0.10880201592E+03  0.10880201592E+03  0.00000000000E+00 0.  1.
          6    2    1    2  501    0  0.91772020942E+02 -0.29559794622E+03  0.68372761716E+03  0.77278114333E+03  0.18413851141E+03 0.  0.
         24    2    3    3    0    0  0.45285279712E+02 -0.27818751560E+03  0.47551418400E+03  0.55868055027E+03  0.81062739074E+02 0.  0.
         -6    2    1    2    0  502 -0.91772020942E+02  0.29559794622E+03  0.42313341081E+03  0.55168391647E+03  0.17179351184E+03 0.  0.
        -24    2    5    5    0    0 -0.11512155152E+03  0.20372463753E+03  0.36525093719E+03  0.44051568278E+03  0.76740602672E+02 0.  0.
          5    1    3    3  501    0  0.46486741231E+02 -0.17410430627E+02  0.20821343315E+03  0.21410059306E+03  0.47000000000E+01 0. -1.
        -13    1    4    4    0    0  0.60077075900E+02 -0.18889201496E+03  0.27814334712E+03  0.34154526774E+03  0.00000000000E+00 0.  1.
         14    1    4    4    0    0 -0.14791796188E+02 -0.89295500632E+02  0.19737083689E+03  0.21713528253E+03  0.00000000000E+00 0. -1.
         -5    1    5    5    0  502  0.23349530581E+02  0.91873308697E+02  0.57882473623E+02  0.11116823369E+03  0.47000000000E+01 0.  1.
         13    1    6    6    0    0 -0.18597869039E+01  0.67972186805E+02  0.12397926644E+03  0.14140203497E+03  0.00000000000E+00 0. -1.
        -14    1    6    6    0    0 -0.11326176462E+03  0.13575245072E+03  0.24127167075E+03  0.29911364781E+03  0.00000000000E+00 0.  1.
</event>
<event>
12    1  0.1066489E+000  0.2935279E+03  0.7818608E-02  0.1088582E+00
         21   -1    0    0  503  502  0.00000000000E+00  0.00000000000E+00  0.22712930634E+03  0.22712930634E+03  0.00000000000E+00 0. -1.
         21   -1    0    0  501  503 -0.00000000000E+00 -0.00000000000E+00 -0.38523283542E+03  0.38523283542E+03  0.00000000000E+00 0. -1.
          6    2    1    2  501    0  0.18633204801E+03  0.14664312704E+03 -0.39317791015E+02  0.29614953043E+03  0.17301681091E+03 0.  0.
         24    2    3    3    0    0  0.71471771139E+02  0.13892775154E+02 -0.52925683783E+02  0.12001661506E+03  0.79382848375E+02 0.  0.
         -6    2    1    2    0  502 -0.18633204801E+03 -0.14664312704E+03 -0.11878573806E+03  0.31621261133E+03  0.17221069995E+03 0.  0.
        -24    2    5    5    0    0 -0.12918633562E+03 -0.98161808197E+02 -0.14722451768E+03  0.23591986628E+03  0.87511569537E+02 0.  0.
          5    1    3    3  501    0  0.11486027687E+03  0.13275035189E+03  0.13607892768E+02  0.17613291536E+03  0.47000000000E+01 0. -1.
        -13    1    4    4    0    0  0.67842753234E+00 -0.80702428645E+01 -0.44713561184E+02  0.45441078746E+02  0.00000000000E+00 0.  1.
         14    1    4    4    0    0  0.70793343607E+02  0.21963018018E+02 -0.82121225987E+01  0.74575536318E+02  0.00000000000E+00 0. -1.
         -5    1    5    5    0  502 -0.57145712391E+02 -0.48481318843E+02  0.28438779618E+02  0.80292745049E+02  0.47000000000E+01 0.  1.
         13    1    6    6    0    0 -0.89850036695E+02 -0.27485789172E+02 -0.11584833123E+03  0.14916210493E+03  0.00000000000E+00 0. -1.
        -14    1    6    6    0    0 -0.39336298925E+02 -0.70676019024E+02 -0.31376186451E+02  0.86757761350E+02  0.00000000000E+00 0.  1.
</event>
<event>
12    1  0.1066489E+000  0.2441856E+03  0.7818608E-02  0.1117213E+00
         21   -1    0    0  501  502  0.00000000000E+00  0.00000000000E+00  0.73119056349E+02  0.73119056349E+02  0.00000000000E+00 0. -1.
         21   -1    0    0  502  503 -0.00000000000E+00 -0.00000000000E+00 -0.13740855480E+04  0.13740855480E+04  0.00000000000E+00 0. -1.
         -6    2    1    2    0  503 -0.10087675258E+03 -0.14101566274E+03 -0.18847672390E+03  0.30846408038E+03  0.17194498272E+03 0.  0.
        -24    2    3    3    0    0 -0.41756832239E+02 -0.14542772682E+03 -0.18018974557E+03  0.24841913637E+03  0.79692321721E+02 0.  0.
          6    2    1    2  501    0  0.10087675258E+03  0.14101566274E+03 -0.11124897677E+04  0.11387405239E+04  0.17039648245E+03 0.  0.
         24    2    5    5    0    0  0.32633470024E+02  0.14753332193E+02 -0.26908475713E+03  0.28319775843E+03  0.80695474985E+02 0.  0.
          5    1    5    5  501    0  0.68243282557E+02  0.12626233055E+03 -0.84340501058E+03  0.85554276550E+03  0.47000000000E+01 0. -1.
        -11    1    6    6    0    0  0.44892530375E+02  0.80923678409E+01 -0.69542911365E+02  0.83168757486E+02  0.00000000000E+00 0.  1.
         12    1    6    6    0    0 -0.12259060351E+02  0.66609643523E+01 -0.19954184577E+03  0.20002900095E+03  0.00000000000E+00 0. -1.
         -5    1    3    3    0  503 -0.59119920342E+02  0.44120640736E+01 -0.82869783258E+01  0.60044944003E+02  0.47000000000E+01 0.  1.
         11    1    4    4    0    0 -0.39089444854E+02 -0.18978692311E+02 -0.34458080468E+02  0.55457504184E+02  0.00000000000E+00 0. -1.
        -12    1    4    4    0    0 -0.26673873850E+01 -0.12644903451E+03 -0.14573166511E+03  0.19296163219E+03  0.00000000000E+00 0.  1.
</event>
<event>
12    1  0.1066489E+000  0.1792396E+03  0.7818608E-02  0.1168655E+00
         21   -1    0    0  503  502  0.00000000000E+00  0.00000000000E+00  0.91456771756E+02  0.91456771756E+02  0.00000000000E+00 0. -1.
         21   -1    0    0  501  503 -0.00000000000E+00 -0.00000000000E+00 -0.35059494854E+03  0.35059494854E+03  0.00000000000E+00 0. -1.
          6    2    1    2  501    0  0.37606985631E+02  0.27942670933E+02 -0.12408340889E+03  0.21799891962E+03  0.17300797198E+03 0.  0.
         24    2    3    3    0    0  0.53736826381E+02 -0.38535850396E+02 -0.39455491321E+02  0.10907904084E+03  0.77258288105E+02 0.  0.
         -6    2    1    2    0  502 -0.37606985631E+02 -0.27942670933E+02 -0.13505476788E+03  0.22405280067E+03  0.17252474875E+03 0.  0.
        -24    2    5    5    0    0 -0.60889089026E+02  0.35306172281E+02 -0.10697966155E+03  0.15089014556E+03  0.79807149298E+02 0.  0.
          5    1    3    3  501    0 -0.16129840749E+02  0.66478521329E+02 -0.84627917574E+02  0.10891987878E+03  0.47000000000E+01 0. -1.
        -13    1    4    4    0    0 -0.14964025954E-01  0.18815993195E+02 -0.21272434371E+02  0.28399969858E+02  0.00000000000E+00 0.  1.
         14    1    4    4    0    0  0.53751790407E+02 -0.57351843591E+02 -0.18183056950E+02  0.80679070987E+02  0.00000000000E+00 0. -1.
         -5    1    5    5    0  502  0.23282103394E+02 -0.63248843214E+02 -0.28075106334E+02  0.73162655105E+02  0.47000000000E+01 0.  1.
         13    1    6    6    0    0 -0.30112271536E+02  0.45169314621E+02 -0.19585124818E+02  0.57711290009E+02  0.00000000000E+00 0. -1.
        -14    1    6    6    0    0 -0.30776817490E+02 -0.98631423396E+01 -0.87394536733E+02  0.93178855554E+02  0.00000000000E+00 0.  1.
</event>
<event>
12    1  0.1066489E+000  0.1950291E+03  0.7818608E-02  0.1154210E+00
         21   -1    0    0  501  502  0.00000000000E+00  0.00000000000E+00  0.31396626191E+03  0.31396626191E+03  0.00000000000E+00 0. -1.
         21   -1    0    0  502  503 -0.00000000000E+00 -0.00000000000E+00 -0.15531277469E+03  0.15531277469E+03  0.00000000000E+00 0. -1.
         -6    2    1    2    0  503 -0.24643284387E+02 -0.87714871353E+02  0.19047412445E+03  0.27261093780E+03  0.17243880422E+03 0.  0.
        -24    2    3    3    0    0 -0.38080903441E+02 -0.98050018934E+02  0.20732801476E+03  0.24824849744E+03  0.87054289729E+02 0.  0.
          6    2    1    2  501    0  0.24643284387E+02  0.87714871353E+02 -0.31820637232E+02  0.19666809881E+03  0.17136101661E+03 0.  0.
         24    2    5    5    0    0  0.24453572795E+02  0.98714010009E+02 -0.76249366608E+02  0.15065702367E+03  0.80877313740E+02 0.  0.
          5    1    5    5  501    0  0.18971159265E+00 -0.10999138656E+02  0.44428729376E+02  0.46011075141E+02  0.47000000000E+01 0. -1.
        -13    1    6    6    0    0 -0.24051940899E+02  0.29459763501E+02 -0.48574616447E+02  0.61691708434E+02  0.00000000000E+00 0.  1.
         14    1    6    6    0    0  0.48505513694E+02  0.69254246508E+02 -0.27674750160E+02  0.88965315233E+02  0.00000000000E+00 0. -1.
         -5    1    3    3    0  503  0.13437619054E+02  0.10335147581E+02 -0.16853890309E+02  0.24362440352E+02  0.47000000000E+01 0.  1.
         11    1    4    4    0    0  0.34188789954E+01 -0.34398626170E+02  0.87923238307E+01  0.35668742258E+02  0.00000000000E+00 0. -1.
        -12    1    4    4    0    0 -0.41499782437E+02 -0.63651392765E+02  0.19853569093E+03  0.21257975519E+03  0.00000000000E+00 0.  1.
</event>
<event>
12    1  0.1066489E+000  0.1785850E+03  0.7818608E-02  0.1173394E+00
         21   -1    0    0  503  502  0.00000000000E+00  0.00000000000E+00  0.21203100609E+03  0.21203100609E+03  0.00000000000E+00 0.  1.
         21   -1    0    0  501  503 -0.00000000000E+00 -0.00000000000E+00 -0.13714842130E+03  0.13714842130E+03  0.00000000000E+00 0.  1.
          6    2    1    2  501    0  0.21457223620E+02 -0.42530656022E+02  0.32421755579E+02  0.18150415740E+03  0.17211426371E+03 0.  0.
         24    2    3    3    0    0 -0.22375100185E+02 -0.83542516116E+02  0.19312287867E+02  0.11988278593E+03  0.80739833981E+02 0.  0.
         -6    2    1    2    0  502 -0.21457223620E+02  0.42530656022E+02  0.42460829209E+02  0.16767527000E+03  0.15505742486E+03 0.  0.
        -24    2    5    5    0    0 -0.58872661908E+02  0.25941817729E+02  0.57853870655E+02  0.12369640799E+03  0.88401146902E+02 0.  0.
          5    1    3    3  501    0  0.43832323805E+02  0.41011860093E+02  0.13109467712E+02  0.61621371473E+02  0.47000000000E+01 0. -1.
        -13    1    4    4    0    0  0.26851060557E+01 -0.87362599071E+02 -0.98339639110E+00  0.87409384962E+02  0.00000000000E+00 0.  1.
         14    1    4    4    0    0 -0.25060206241E+02  0.38200829548E+01  0.20295684258E+02  0.32473400964E+02  0.00000000000E+00 0. -1.
         -5    1    5    5    0  502  0.37415438288E+02  0.16588838293E+02 -0.15393041446E+02  0.43978862004E+02  0.47000000000E+01 0.  1.
         11    1    6    6    0    0 -0.13853858021E+02 -0.24781761526E+02  0.47148153160E+02  0.55036473659E+02  0.00000000000E+00 0. -1.
        -12    1    6    6    0    0 -0.45018803886E+02  0.50723579255E+02  0.10705717495E+02  0.68659934335E+02  0.00000000000E+00 0.  1.
</event>
<event>
12    1  0.1066489E+000  0.2378172E+03  0.7818608E-02  0.1121737E+00
         21   -1    0    0  503  502  0.00000000000E+00  0.00000000000E+00  0.16228525512E+03  0.16228525512E+03  0.00000000000E+00 0. -1.
         21   -1    0    0  501  503 -0.00000000000E+00 -0.00000000000E+00 -0.36551578091E+03  0.36551578091E+03  0.00000000000E+00 0. -1.
          6    2    1    2  501    0  0.60945969124E+02 -0.15248256842E+03 -0.16568939106E+03  0.28984476489E+03  0.17202229099E+03 0.  0.
         24    2    3    3    0    0  0.37934879520E+02 -0.17763126766E+02 -0.22395689353E+02  0.91768988592E+02  0.78520039538E+02 0.  0.
         -6    2    1    2    0  502 -0.60945969124E+02  0.15248256842E+03 -0.37541134731E+02  0.23795627114E+03  0.16807291678E+03 0.  0.
        -24    2    5    5    0    0 -0.33932710834E+02  0.72506941337E+02 -0.84416231456E+02  0.14128579093E+03  0.80167881226E+02 0.  0.
          5    1    3    3  501    0  0.23011089604E+02 -0.13471944165E+03 -0.14329370171E+03  0.19807577629E+03  0.47000000000E+01 0. -1.
        -13    1    4    4    0    0  0.45784069098E+02 -0.81834359040E+01 -0.45809572493E+02  0.65281440995E+02  0.00000000000E+00 0.  1.
         14    1    4    4    0    0 -0.78491895781E+01 -0.95796908624E+01  0.23413883140E+02  0.26487547598E+02  0.00000000000E+00 0. -1.
         -5    1    5    5    0  502 -0.27013258290E+02  0.79975627084E+02  0.46875096724E+02  0.96670480209E+02  0.47000000000E+01 0.  1.
         11    1    6    6    0    0  0.24890673668E+02  0.13662658869E+02 -0.11434576977E+02  0.30609858439E+02  0.00000000000E+00 0. -1.
        -12    1    6    6    0    0 -0.58823384502E+02  0.58844282468E+02 -0.72981654479E+02  0.11067593250E+03  0.00000000000E+00 0.  1.
</event>
<event>
12    1  0.1066489E+000  0.2106575E+03  0.7818608E-02  0.1141220E+00
         21   -1    0    0  503  502  0.00000000000E+00  0.00000000000E+00  0.74709219222E+03  0.74709219222E+03  0.00000000000E+00 0. -1.
         21   -1    0    0  501  503 -0.00000000000E+00 -0.00000000000E+00 -0.62149898918E+02  0.62149898918E+02  0.00000000000E+00 0. -1.
          6    2    1    2  501    0 -0.37815898227E+02 -0.11464780214E+03  0.43203470386E+03  0.48065639567E+03  0.17263378772E+03 0.  0.
         24    2    3    3    0    0  0.35858506245E+02 -0.69808902941E+02  0.32728066741E+03  0.34488473843E+03  0.75324180339E+02 0.  0.
         -6    2    1    2    0  502  0.37815898227E+02  0.11464780214E+03  0.25290758944E+03  0.32858569547E+03  0.17155800703E+03 0.  0.
        -24    2    5    5    0    0 -0.62714974309E+01  0.13736340971E+03  0.17765746874E+03  0.23833954348E+03  0.79596003533E+02 0.  0.
          5    1    3    3  501    0 -0.73674404472E+02 -0.44838899201E+02  0.10475403645E+03  0.13577165723E+03  0.47000000000E+01 0. -1.
        -13    1    4    4    0    0  0.86909854821E+01 -0.31771898567E+02  0.31987707693E+02  0.45915141410E+02  0.00000000000E+00 0.  1.
         14    1    4    4    0    0  0.27167520763E+02 -0.38037004374E+02  0.29529295972E+03  0.29896959702E+03  0.00000000000E+00 0. -1.
         -5    1    5    5    0  502  0.44087395658E+02 -0.22715607573E+02  0.75250120707E+02  0.90246151994E+02  0.47000000000E+01 0.  1.
         11    1    6    6    0    0  0.13855745079E+02  0.65259090745E+00  0.79324895435E+00  0.13893768045E+02  0.00000000000E+00 0. -1.
        -12    1    6    6    0    0 -0.20127242510E+02  0.13671081881E+03  0.17686421978E+03  0.22444577543E+03  0.00000000000E+00 0.  1.
</event>
<event>
12    1  0.1066489E+000  0.2956536E+03  0.7818608E-02  0.1087573E+00
         21   -1    0    0  503  502  0.00000000000E+00  0.00000000000E+00  0.69941807559E+02  0.69941807559E+02  0.00000000000E+00 0.  1.
         21   -1    0    0  501  503 -0.00000000000E+00 -0.00000000000E+00 -0.12731409162E+04  0.12731409162E+04  0.00000000000E+00 0.  1.
          6    2    1    2  501    0 -0.77129152727E+02 -0.22667428201E+03 -0.70227660968E+03  0.76197341995E+03  0.17343851903E+03 0.  0.
         24    2    3    3    0    0  0.26844920634E+02 -0.10349272908E+03 -0.33521205885E+03  0.36104602330E+03  0.80967350222E+02 0.  0.
         -6    2    1    2    0  502  0.77129152727E+02  0.22667428201E+03 -0.50092249901E+03  0.58110930386E+03  0.17156496347E+03 0.  0.
        -24    2    5    5    0    0 -0.10455968688E+02  0.12487581573E+03 -0.19053333248E+03  0.24288215248E+03  0.83579259218E+02 0.  0.
          5    1    3    3  501    0 -0.10397407336E+03 -0.12318155293E+03 -0.36706455083E+03  0.40092739665E+03  0.47000000000E+01 0. -1.
        -11    1    4    4    0    0  0.20849501130E+02 -0.10268686931E+03 -0.33836968727E+03  0.35422216206E+03  0.00000000000E+00 0.  1.
         12    1    4    4    0    0  0.59954195041E+01 -0.80585977302E+00  0.31576284208E+01  0.68238612419E+01  0.00000000000E+00 0. -1.
         -5    1    5    5    0  502  0.87585121415E+02  0.10179846628E+03 -0.31038916653E+03  0.33822715138E+03  0.47000000000E+01 0.  1.
         11    1    6    6    0    0 -0.39052568520E+02  0.26997569804E+02 -0.75225674058E+02  0.88954336155E+02  0.00000000000E+00 0. -1.
        -12    1    6    6    0    0  0.28596599832E+02  0.97878245923E+02 -0.11530765842E+03  0.15392781632E+03  0.00000000000E+00 0.  1.
</event>
<event>
12    1  0.1066489E+000  0.1736634E+03  0.7818608E-02  0.1174320E+00
         21   -1    0    0  501  502  0.00000000000E+00  0.00000000000E+00  0.72665248513E+02  0.72665248513E+02  0.00000000000E+00 0. -1.
         21   -1    0    0  502  503 -0.00000000000E+00 -0.00000000000E+00 -0.49741073701E+03  0.49741073701E+03  0.00000000000E+00 0. -1.
         -6    2    1    2    0  503  0.19918542876E+02 -0.32026323658E+01 -0.95288671292E+02  0.19808809903E+03  0.17248756156E+03 0.  0.
        -24    2    3    3    0    0 -0.54023986394E+02 -0.13373983908E+02 -0.67485362167E+02  0.11830045571E+03  0.79644643033E+02 0.  0.
          6    2    1    2  501    0 -0.19918542876E+02  0.32026323658E+01 -0.32945681720E+03  0.37198788649E+03  0.17154063103E+03 0.  0.
         24    2    5    5    0    0  0.11157085707E+02  0.15603832746E+02 -0.32667879601E+03  0.33808667908E+03  0.84944727013E+02 0.  0.
          5    1    5    5  501    0 -0.31075628582E+02 -0.12401200380E+02 -0.27780211897E+01  0.33901207418E+02  0.47000000000E+01 0. -1.
        -11    1    6    6    0    0  0.96246852853E+00  0.30673493463E+02 -0.31494589879E+03  0.31643752734E+03  0.00000000000E+00 0.  1.
         12    1    6    6    0    0  0.10194617178E+02 -0.15069660717E+02 -0.11732897223E+02  0.21649151733E+02  0.00000000000E+00 0. -1.
         -5    1    3    3    0  503  0.73942529269E+02  0.10171351543E+02 -0.27803309125E+02  0.79787643312E+02  0.47000000000E+01 0.  1.
         11    1    4    4    0    0 -0.17295307520E+02 -0.18286205326E+02 -0.76186826026E+02  0.80236808432E+02  0.00000000000E+00 0. -1.
        -12    1    4    4    0    0 -0.36728678874E+02  0.49122214177E+01  0.87014638594E+01  0.38063647282E+02  0.00000000000E+00 0.  1.
</event>
<event>
12    1  0.1066489E+000  0.1690566E+04  0.7818608E-02  0.8766796E-01
         21   -1    0    0  503  502  0.00000000000E+00  0.00000000000E+00  0.13106755832E+04  0.13106755832E+04  0.00000000000E+00 0. -1.
         21   -1    0    0  501  503 -0.00000000000E+00 -0.00000000000E+00 -0.22114041424E+04  0.22114041424E+04  0.00000000000E+00 0.  1.
          6    2    1    2  501    0 -0.14505632281E+04 -0.85073297239E+03 -0.65935880352E+03  0.18145985411E+04  0.17359022013E+03 0.  0.
         24    2    3    3    0    0 -0.30324084661E+03 -0.18092783330E+03 -0.12091619068E+03  0.38109579999E+03  0.76963573767E+02 0.  0.
         -6    2    1    2    0  502  0.14505632281E+04  0.85073297239E+03 -0.24136975565E+03  0.17074811845E+04  0.17132532660E+03 0.  0.
        -24    2    5    5    0    0  0.42122815243E+03  0.29725369649E+03 -0.79346228707E+02  0.52758978268E+03  0.79134305494E+02 0.  0.
          5    1    3    3  501    0 -0.11473223814E+04 -0.66980513908E+03 -0.53844261284E+03  0.14335027411E+04  0.47000000000E+01 0. -1.
        -13    1    4    4    0    0 -0.26360568473E+03 -0.14285831843E+03 -0.73969528710E+02  0.30881701271E+03  0.00000000000E+00 0.  1.
         14    1    4    4    0    0 -0.39635161882E+02 -0.38069514877E+02 -0.46946661967E+02  0.72278787276E+02  0.00000000000E+00 0. -1.
         -5    1    5    5    0  502  0.10293350756E+04  0.55347927590E+03 -0.16202352695E+03  0.11798914018E+04  0.47000000000E+01 0.  1.
         13    1    6    6    0    0  0.38068687221E+02  0.48738807268E+01 -0.15565815517E+02  0.41415869818E+02  0.00000000000E+00 0. -1.
        -14    1    6    6    0    0  0.38315946520E+03  0.29237981576E+03 -0.63780413190E+02  0.48617391286E+03  0.00000000000E+00 0.  1.
</event>
<event>
12    1  0.1066489E+000  0.1873313E+03  0.7818608E-02  0.1161325E+00
         21   -1    0    0  501  502  0.00000000000E+00  0.00000000000E+00  0.20213201910E+03  0.20213201910E+03  0.00000000000E+00 0.  1.
         21   -1    0    0  502  503 -0.00000000000E+00 -0.00000000000E+00 -0.33750617666E+03  0.33750617666E+03  0.00000000000E+00 0.  1.
         -6    2    1    2    0  503  0.29215938445E+02  0.68849420604E+02  0.12115546908E+03  0.22309561401E+03  0.17175328679E+03 0.  0.
        -24    2    3    3    0    0  0.51532509993E+01  0.70696414093E+02  0.15078004608E+03  0.18459717410E+03  0.79479276725E+02 0.  0.
          6    2    1    2  501    0 -0.29215938445E+02 -0.68849420604E+02 -0.25652962663E+03  0.31654258176E+03  0.16969956673E+03 0.  0.
         24    2    5    5    0    0 -0.74635090007E+02 -0.61650618754E+01 -0.16003028261E+03  0.19274257547E+03  0.77016909841E+02 0.  0.
          5    1    5    5  501    0  0.45419151562E+02 -0.62684358729E+02 -0.96499344026E+02  0.12380000628E+03  0.47000000000E+01 0. -1.
        -11    1    6    6    0    0 -0.38031091022E+02  0.29103835195E+02 -0.11598916804E+03  0.12548658976E+03  0.00000000000E+00 0.  1.
         12    1    6    6    0    0 -0.36603998984E+02 -0.35268897070E+02 -0.44041114571E+02  0.67255985717E+02  0.00000000000E+00 0. -1.
         -5    1    3    3    0  503  0.24062687446E+02 -0.18469934889E+01 -0.29624577006E+02  0.38498439901E+02  0.47000000000E+01 0.  1.
         11    1    4    4    0    0  0.34551725776E+02  0.66055376553E+02  0.89555134613E+02  0.11652148583E+03  0.00000000000E+00 0. -1.
        -12    1    4    4    0    0 -0.29398474777E+02  0.46410375398E+01  0.61224911472E+02  0.68075688270E+02  0.00000000000E+00 0.  1.
</event>
<event>
12    1  0.1066489E+000  0.1732585E+03  0.7818608E-02  0.1174560E+00
         21   -1    0    0  503  502  0.00000000000E+00  0.00000000000E+00  0.37487347067E+03  0.37487347067E+03  0.00000000000E+00 0.  1.
         21   -1    0    0  501  503 -0.00000000000E+00 -0.00000000000E+00 -0.84310247489E+02  0.84310247489E+02  0.00000000000E+00 0.  1.
          6    2    1    2  501    0  0.13310775734E+02  0.67876754687E+01  0.19736945699E+03  0.26245149072E+03  0.17234509897E+03 0.  0.
         24    2    3    3    0    0 -0.31817002887E+02 -0.32605611741E+02  0.17666746122E+03  0.19889828380E+03  0.79206614986E+02 0.  0.
         -6    2    1    2    0  502 -0.13310775734E+02 -0.67876754687E+01  0.93193766192E+02  0.19673222744E+03  0.17261298320E+03 0.  0.
        -24    2    5    5    0    0  0.40516934454E+01  0.52047381378E+02 -0.32053522707E+01  0.82373584170E+02  0.63637936467E+02 0.  0.
          5    1    3    3  501    0  0.45127778621E+02  0.39393287210E+02  0.20701995774E+02  0.63553206917E+02  0.47000000000E+01 0. -1.
        -13    1    4    4    0    0  0.10755986957E+02  0.19990760359E+01 -0.27496828967E+01  0.11280439550E+02  0.00000000000E+00 0.  1.
         14    1    4    4    0    0 -0.42572989844E+02 -0.34604687777E+02  0.17941714411E+03  0.18761784425E+03  0.00000000000E+00 0. -1.
         -5    1    5    5    0  502 -0.17362469179E+02 -0.58835056846E+02  0.96399118462E+02  0.11435864327E+03  0.47000000000E+01 0.  1.
         11    1    6    6    0    0 -0.29105529857E+02  0.15663277285E+02 -0.15131247324E+00  0.33052882160E+02  0.00000000000E+00 0. -1.
        -12    1    6    6    0    0  0.33157223303E+02  0.36384104093E+02 -0.30540397974E+01  0.49320702011E+02  0.00000000000E+00 0.  1.
</event>
<event>
12    1  0.1066489E+000  0.1867183E+03  0.7818608E-02  0.1161517E+00
         21   -1    0    0  501  502  0.00000000000E+00  0.00000000000E+00  0.15349426109E+03  0.15349426109E+03  0.00000000000E+00 0.  1.
         21   -1    0    0  502  503 -0.00000000000E+00 -0.00000000000E+00 -0.31005275238E+03  0.31005275238E+03  0.00000000000E+00 0.  1.
         -6    2    1    2    0  503 -0.44695321900E+02 -0.57700523519E+02  0.41856251103E+02  0.19109123757E+03  0.17157183074E+03 0.  0.
        -24    2    3    3    0    0 -0.17577719593E+02 -0.24203392462E+02  0.91630286384E+02  0.12508391424E+03  0.79718854652E+02 0.  0.
          6    2    1    2  501    0  0.44695321900E+02  0.57700523519E+02 -0.19841474239E+03  0.27245577591E+03  0.17186249624E+03 0.  0.
         24    2    5    5    0    0  0.92229158943E+02  0.64474633863E+02 -0.15397413701E+03  0.20686300465E+03  0.80131589604E+02 0.  0.
          5    1    5    5  501    0 -0.47533837043E+02 -0.67741103447E+01 -0.44440605383E+02  0.65592771262E+02  0.47000000000E+01 0. -1.
        -13    1    6    6    0    0  0.43086760531E+02 -0.61552192346E+01 -0.88899613825E+02  0.98982306475E+02  0.00000000000E+00 0.  1.
         14    1    6    6    0    0  0.49142398412E+02  0.70629853098E+02 -0.65074523186E+02  0.10788069817E+03  0.00000000000E+00 0. -1.
         -5    1    3    3    0  503 -0.27117602307E+02 -0.33497131057E+02 -0.49774035281E+02  0.66007323322E+02  0.47000000000E+01 0.  1.
         13    1    4    4    0    0  0.20384569037E+02 -0.22066798169E+02  0.49703009341E+01  0.30449599794E+02  0.00000000000E+00 0. -1.
        -14    1    4    4    0    0 -0.37962288630E+02 -0.21365942925E+01  0.86659985450E+02  0.94634314450E+02  0.00000000000E+00 0.  1.
</event>
<event>
12    1  0.1066489E+000  0.2313646E+03  0.7818608E-02  0.1126473E+00
         21   -1    0    0  503  502  0.00000000000E+00  0.00000000000E+00  0.12614749617E+03  0.12614749617E+03  0.00000000000E+00 0. -1.
         21   -1    0    0  501  503 -0.00000000000E+00 -0.00000000000E+00 -0.42000055779E+03  0.42000055779E+03  0.00000000000E+00 0. -1.
          6    2    1    2  501    0 -0.10076093303E+03 -0.11860620538E+03 -0.17156796271E+03  0.28445507677E+03  0.16510277796E+03 0.  0.
         24    2    3    3    0    0 -0.23032806524E+02 -0.81472567605E+02 -0.15951114795E+03  0.19734580351E+03  0.79581847140E+02 0.  0.
         -6    2    1    2    0  502  0.10076093303E+03  0.11860620538E+03 -0.12228509891E+03  0.26169297720E+03  0.17119979942E+03 0.  0.
        -24    2    5    5    0    0  0.13839646020E+03  0.89417355610E+02 -0.10620583228E+03  0.21120481353E+03  0.78605030164E+02 0.  0.
          5    1    3    3  501    0 -0.77728126510E+02 -0.37133637770E+02 -0.12056814761E+02  0.87109273255E+02  0.47000000000E+01 0. -1.
        -11    1    4    4    0    0 -0.29802700345E+02 -0.92578054220E+02 -0.15606782684E+03  0.18389144527E+03  0.00000000000E+00 0.  1.
         12    1    4    4    0    0  0.67698938211E+01  0.11105486615E+02 -0.34433211146E+01  0.13454358238E+02  0.00000000000E+00 0. -1.
         -5    1    5    5    0  502 -0.37635527167E+02  0.29188849765E+02 -0.16079266631E+02  0.50488163674E+02  0.47000000000E+01 0.  1.
         13    1    6    6    0    0  0.57004522587E+02  0.73219084462E+02 -0.84315730733E+02  0.12537819736E+03  0.00000000000E+00 0. -1.
        -14    1    6    6    0    0  0.81391937614E+02  0.16198271148E+02 -0.21890101544E+02  0.85826616165E+02  0.00000000000E+00 0.  1.
</event>
<event>
12    1  0.1066489E+000  0.1755799E+03  0.7818608E-02  0.1172434E+00
         21   -1    0    0  501  502  0.00000000000E+00  0.00000000000E+00  0.65619583131E+03  0.65619583131E+03  0.00000000000E+00 0.  1.
         21   -1    0    0  502  503 -0.00000000000E+00 -0.00000000000E+00 -0.54736093581E+02  0.54736093581E+02  0.00000000000E+00 0.  1.
         -6    2    1    2    0  503 -0.11869564167E+02 -0.31622453859E+02  0.43794313234E+03  0.47182888009E+03  0.17230043174E+03 0.  0.
        -24    2    3    3    0    0  0.43267550479E+02 -0.40392544138E+02  0.15913041336E+03  0.18744245608E+03  0.79426364249E+02 0.  0.
          6    2    1    2  501    0  0.11869564167E+02  0.31622453859E+02  0.16351660538E+03  0.23910304480E+03  0.17114823883E+03 0.  0.
         24    2    5    5    0    0  0.60307870636E+01  0.35239146223E+02  0.19030625321E+03  0.21105046894E+03  0.83950358002E+02 0.  0.
          5    1    5    5  501    0  0.58387771038E+01 -0.36166923638E+01 -0.26789647828E+02  0.28052575861E+02  0.47000000000E+01 0. -1.
        -11    1    6    6    0    0  0.25685929828E+02  0.31927030827E+02  0.18625679578E+03  0.19071102817E+03  0.00000000000E+00 0.  1.
         12    1    6    6    0    0 -0.19655142764E+02  0.33121153963E+01  0.40494574278E+01  0.20339440773E+02  0.00000000000E+00 0. -1.
         -5    1    3    3    0  503 -0.55137114647E+02  0.87700902784E+01  0.27881271898E+03  0.28438642401E+03  0.47000000000E+01 0.  1.
         11    1    4    4    0    0  0.48369610272E+02 -0.59920934640E+02  0.13917536824E+03  0.15905948803E+03  0.00000000000E+00 0. -1.
        -12    1    4    4    0    0 -0.51020597924E+01  0.19528390502E+02  0.19955045120E+02  0.28382968053E+02  0.00000000000E+00 0.  1.
</event>
<event>
12    1  0.1066489E+000  0.3278398E+03  0.7818608E-02  0.1072291E+00
         21   -1    0    0  501  502  0.00000000000E+00  0.00000000000E+00  0.14785249512E+04  0.14785249512E+04  0.00000000000E+00 0. -1.
         21   -1    0    0  502  503 -0.00000000000E+00 -0.00000000000E+00 -0.96217779358E+02  0.96217779358E+02  0.00000000000E+00 0.  1.
         -6    2    1    2    0  503  0.87594846784E+02  0.26522919398E+03  0.10822708042E+04  0.11303321923E+04  0.16828959776E+03 0.  0.
        -24    2    3    3    0    0  0.27267444345E+02  0.53451493860E+02  0.22163694597E+03  0.24196182035E+03  0.76302103326E+02 0.  0.
          6    2    1    2  501    0 -0.87594846784E+02 -0.26522919398E+03  0.30003636763E+03  0.44441053828E+03  0.17163776424E+03 0.  0.
         24    2    5    5    0    0 -0.11358747293E+03 -0.26667324073E+03  0.28335589651E+03  0.41313706707E+03  0.79843226200E+02 0.  0.
          5    1    5    5  501    0  0.25992626148E+02  0.14440467509E+01  0.16680471122E+02  0.31273471217E+02  0.47000000000E+01 0. -1.
        -11    1    6    6    0    0 -0.68806396754E+02 -0.89491156204E+02  0.72763582263E+02  0.13430385764E+03  0.00000000000E+00 0.  1.
         12    1    6    6    0    0 -0.44781076178E+02 -0.17718208453E+03  0.21059231424E+03  0.27883320943E+03  0.00000000000E+00 0. -1.
         -5    1    3    3    0  503  0.60327402439E+02  0.21177770012E+03  0.86063385826E+03  0.88837037194E+03  0.47000000000E+01 0.  1.
         11    1    4    4    0    0  0.19063161950E+02  0.35775517538E+02  0.21849415784E+03  0.22222283593E+03  0.00000000000E+00 0. -1.
        -12    1    4    4    0    0  0.82042823941E+01  0.17675976322E+02  0.31427881235E+01  0.19738984415E+02  0.00000000000E+00 0.  1.
</event>
<event>
12    1  0.1066489E+000  0.1998027E+03  0.7818608E-02  0.1154278E+00
         21   -1    0    0  501  502  0.00000000000E+00  0.00000000000E+00  0.32144107852E+02  0.32144107852E+02  0.00000000000E+00 0.  1.
         21   -1    0    0  502  503 -0.00000000000E+00 -0.00000000000E+00 -0.15688533262E+04  0.15688533262E+04  0.00000000000E+00 0.  1.
         -6    2    1    2    0  503  0.51835288171E+02 -0.21324981551E+02 -0.37044361393E+03  0.42089142667E+03  0.19177974346E+03 0.  0.
        -24    2    3    3    0    0  0.17935666264E+02  0.31823081425E+02 -0.33926897450E+03  0.35040845633E+03  0.79675922183E+02 0.  0.
          6    2    1    2  501    0 -0.51835288171E+02  0.21324981551E+02 -0.11662656045E+04  0.11801060074E+04  0.17126901845E+03 0.  0.
         24    2    5    5    0    0 -0.91323698480E+02 -0.68130694538E+01 -0.91979461980E+03  0.92886683703E+03  0.91569768485E+02 0.  0.
          5    1    5    5  501    0  0.39488410309E+02  0.28138051005E+02 -0.24647098466E+03  0.25123917040E+03  0.47000000000E+01 0. -1.
        -11    1    6    6    0    0 -0.29247284458E+02 -0.44430796483E+02 -0.28364759175E+03  0.28859219606E+03  0.00000000000E+00 0.  1.
         12    1    6    6    0    0 -0.62076414022E+02  0.37617727029E+02 -0.63614702806E+03  0.64027464097E+03  0.00000000000E+00 0. -1.
         -5    1    3    3    0  503  0.33899621907E+02 -0.53148062976E+02 -0.31174639430E+02  0.70482970335E+02  0.47000000000E+01 0.  1.
         13    1    4    4    0    0  0.35636942002E+02 -0.64523573051E+01 -0.23754345652E+03  0.24028840648E+03  0.00000000000E+00 0. -1.
        -14    1    4    4    0    0 -0.17701275738E+02  0.38275438730E+02 -0.10172551798E+03  0.11012004986E+03  0.00000000000E+00 0.  1.
</event>
<event>
12    1  0.1066489E+000  0.2905682E+03  0.7818608E-02  0.1090191E+00
         21   -1    0    0  501  502  0.00000000000E+00  0.00000000000E+00  0.55665763092E+03  0.55665763092E+03  0.00000000000E+00 0.  1.
         21   -1    0    0  502  503 -0.00000000000E+00 -0.00000000000E+00 -0.16129937937E+03  0.16129937937E+03  0.00000000000E+00 0.  1.
         -6    2    1    2    0  503  0.23262062729E+03  0.21042684045E+02  0.28752001053E+03  0.40802317111E+03  0.17105554920E+03 0.  0.
        -24    2    3    3    0    0  0.14766120548E+03  0.14290880552E+01  0.86448062453E+02  0.18880908669E+03  0.79810587138E+02 0.  0.
          6    2    1    2  501    0 -0.23262062729E+03 -0.21042684045E+02  0.10783824101E+03  0.30993383918E+03  0.17284313018E+03 0.  0.
         24    2    5    5    0    0 -0.56051997375E+02  0.50695310585E+01  0.86118716707E+02  0.13006678665E+03  0.79582718402E+02 0.  0.
          5    1    5    5  501    0 -0.17656862991E+03 -0.26112215103E+02  0.21719524305E+02  0.17986705252E+03  0.47000000000E+01 0. -1.
        -11    1    6    6    0    0 -0.39715289311E+02  0.25852455736E+02  0.91542496191E+02  0.10308095014E+03  0.00000000000E+00 0.  1.
         12    1    6    6    0    0 -0.16336708063E+02 -0.20782924677E+02 -0.54237794839E+01  0.26985836514E+02  0.00000000000E+00 0. -1.
         -5    1    3    3    0  503  0.84959421810E+02  0.19613595989E+02  0.20107194808E+03  0.21921408442E+03  0.47000000000E+01 0.  1.
         11    1    4    4    0    0  0.64145435988E+02  0.40060737127E+02  0.34303076418E+02  0.83043366195E+02  0.00000000000E+00 0. -1.
        -12    1    4    4    0    0  0.83515769490E+02 -0.38631649072E+02  0.52144986035E+02  0.10576572050E+03  0.00000000000E+00 0.  1.
</event>
<event>
12    1  0.1066489E+000  0.2182646E+03  0.7818608E-02  0.1135506E+00
         21   -1    0    0  501  502  0.00000000000E+00  0.00000000000E+00  0.12380957448E+03  0.12380957448E+03  0.00000000000E+00 0. -1.
         21   -1    0    0  502  503 -0.00000000000E+00 -0.00000000000E+00 -0.48499082304E+03  0.48499082304E+03  0.00000000000E+00 0. -1.
         -6    2    1    2    0  503 -0.56116225883E+02 -0.12121846624E+03 -0.40724356134E+02  0.22203132430E+03  0.17261659371E+03 0.  0.
        -24    2    3    3    0    0 -0.55152935238E+02 -0.12168968755E+03  0.25130583463E+02  0.15600017220E+03  0.76513274539E+02 0.  0.
          6    2    1    2  501    0  0.56116225883E+02  0.12121846624E+03 -0.32045689243E+03  0.38676907322E+03  0.17045453566E+03 0.  0.
         24    2    5    5    0    0  0.65941768051E+02  0.15167838128E+03 -0.28415162722E+03  0.33814284588E+03  0.79017648961E+02 0.  0.
          5    1    5    5  501    0 -0.98255421677E+01 -0.30459915038E+02 -0.36305265204E+02  0.48626227332E+02  0.47000000000E+01 0. -1.
        -13    1    6    6    0    0  0.67208265407E+02  0.10877305648E+03 -0.14900875786E+03  0.19634698539E+03  0.00000000000E+00 0.  1.
         14    1    6    6    0    0 -0.12664973559E+01  0.42905324801E+02 -0.13514286937E+03  0.14179586049E+03  0.00000000000E+00 0. -1.
         -5    1    3    3    0  503 -0.96329064555E+00  0.47122130672E+00 -0.65854939597E+02  0.66031152100E+02  0.47000000000E+01 0.  1.
         11    1    4    4    0    0  0.84736878288E+01 -0.21064065331E+02 -0.18413590866E+02  0.29232833634E+02  0.00000000000E+00 0. -1.
        -12    1    4    4    0    0 -0.63626623067E+02 -0.10062562222E+03  0.43544174329E+02  0.12676733857E+03  0.00000000000E+00 0.  1.
</event>
<event>
12    1  0.1066489E+000  0.1843630E+03  0.7818608E-02  0.1164447E+00
         21   -1    0    0  501  502  0.00000000000E+00  0.00000000000E+00  0.83677164684E+02  0.83677164684E+02  0.00000000000E+00 0.  1.
         21   -1    0    0  502  503 -0.00000000000E+00 -0.00000000000E+00 -0.94505671216E+03  0.94505671216E+03  0.00000000000E+00 0.  1.
         -6    2    1    2    0  503 -0.55293912541E+01  0.56141941706E+02 -0.41314159366E+02  0.18893539655E+03  0.17551989209E+03 0.  0.
        -24    2    3    3    0    0 -0.47887930955E+02  0.78894847558E+01  0.24475764424E+02  0.96886770490E+02  0.80202776454E+02 0.  0.
          6    2    1    2  501    0  0.55293912541E+01 -0.56141941706E+02 -0.82006538811E+03  0.83979848030E+03  0.17196440022E+03 0.  0.
         24    2    5    5    0    0 -0.20625390231E+02  0.27961827952E+02 -0.51542250639E+03  0.52264411402E+03  0.79304724201E+02 0.  0.
          5    1    5    5  501    0  0.26154781485E+02 -0.84103769659E+02 -0.30464288172E+03  0.31715436628E+03  0.47000000000E+01 0. -1.
        -11    1    6    6    0    0  0.22998132208E+01  0.23236123569E+01  0.21611354867E+01  0.39190332771E+01  0.00000000000E+00 0.  1.
         12    1    6    6    0    0 -0.22925203452E+02  0.25638215596E+02 -0.51758364188E+03  0.51872508074E+03  0.00000000000E+00 0. -1.
         -5    1    3    3    0  503  0.42358539701E+02  0.48252456951E+02 -0.65789923790E+02  0.92048626060E+02  0.47000000000E+01 0.  1.
         13    1    4    4    0    0  0.14407294559E+02 -0.15546896512E+02 -0.82168857709E+01  0.22733089087E+02  0.00000000000E+00 0. -1.
        -14    1    4    4    0    0 -0.62295225514E+02  0.23436381268E+02  0.32692650195E+02  0.74153681402E+02  0.00000000000E+00 0.  1.
</event>
<event>
12    1  0.1066489E+000  0.1863200E+03  0.7818608E-02  0.1162512E+00
         21   -1    0    0  501  502  0.00000000000E+00  0.00000000000E+00  0.31670305611E+03  0.31670305611E+03  0.00000000000E+00 0.  1.
         21   -1    0    0  502  503 -0.00000000000E+00 -0.00000000000E+00 -0.11076256869E+03  0.11076256869E+03  0.00000000000E+00 0.  1.
         -6    2    1    2    0  503 -0.69305120454E+02  0.19521805796E+02  0.67715385318E+02  0.19547137794E+03  0.16863981014E+03 0.  0.
        -24    2    3    3    0    0 -0.98948850944E+02  0.23644311666E+02  0.10358269719E+02  0.13060478776E+03  0.81242773571E+02 0.  0.
          6    2    1    2  501    0  0.69305120454E+02 -0.19521805796E+02  0.13822510211E+03  0.23199424686E+03  0.17184542792E+03 0.  0.
         24    2    5    5    0    0 -0.78021821625E+01 -0.55378100229E+02  0.97120979742E+02  0.13742760981E+03  0.79537759584E+02 0.  0.
          5    1    5    5  501    0  0.77107302616E+02  0.35856294433E+02  0.41104122365E+02  0.94566637049E+02  0.47000000000E+01 0. -1.
        -11    1    6    6    0    0  0.11450084697E+02 -0.53334350376E+02  0.10354005476E+03  0.11703076650E+03  0.00000000000E+00 0.  1.
         12    1    6    6    0    0 -0.19252266860E+02 -0.20437498532E+01 -0.64190750132E+01  0.20396843303E+02  0.00000000000E+00 0. -1.
         -5    1    3    3    0  503  0.29643730490E+02 -0.41225058699E+01  0.57357115599E+02  0.64866590182E+02  0.47000000000E+01 0.  1.
         11    1    4    4    0    0 -0.43489454267E+02  0.51874745089E+02  0.95917911118E+01  0.68369030030E+02  0.00000000000E+00 0. -1.
        -12    1    4    4    0    0 -0.55459396677E+02 -0.28230433423E+02  0.76647860719E+00  0.62235757732E+02  0.00000000000E+00 0.  1.
</event>
<event>
12    1  0.1066489E+000  0.2736070E+03  0.7818608E-02  0.1099414E+00
         21   -1    0    0  501  502  0.00000000000E+00  0.00000000000E+00  0.54803668131E+03  0.54803668131E+03  0.00000000000E+00 0. -1.
         21   -1    0    0  502  503 -0.00000000000E+00 -0.00000000000E+00 -0.25042318761E+03  0.25042318761E+03  0.00000000000E+00 0. -1.
         -6    2    1    2    0  503 -0.16086002857E+03 -0.13908377584E+03  0.41852887569E+03  0.49932557660E+03  0.17011574342E+03 0.  0.
        -24    2    3    3    0    0 -0.36484652008E+02 -0.10830832366E+03  0.17779661531E+03  0.22657940533E+03  0.81638028499E+02 0.  0.
          6    2    1    2  501    0  0.16086002857E+03  0.13908377584E+03 -0.12091538198E+03  0.29913429232E+03  0.17216431032E+03 0.  0.
         24    2    5    5    0    0  0.85217230160E+02  0.66864515914E+01 -0.78450383939E+02  0.14077946771E+03  0.79735254665E+02 0.  0.
          5    1    5    5  501    0  0.75642798412E+02  0.13239732425E+03 -0.42464998043E+02  0.15835482462E+03  0.47000000000E+01 0. -1.
        -11    1    6    6    0    0  0.49966018704E+01 -0.89300559676E+01 -0.54732583604E+02  0.55680945015E+02  0.00000000000E+00 0.  1.
         12    1    6    6    0    0  0.80220628290E+02  0.15616507559E+02 -0.23717800336E+02  0.85098522692E+02  0.00000000000E+00 0. -1.
         -5    1    3    3    0  503 -0.12437537656E+03 -0.30775452185E+02  0.24073226038E+03  0.27274617127E+03  0.47000000000E+01 0.  1.
         11    1    4    4    0    0 -0.40599405243E+02 -0.50896573840E+02  0.37969617251E+02  0.75368858084E+02  0.00000000000E+00 0. -1.
        -12    1    4    4    0    0  0.41147532355E+01 -0.57411749819E+02  0.13982699806E+03  0.15121054725E+03  0.00000000000E+00 0.  1.
</event>
<event>
12    1  0.1066489E+000  0.2842916E+03  0.7818608E-02  0.1093669E+00
         21   -1    0    0  503  502  0.00000000000E+00  0.00000000000E+00  0.81662920826E+03  0.81662920826E+03  0.00000000000E+00 0.  1.
         21   -1    0    0  501  503 -0.00000000000E+00 -0.00000000000E+00 -0.12149547022E+03  0.12149547022E+03  0.00000000000E+00 0. -1.
          6    2    1    2  501    0 -0.22252727649E+03 -0.21551136792E+02  0.55410459597E+03  0.62277895340E+03  0.17561002603E+03 0.  0.
         24    2    3    3    0    0 -0.18236916549E+03  0.38468997024E+01  0.53390660858E+03  0.57093512221E+03  0.87391852795E+02 0.  0.
         -6    2    1    2    0  502  0.22252727649E+03  0.21551136792E+02  0.14102914206E+03  0.31534572508E+03  0.17196181884E+03 0.  0.
        -24    2    5    5    0    0  0.49205388561E+02 -0.33142982274E+02  0.69664402713E+02  0.12003330991E+03  0.77686800335E+02 0.  0.
          5    1    3    3  501    0 -0.40158111007E+02 -0.25398036494E+02  0.20197987392E+02  0.51843831186E+02  0.47000000000E+01 0. -1.
        -13    1    4    4    0    0 -0.15128319172E+03  0.21751996049E+02  0.32717302720E+03  0.36111209223E+03  0.00000000000E+00 0.  1.
         14    1    4    4    0    0 -0.31085973763E+02 -0.17905096347E+02  0.20673358138E+03  0.20982302998E+03  0.00000000000E+00 0. -1.
         -5    1    5    5    0  502  0.17332188793E+03  0.54694119066E+02  0.71364739351E+02  0.19531241517E+03  0.47000000000E+01 0.  1.
         13    1    6    6    0    0 -0.34252086884E+01 -0.97090107857E+01 -0.14655864028E+02  0.17910647543E+02  0.00000000000E+00 0. -1.
        -14    1    6    6    0    0  0.52630597249E+02 -0.23433971488E+02  0.84320266741E+02  0.10212266237E+03  0.00000000000E+00 0.  1.
</event>
<event>
12    1  0.1066489E+000  0.3603949E+03  0.7818608E-02  0.1058433E+00
         21   -1    0    0  501  502  0.00000000000E+00  0.00000000000E+00  0.84162147445E+03  0.84162147445E+03  0.00000000000E+00 0.  1.
         21   -1    0    0  502  503 -0.00000000000E+00 -0.00000000000E+00 -0.22070132375E+03  0.22070132375E+03  0.00000000000E+00 0.  1.
         -6    2    1    2    0  503 -0.28374430374E+03 -0.14109756327E+03  0.19104569219E+02  0.36084830974E+03  0.17154348082E+03 0.  0.
        -24    2    3    3    0    0 -0.24317085694E+03 -0.59303768760E+02 -0.19035662277E+02  0.26178672958E+03  0.74302979020E+02 0.  0.
          6    2    1    2  501    0  0.28374430374E+03  0.14109756327E+03  0.60181558147E+03  0.70147448846E+03  0.17165404624E+03 0.  0.
         24    2    5    5    0    0  0.20572675062E+03  0.15398528651E+03  0.53075348342E+03  0.59505670900E+03  0.79738713194E+02 0.  0.
          5    1    5    5  501    0  0.78017553122E+02 -0.12887723244E+02  0.71062098057E+02  0.10641777946E+03  0.47000000000E+01 0. -1.
        -13    1    6    6    0    0  0.31332725844E+02  0.28141039519E+02  0.16933497483E+03  0.17449352857E+03  0.00000000000E+00 0.  1.
         14    1    6    6    0    0  0.17439402477E+03  0.12584424699E+03  0.36141850859E+03  0.42056318043E+03  0.00000000000E+00 0. -1.
         -5    1    3    3    0  503 -0.40573446797E+02 -0.81793794507E+02  0.38140231495E+02  0.99061580158E+02  0.47000000000E+01 0.  1.
         13    1    4    4    0    0 -0.13717797297E+03 -0.70932550713E+02 -0.13303059121E+02  0.15500385286E+03  0.00000000000E+00 0. -1.
        -14    1    4    4    0    0 -0.10599288397E+03  0.11628781953E+02 -0.57326031556E+01  0.10678287672E+03  0.00000000000E+00 0.  1.
</event>
<event>
12    1  0.1066489E+000  0.2848571E+03  0.7818608E-02  0.1093107E+00
         21   -1    0    0  501  502  0.00000000000E+00  0.00000000000E+00  0.30502703832E+02  0.30502703832E+02  0.00000000000E+00 0.  1.
         21   -1    0    0  502  503 -0.00000000000E+00 -0.00000000000E+00 -0.28089126920E+04  0.28089126920E+04  0.00000000000E+00 0.  1.
         -6    2    1    2    0  503 -0.14087267121E+03 -0.17727727277E+03 -0.10585980722E+04  0.10961722706E+04  0.17231200584E+03 0.  0.
        -24    2    3    3    0    0 -0.15902363426E+03 -0.10704975046E+03 -0.68668524076E+03  0.71722292495E+03  0.78255599628E+02 0.  0.
          6    2    1    2  501    0  0.14087267121E+03  0.17727727277E+03 -0.17198119160E+04  0.17432431253E+04  0.17283294407E+03 0.  0.
         24    2    5    5    0    0  0.13452477766E+02  0.54117347153E+02 -0.84121490631E+03  0.84694012497E+03  0.80965426294E+02 0.  0.
          5    1    5    5  501    0  0.12742019344E+03  0.12315992562E+03 -0.87859700968E+03  0.89630300032E+03  0.47000000000E+01 0. -1.
        -11    1    6    6    0    0  0.27893245047E+02  0.18850296209E+02 -0.11763897068E+03  0.12236132644E+03  0.00000000000E+00 0.  1.
         12    1    6    6    0    0 -0.14440767281E+02  0.35267050944E+02 -0.72357593564E+03  0.72457879853E+03  0.00000000000E+00 0. -1.
         -5    1    3    3    0  503  0.18150963054E+02 -0.70227522311E+02 -0.37191283146E+03  0.37894934563E+03  0.47000000000E+01 0.  1.
         13    1    4    4    0    0 -0.15729054987E+03 -0.10655072942E+03 -0.68875560879E+03  0.71447719604E+03  0.00000000000E+00 0. -1.
        -14    1    4    4    0    0 -0.17330843848E+01 -0.49902104112E+00  0.20703680305E+01  0.27457289134E+01  0.00000000000E+00 0.  1.
</event>
<event>
12    1  0.1066489E+000  0.2489162E+03  0.7818608E-02  0.1114363E+00
         21   -1    0    0  503  502  0.00000000000E+00  0.00000000000E+00  0.52965833261E+03  0.52965833261E+03  0.00000000000E+00 0.  1.
         21   -1    0    0  501  503 -0.00000000000E+00 -0.00000000000E+00 -0.12278719733E+03  0.12278719733E+03  0.00000000000E+00 0.  1.
          6    2    1    2  501    0 -0.16566416463E+03 -0.54932738448E+02  0.27984925124E+03  0.37299274703E+03  0.17420035798E+03 0.  0.
         24    2    3    3    0    0 -0.14450243895E+03  0.19268255063E+02  0.21411798588E+03  0.27152208468E+03  0.81397236288E+02 0.  0.
         -6    2    1    2    0  502  0.16566416463E+03  0.54932738448E+02  0.12702188404E+03  0.27945278291E+03  0.17747416054E+03 0.  0.
        -24    2    5    5    0    0  0.12917872853E+03  0.93753365608E+02  0.13789105899E+03  0.22487754032E+03  0.77968753503E+02 0.  0.
          5    1    3    3  501    0 -0.21161725672E+02 -0.74200993510E+02  0.65731265363E+02  0.10147066235E+03  0.47000000000E+01 0. -1.
        -11    1    4    4    0    0 -0.20559960523E+02  0.24714490650E+02  0.91941639779E+02  0.97400118840E+02  0.00000000000E+00 0.  1.
         12    1    4    4    0    0 -0.12394247843E+03 -0.54462355880E+01  0.12217634610E+03  0.17412196584E+03  0.00000000000E+00 0. -1.
         -5    1    5    5    0  502  0.36485436097E+02 -0.38820627160E+02 -0.10869174949E+02  0.54575242596E+02  0.47000000000E+01 0.  1.
         13    1    6    6    0    0  0.66967042985E+02  0.38403703467E+01  0.39849906773E+02  0.78021460896E+02  0.00000000000E+00 0. -1.
        -14    1    6    6    0    0  0.62211685543E+02  0.89912995261E+02  0.98041152214E+02  0.14685607942E+03  0.00000000000E+00 0.  1.
</event>
<event>
12    1  0.1066489E+000  0.1978599E+03  0.7818608E-02  0.1151614E+00
         21   -1    0    0  503  502  0.00000000000E+00  0.00000000000E+00  0.80465847019E+03  0.80465847019E+03  0.00000000000E+00 0.  1.
         21   -1    0    0  501  503 -0.00000000000E+00 -0.00000000000E+00 -0.48883888902E+02  0.48883888902E+02  0.00000000000E+00 0.  1.
          6    2    1    2  501    0 -0.48053904826E+02  0.84671442305E+02  0.34488629002E+03  0.39761174700E+03  0.17225015935E+03 0.  0.
         24    2    3    3    0    0 -0.28096895460E+01 -0.15680520474E+02  0.19501654577E+03  0.21159942028E+03  0.80554878569E+02 0.  0.
         -6    2    1    2    0  502  0.48053904826E+02 -0.84671442305E+02  0.41088829127E+03  0.45593061209E+03  0.17194506166E+03 0.  0.
        -24    2    5    5    0    0  0.62105349756E+02  0.15352484985E+01  0.29265092208E+03  0.30885511408E+03  0.76729967029E+02 0.  0.
          5    1    3    3  501    0 -0.45244215280E+02  0.10035196278E+03  0.14986974425E+03  0.18601232672E+03  0.47000000000E+01 0. -1.
        -11    1    4    4    0    0 -0.83320098098E+01 -0.46424010098E+02  0.84709741786E+02  0.96955409620E+02  0.00000000000E+00 0.  1.
         12    1    4    4    0    0  0.55223202637E+01  0.30743489623E+02  0.11030680398E+03  0.11464401066E+03  0.00000000000E+00 0. -1.
         -5    1    5    5    0  502 -0.14051444930E+02 -0.86206690803E+02  0.11823736918E+03  0.14707549801E+03  0.47000000000E+01 0.  1.
         11    1    6    6    0    0 -0.12658374982E+02  0.18035942742E+02  0.59039581642E+02  0.63017472881E+02  0.00000000000E+00 0. -1.
        -12    1    6    6    0    0  0.74763724738E+02 -0.16500694244E+02  0.23361134044E+03  0.24583764120E+03  0.00000000000E+00 0.  1.
</event>
<event>
12    1  0.1066489E+000  0.2514177E+03  0.7818608E-02  0.1112432E+00
         21   -1    0    0  501  502  0.00000000000E+00  0.00000000000E+00  0.17309309285E+03  0.17309309285E+03  0.00000000000E+00 0.  1.
         21   -1    0    0  502  503 -0.00000000000E+00 -0.00000000000E+00 -0.36618549651E+03  0.36618549651E+03  0.00000000000E+00 0.  1.
         -6    2    1    2    0  503  0.15507242153E+03 -0.98401618709E+02 -0.81190616606E+02  0.26408249016E+03  0.17151475418E+03 0.  0.
        -24    2    3    3    0    0  0.64816499491E+02 -0.48454924977E+02 -0.10803444270E+03  0.15738907576E+03  0.80937148435E+02 0.  0.
          6    2    1    2  501    0 -0.15507242153E+03  0.98401618709E+02 -0.11190178705E+03  0.27519609920E+03  0.17169900577E+03 0.  0.
         24    2    5    5    0    0 -0.93839128176E+02  0.10947144714E+03 -0.22785296909E+02  0.16640319441E+03  0.79881622664E+02 0.  0.
          5    1    5    5  501    0 -0.61233293356E+02 -0.11069828426E+02 -0.89116490142E+02  0.10879290479E+03  0.47000000000E+01 0. -1.
        -11    1    6    6    0    0 -0.28318484918E+02  0.30519512285E+02  0.29717402317E+02  0.51151746975E+02  0.00000000000E+00 0.  1.
         12    1    6    6    0    0 -0.65520643259E+02  0.78951934851E+02 -0.52502699225E+02  0.11525144743E+03  0.00000000000E+00 0. -1.
         -5    1    3    3    0  503  0.90255922042E+02 -0.49946693732E+02  0.26843826096E+02  0.10669341441E+03  0.47000000000E+01 0.  1.
         13    1    4    4    0    0  0.70242788068E+02 -0.55012159008E+01 -0.75210432298E+02  0.10305785646E+03  0.00000000000E+00 0. -1.
        -14    1    4    4    0    0 -0.54262885765E+01 -0.42953709077E+02 -0.32824010404E+02  0.54331219296E+02  0.00000000000E+00 0.  1.
</event>
<event>
12    1  0.1066489E+000  0.1793747E+03  0.7818608E-02  0.1168413E+00
         21   -1    0    0  503  502  0.00000000000E+00  0.00000000000E+00  0.21933965328E+03  0.21933965328E+03  0.00000000000E+00 0. -1.
         21   -1    0    0  501  503 -0.00000000000E+00 -0.00000000000E+00 -0.15623993622E+03  0.15623993622E+03  0.00000000000E+00 0. -1.
          6    2    1    2  501    0 -0.43213825024E+02 -0.23606461284E+02  0.78001094416E+02  0.19560021397E+03  0.17248354498E+03 0.  0.
         24    2    3    3    0    0 -0.48687784329E+02  0.49032836616E+02  0.56534200382E+02  0.11951243986E+03  0.79450538448E+02 0.  0.
         -6    2    1    2    0  502  0.43213825024E+02  0.23606461284E+02 -0.14901377353E+02  0.17997937552E+03  0.17246977961E+03 0.  0.
        -24    2    5    5    0    0  0.61579260076E+02  0.69255118038E+02 -0.31026230796E+02  0.12798716489E+03  0.82642668956E+02 0.  0.
          5    1    3    3  501    0  0.54739593048E+01 -0.72639297899E+02  0.21466894034E+02  0.76087774112E+02  0.47000000000E+01 0. -1.
        -13    1    4    4    0    0 -0.27196893928E+02  0.61195125284E+02  0.11210582194E+02  0.67898391373E+02  0.00000000000E+00 0.  1.
         14    1    4    4    0    0 -0.21490890401E+02 -0.12162288668E+02  0.45323618188E+02  0.51614048490E+02  0.00000000000E+00 0. -1.
         -5    1    5    5    0  502 -0.18365435052E+02 -0.45648656754E+02  0.16124853443E+02  0.51992210634E+02  0.47000000000E+01 0.  1.
         11    1    6    6    0    0  0.24770787531E+02  0.62453568121E+02  0.14819307776E+02  0.68801540454E+02  0.00000000000E+00 0. -1.
        -12    1    6    6    0    0  0.36808472546E+02  0.68015499171E+01 -0.45845538572E+02  0.59185624432E+02  0.00000000000E+00 0.  1.
</event>
<event>
12    1  0.1066489E+000  0.1993361E+03  0.7818608E-02  0.1150559E+00
         21   -1    0    0  503  502  0.00000000000E+00  0.00000000000E+00  0.34702271447E+03  0.34702271447E+03  0.00000000000E+00 0.  1.
         21   -1    0    0  501  503 -0.00000000000E+00 -0.00000000000E+00 -0.17924169642E+03  0.17924169642E+03  0.00000000000E+00 0.  1.
          6    2    1    2  501    0  0.94371303061E+02 -0.31971390266E+02 -0.75260160015E+02  0.21193352981E+03  0.17124139901E+03 0.  0.
         24    2    3    3    0    0 -0.16528913925E+02 -0.20202018318E+02 -0.52303405559E+02  0.97975297029E+02  0.78626878707E+02 0.  0.
         -6    2    1    2    0  502 -0.94371303061E+02  0.31971390266E+02  0.24304117807E+03  0.31433088108E+03  0.17264638984E+03 0.  0.
        -24    2    5    5    0    0 -0.18350667178E+02  0.64083195242E+02  0.83583066412E+02  0.13472218287E+03  0.81978867204E+02 0.  0.
          5    1    3    3  501    0  0.11090021699E+03 -0.11769371948E+02 -0.22956754455E+02  0.11395823278E+03  0.47000000000E+01 0. -1.
        -13    1    4    4    0    0 -0.21302460485E+02 -0.73859722663E+01  0.16427836609E+02  0.27896616725E+02  0.00000000000E+00 0.  1.
         14    1    4    4    0    0  0.47735465605E+01 -0.12816046052E+02 -0.68731242169E+02  0.70078680304E+02  0.00000000000E+00 0. -1.
         -5    1    5    5    0  502 -0.76020635883E+02 -0.32111804976E+02  0.15945811165E+03  0.17960869821E+03  0.47000000000E+01 0.  1.
         13    1    6    6    0    0 -0.18737376184E+02  0.29152095663E+02 -0.89694645778E+01  0.35796441759E+02  0.00000000000E+00 0. -1.
        -14    1    6    6    0    0  0.38670900605E+00  0.34931099579E+02  0.92552530990E+02  0.98925741111E+02  0.00000000000E+00 0.  1.
</event>
<event>
12    1  0.1066489E+000  0.3070443E+03  0.7818608E-02  0.1081803E+00
         21   -1    0    0  503  502  0.00000000000E+00  0.00000000000E+00  0.60965482469E+02  0.60965482469E+02  0.00000000000E+00 0. -1.
         21   -1    0    0  501  503 -0.00000000000E+00 -0.00000000000E+00 -0.21084861916E+04  0.21084861916E+04  0.00000000000E+00 0. -1.
          6    2    1    2  501    0  0.10260625899E+03 -0.23236759875E+03 -0.46336075766E+03  0.55585912322E+03  0.17249181947E+03 0.  0.
         24    2    3    3    0    0  0.13128147824E+03 -0.18596538791E+03 -0.31606404839E+03  0.39871637305E+03  0.85207461042E+02 0.  0.
         -6    2    1    2    0  502 -0.10260625899E+03  0.23236759875E+03 -0.15841599514E+04  0.16135925508E+04  0.17203320319E+03 0.  0.
        -24    2    5    5    0    0 -0.12190468544E+03  0.13214799573E+03 -0.85597740125E+03  0.87827743845E+03  0.79687529280E+02 0.  0.
          5    1    3    3  501    0 -0.28675219245E+02 -0.46402210837E+02 -0.14729670927E+03  0.15714275017E+03  0.47000000000E+01 0. -1.
        -13    1    4    4    0    0  0.16416164241E+02 -0.72486721662E+02 -0.57887746968E+02  0.94206191488E+02  0.00000000000E+00 0.  1.
         14    1    4    4    0    0  0.11486531400E+03 -0.11347866625E+03 -0.25817630143E+03  0.30451018156E+03  0.00000000000E+00 0. -1.
         -5    1    5    5    0  502  0.19298426449E+02  0.10021960302E+03 -0.72818255019E+03  0.73531511238E+03  0.47000000000E+01 0.  1.
         13    1    6    6    0    0 -0.31495075561E+02  0.53163266917E+01 -0.68995112398E+02  0.76029787905E+02  0.00000000000E+00 0. -1.
        -14    1    6    6    0    0 -0.90409609882E+02  0.12683166904E+03 -0.78698228885E+03  0.80224765054E+03  0.00000000000E+00 0.  1.
</event>
<event>
12    1  0.1066489E+000  0.1715492E+03  0.7818608E-02  0.1178969E+00
         21   -1    0    0  503  502  0.00000000000E+00  0.00000000000E+00  0.76717959722E+02  0.76717959722E+02  0.00000000000E+00 0.  1.
         21   -1    0    0  501  503 -0.00000000000E+00 -0.00000000000E+00 -0.42152544878E+03  0.42152544878E+03  0.00000000000E+00 0.  1.
          6    2    1    2  501    0  0.18997769228E+02  0.50658466383E+01 -0.82619107989E+02  0.19040757165E+03  0.17041874398E+03 0.  0.
         24    2    3    3    0    0 -0.54555480606E+02  0.29698121970E+01 -0.45724062428E+02  0.10795874929E+03  0.81112769746E+02 0.  0.
         -6    2    1    2    0  502 -0.18997769228E+02 -0.50658466383E+01 -0.26218838107E+03  0.30783583685E+03  0.16010489450E+03 0.  0.
        -24    2    5    5    0    0 -0.50035068765E+02 -0.12522166764E+02 -0.25741591783E+03  0.27522024123E+03  0.82600930171E+02 0.  0.
          5    1    3    3  501    0  0.73553249833E+02  0.20960344413E+01 -0.36895045561E+02  0.82448822359E+02  0.47000000000E+01 0. -1.
        -13    1    4    4    0    0 -0.46956467796E+01 -0.39697145081E+01 -0.56203725257E+02  0.56539070250E+02  0.00000000000E+00 0.  1.
         14    1    4    4    0    0 -0.49859833826E+02  0.69395267050E+01  0.10479662829E+02  0.51419679045E+02  0.00000000000E+00 0. -1.
         -5    1    5    5    0  502  0.31037299537E+02  0.74563201258E+01 -0.47724632475E+01  0.32615595623E+02  0.47000000000E+01 0.  1.
         11    1    6    6    0    0 -0.38420678474E+02  0.30687661452E+02 -0.98001698693E+02  0.10964585741E+03  0.00000000000E+00 0. -1.
        -12    1    6    6    0    0 -0.11614390291E+02 -0.43209828216E+02 -0.15941421913E+03  0.16557438382E+03  0.00000000000E+00 0.  1.
</event>
<event>
12    1  0.1066489E+000  0.1810853E+03  0.7818608E-02  0.1167340E+00
         21   -1    0    0  503  502  0.00000000000E+00  0.00000000000E+00  0.10917503859E+03  0.10917503859E+03  0.00000000000E+00 0.  1.
         21   -1    0    0  501  503 -0.00000000000E+00 -0.00000000000E+00 -0.37641049283E+03  0.37641049283E+03  0.00000000000E+00 0.  1.
          6    2    1    2  501    0 -0.25247488558E+02 -0.41414748960E+02 -0.24486803786E+03  0.30312409899E+03  0.17196292135E+03 0.  0.
         24    2    3    3    0    0 -0.38538741011E+02  0.30901503092E+02 -0.83472797666E+02  0.12570704441E+03  0.79965089953E+02 0.  0.
         -6    2    1    2    0  502  0.25247488558E+02  0.41414748960E+02 -0.22367416384E+02  0.18246143243E+03  0.17446849544E+03 0.  0.
        -24    2    5    5    0    0  0.42647945951E+02  0.48583995612E+02  0.44472304101E+02  0.11286393068E+03  0.81124774846E+02 0.  0.
          5    1    3    3  501    0  0.13291252453E+02 -0.72316252052E+02 -0.16139524019E+03  0.17741705459E+03  0.47000000000E+01 0. -1.
        -13    1    4    4    0    0 -0.48633813529E+02 -0.75571912461E+01 -0.25560987388E+02  0.55459201529E+02  0.00000000000E+00 0.  1.
         14    1    4    4    0    0  0.10095072519E+02  0.38458694338E+02 -0.57911810278E+02  0.70247842878E+02  0.00000000000E+00 0. -1.
         -5    1    5    5    0  502 -0.17400457392E+02 -0.71692466524E+01 -0.66839720485E+02  0.69597501748E+02  0.47000000000E+01 0.  1.
         13    1    6    6    0    0 -0.15680476235E+02  0.42059754627E+02  0.22317281287E+02  0.50129445821E+02  0.00000000000E+00 0. -1.
        -14    1    6    6    0    0  0.58328422186E+02  0.65242409853E+01  0.22155022814E+02  0.62734484863E+02  0.00000000000E+00 0.  1.
</event>
<event>
12    1  0.1066489E+000  0.2009154E+03  0.7818608E-02  0.1150205E+00
         21   -1    0    0  501  502  0.00000000000E+00  0.00000000000E+00  0.47172337254E+02  0.47172337254E+02  0.00000000000E+00 0. -1.
         21   -1    0    0  502  503 -0.00000000000E+00 -0.00000000000E+00 -0.12043366489E+04  0.12043366489E+04  0.00000000000E+00 0. -1.
         -6    2    1    2    0  503  0.98759009549E+02 -0.22577182204E+02 -0.23614969849E+03  0.31005431143E+03  0.17350482648E+03 0.  0.
        -24    2    3    3    0    0  0.11811053636E+03 -0.61600605192E+02 -0.19375153309E+03  0.24908707792E+03  0.82219112463E+02 0.  0.
          6    2    1    2  501    0 -0.98759009549E+02  0.22577182204E+02 -0.92101461313E+03  0.94145467471E+03  0.16675105938E+03 0.  0.
         24    2    5    5    0    0 -0.13340601734E+03  0.14459189946E+02 -0.65941207622E+03  0.67740109252E+03  0.77728503451E+02 0.  0.
          5    1    5    5  501    0  0.34647007786E+02  0.81179922582E+01 -0.26160253691E+03  0.26405358219E+03  0.47000000000E+01 0. -1.
        -13    1    6    6    0    0 -0.72406621282E+02  0.46617053814E+02 -0.36775670618E+03  0.37770473051E+03  0.00000000000E+00 0.  1.
         14    1    6    6    0    0 -0.60999396053E+02 -0.32157863869E+02 -0.29165537004E+03  0.29969636201E+03  0.00000000000E+00 0. -1.
         -5    1    3    3    0  503 -0.19351526808E+02  0.39023422988E+02 -0.42398165405E+02  0.60967233505E+02  0.47000000000E+01 0.  1.
         13    1    4    4    0    0  0.10595852176E+02 -0.20460435101E+02 -0.93941018465E+02  0.96725469439E+02  0.00000000000E+00 0. -1.
        -14    1    4    4    0    0  0.10751468418E+03 -0.41140170091E+02 -0.99810514624E+02  0.15236160848E+03  0.00000000000E+00 0.  1.
</event>
<event>
12    1  0.1066489E+000  0.2313838E+03  0.7818608E-02  0.1126078E+00
         21   -1    0    0  501  502  0.00000000000E+00  0.00000000000E+00  0.50689495403E+02  0.50689495403E+02  0.00000000000E+00 0. -1.
         21   -1    0    0  502  503 -0.00000000000E+00 -0.00000000000E+00 -0.12399455811E+04  0.12399455811E+04  0.00000000000E+00 0. -1.
         -6    2    1    2    0  503 -0.66683217229E+02  0.13664530768E+03 -0.34169172868E+03  0.41266417089E+03  0.17441298381E+03 0.  0.
        -24    2    3    3    0    0 -0.69472477665E+02  0.82154354657E+02 -0.10516151451E+03  0.16987686449E+03  0.78888793969E+02 0.  0.
          6    2    1    2  501    0  0.66683217229E+02 -0.13664530768E+03 -0.84756435704E+03  0.87797090563E+03  0.17131544075E+03 0.  0.
         24    2    5    5    0    0  0.76138615148E+02 -0.11390207622E+03 -0.40869784440E+03  0.43838864366E+03  0.79874296143E+02 0.  0.
          5    1    5    5  501    0 -0.94553979182E+01 -0.22743231452E+02 -0.43886651264E+03  0.43958226197E+03  0.47000000000E+01 0. -1.
        -11    1    6    6    0    0  0.50847842392E+02 -0.29273975118E+02 -0.24973892139E+03  0.25653849137E+03  0.00000000000E+00 0.  1.
         12    1    6    6    0    0  0.25290772755E+02 -0.84628101107E+02 -0.15895892301E+03  0.18185015229E+03  0.00000000000E+00 0. -1.
         -5    1    3    3    0  503  0.27892604356E+01  0.54490953019E+02 -0.23653021417E+03  0.24278730640E+03  0.47000000000E+01 0.  1.
         11    1    4    4    0    0 -0.77618045370E+01  0.68745754699E+02 -0.65716112547E+02  0.95419242541E+02  0.00000000000E+00 0. -1.
        -12    1    4    4    0    0 -0.61710673128E+02  0.13408599958E+02 -0.39445401965E+02  0.74457621953E+02  0.00000000000E+00 0.  1.
</event>
<event>
12    1  0.1066489E+000  0.1762082E+03  0.7818608E-02  0.1171673E+00
         21   -1    0    0  503  502  0.00000000000E+00  0.00000000000E+00  0.32979254799E+03  0.32979254799E+03  0.00000000000E+00 0. -1.
         21   -1    0    0  501  503 -0.00000000000E+00 -0.00000000000E+00 -0.16765665753E+03  0.16765665753E+03  0.00000000000E+00 0. -1.
          6    2    1    2  501    0  0.25941023638E+02 -0.24099808045E+02 -0.83905036419E+02  0.19516502924E+03  0.17261400883E+03 0.  0.
         24    2    3    3    0    0  0.24758818278E+02  0.22511421856E+02 -0.11139729919E+03  0.14083346498E+03  0.79403673692E+02 0.  0.
         -6    2    1    2    0  502 -0.25941023638E+02  0.24099808045E+02  0.24604092687E+03  0.30228417629E+03  0.17200537224E+03 0.  0.
        -24    2    5    5    0    0  0.29970660315E+02  0.32174379335E+02  0.58287486274E+02  0.10615982909E+03  0.77065213242E+02 0.  0.
          5    1    3    3  501    0  0.11822053600E+01 -0.46611229900E+02  0.27492262769E+02  0.54331564256E+02  0.47000000000E+01 0. -1.
        -11    1    4    4    0    0 -0.25908474304E+02  0.23105133001E+02 -0.36179456078E+02  0.50140295709E+02  0.00000000000E+00 0.  1.
         12    1    4    4    0    0  0.50667292582E+02 -0.59371114476E+00 -0.75217843110E+02  0.90693169272E+02  0.00000000000E+00 0. -1.
         -5    1    5    5    0  502 -0.55911683953E+02 -0.80745712908E+01  0.18775344060E+03  0.19612434719E+03  0.47000000000E+01 0.  1.
         11    1    6    6    0    0  0.27087801142E+02  0.52801170670E+02  0.61061981023E+02  0.85148564999E+02  0.00000000000E+00 0. -1.
        -12    1    6    6    0    0  0.28828591724E+01 -0.20626791335E+02 -0.27744947494E+01  0.21011264096E+02  0.00000000000E+00 0.  1.
</event>
<event>
12    1  0.1066489E+000  0.2581939E+03  0.7818608E-02  0.1108341E+00
         21   -1    0    0  503  502  0.00000000000E+00  0.00000000000E+00  0.17101052811E+03  0.17101052811E+03  0.00000000000E+00 0. -1.
         21   -1    0    0  501  503 -0.00000000000E+00 -0.00000000000E+00 -0.43993981253E+03  0.43993981253E+03  0.00000000000E+00 0. -1.
          6    2    1    2  501    0  0.44134768743E+02 -0.18557173117E+03 -0.23881985771E+03  0.35170867617E+03  0.17400954927E+03 0.  0.
         24    2    3    3    0    0  0.10105992040E+02 -0.15251140444E+03 -0.86853350350E+02  0.19243892949E+03  0.78277567404E+02 0.  0.
         -6    2    1    2    0  502 -0.44134768743E+02  0.18557173117E+03 -0.30109426705E+02  0.25924166447E+03  0.17295929521E+03 0.  0.
        -24    2    5    5    0    0  0.89009769653E+01  0.13869566998E+03 -0.73262184516E+02  0.17620910494E+03  0.79790881196E+02 0.  0.
          5    1    3    3  501    0  0.34028776704E+02 -0.33060326731E+02 -0.15196650736E+03  0.15926974668E+03  0.47000000000E+01 0. -1.
        -11    1    4    4    0    0 -0.25177815515E+02 -0.12149227062E+03 -0.70436352804E+02  0.14267296173E+03  0.00000000000E+00 0.  1.
         12    1    4    4    0    0  0.35283807555E+02 -0.31019133822E+02 -0.16416997546E+02  0.49765967760E+02  0.00000000000E+00 0. -1.
         -5    1    5    5    0  502 -0.53035745708E+02  0.46876061187E+02  0.43152757811E+02  0.83032559529E+02  0.47000000000E+01 0.  1.
         13    1    6    6    0    0  0.19509813020E+02  0.12714164043E+02  0.94474633724E+01  0.25130406594E+02  0.00000000000E+00 0. -1.
        -14    1    6    6    0    0 -0.10608836055E+02  0.12598150594E+03 -0.82709647888E+02  0.15107869835E+03  0.00000000000E+00 0.  1.
</event>
<event>
12    1  0.1066489E+000  0.1921619E+03  0.7818608E-02  0.1157350E+00
         21   -1    0    0  501  502  0.00000000000E+00  0.00000000000E+00  0.50443525538E+03  0.50443525538E+03  0.00000000000E+00 0. -1.
         21   -1    0    0  502  503 -0.00000000000E+00 -0.00000000000E+00 -0.72159244085E+02  0.72159244085E+02  0.00000000000E+00 0. -1.
         -6    2    1    2    0  503  0.37449970941E+02 -0.67769851934E+02  0.23408074988E+03  0.30053730831E+03  0.17185349303E+03 0.  0.
        -24    2    3    3    0    0  0.57368021560E+02 -0.10624687702E+03  0.18518233968E+03  0.23503650892E+03  0.79813362441E+02 0.  0.
          6    2    1    2  501    0 -0.37449970941E+02  0.67769851934E+02  0.19819526142E+03  0.27605719116E+03  0.17587199319E+03 0.  0.
         24    2    5    5    0    0  0.23533847451E+02  0.43054487093E+02  0.18010067759E+03  0.20765120218E+03  0.90968328903E+02 0.  0.
          5    1    5    5  501    0 -0.60983818392E+02  0.24715364841E+02  0.18094583831E+02  0.68405988984E+02  0.47000000000E+01 0. -1.
        -13    1    6    6    0    0 -0.18520554046E+02  0.62950547795E+01  0.13345222194E+03  0.13487821980E+03  0.00000000000E+00 0.  1.
         14    1    6    6    0    0  0.42054401497E+02  0.36759432314E+02  0.46648455653E+02  0.72772982377E+02  0.00000000000E+00 0. -1.
         -5    1    3    3    0  503 -0.19918050620E+02  0.38477025084E+02  0.48898410197E+02  0.65500799381E+02  0.47000000000E+01 0.  1.
         11    1    4    4    0    0 -0.19105591421E+02 -0.12926339871E+02  0.20318660464E+02  0.30740231767E+02  0.00000000000E+00 0. -1.
        -12    1    4    4    0    0  0.76473612982E+02 -0.93320537146E+02  0.16486367922E+03  0.20429627716E+03  0.00000000000E+00 0.  1.
</event>
<event>
12    1  0.1066489E+000  0.1920277E+03  0.7818608E-02  0.1156782E+00
         21   -1    0    0  501  502  0.00000000000E+00  0.00000000000E+00  0.22662152954E+03  0.22662152954E+03  0.00000000000E+00 0.  1.
         21   -1    0    0  502  503 -0.00000000000E+00 -0.00000000000E+00 -0.20988358986E+03  0.20988358986E+03  0.00000000000E+00 0. -1.
         -6    2    1    2    0  503 -0.23611106917E+02 -0.79339717877E+02 -0.95654848664E+02  0.21453314722E+03  0.17326957604E+03 0.  0.
        -24    2    3    3    0    0  0.37543333577E+02 -0.87510783133E+02 -0.37891598372E+02  0.12988496364E+03  0.79791550257E+02 0.  0.
          6    2    1    2  501    0  0.23611106917E+02  0.79339717877E+02  0.11239278835E+03  0.22197197218E+03  0.17258951984E+03 0.  0.
         24    2    5    5    0    0  0.59526209325E+02  0.60138108474E+02  0.13135770574E+03  0.17680168907E+03  0.82728645054E+02 0.  0.
          5    1    5    5  501    0 -0.35915102408E+02  0.19201609403E+02 -0.18964917393E+02  0.45170283111E+02  0.47000000000E+01 0. -1.
        -13    1    6    6    0    0  0.10462324617E+01  0.53530856622E+02  0.35239553630E+02  0.64097373995E+02  0.00000000000E+00 0.  1.
         14    1    6    6    0    0  0.58479976863E+02  0.66072518519E+01  0.96118152109E+02  0.11270431507E+03  0.00000000000E+00 0. -1.
         -5    1    3    3    0  503 -0.61154440494E+02  0.81710652560E+01 -0.57763250292E+02  0.84648183583E+02  0.47000000000E+01 0.  1.
         11    1    4    4    0    0  0.97348773274E+01 -0.28802772110E+02 -0.54880224922E+02  0.62739195128E+02  0.00000000000E+00 0. -1.
        -12    1    4    4    0    0  0.27808456249E+02 -0.58708011023E+02  0.16988626550E+02  0.67145768513E+02  0.00000000000E+00 0.  1.
</event>
<event>
12    1  0.1066489E+000  0.2511257E+03  0.7818608E-02  0.1112779E+00
         21   -1    0    0  503  502  0.00000000000E+00  0.00000000000E+00  0.65074522393E+03  0.65074522393E+03  0.00000000000E+00 0.  1.
         21   -1    0    0  501  503 -0.00000000000E+00 -0.00000000000E+00 -0.10789526883E+03  0.10789526883E+03  0.00000000000E+00 0. -1.
          6    2    1    2  501    0 -0.89605132343E+02  0.15875213252E+03  0.14738403339E+03  0.29017769638E+03  0.17102550353E+03 0.  0.
         24    2    3    3    0    0 -0.82451267468E+02  0.57408772949E+02  0.13766964943E+03  0.18801060986E+03  0.79379331867E+02 0.  0.
         -6    2    1    2    0  502  0.89605132343E+02 -0.15875213252E+03  0.39546592171E+03  0.46846279638E+03  0.17272167506E+03 0.  0.
        -24    2    5    5    0    0  0.54538153888E+02 -0.80497131120E+02  0.90468277063E+02  0.15160448189E+03  0.73110952845E+02 0.  0.
          5    1    3    3  501    0 -0.71538648745E+01  0.10134335957E+03  0.97143839588E+01  0.10216708652E+03  0.47000000000E+01 0. -1.
        -11    1    4    4    0    0 -0.92203988682E+02  0.49101006185E+02  0.87610713688E+02  0.13633826129E+03  0.00000000000E+00 0.  1.
         12    1    4    4    0    0  0.97527212143E+01  0.83077667638E+01  0.50058935745E+02  0.51672348579E+02  0.00000000000E+00 0. -1.
         -5    1    5    5    0  502  0.35066978454E+02 -0.78255001398E+02  0.30499764465E+03  0.31685831449E+03  0.47000000000E+01 0.  1.
         11    1    6    6    0    0  0.11937909596E+02 -0.10103556442E+02 -0.12342160807E+02  0.19922963426E+02  0.00000000000E+00 0. -1.
        -12    1    6    6    0    0  0.42600244292E+02 -0.70393574679E+02  0.10281043787E+03  0.13168151846E+03  0.00000000000E+00 0.  1.
</event>
<event>
12    1  0.1066489E+000  0.1934968E+03  0.7818608E-02  0.1155404E+00
         21   -1    0    0  503  502  0.00000000000E+00  0.00000000000E+00  0.17512454158E+03  0.17512454158E+03  0.00000000000E+00 0.  1.
         21   -1    0    0  501  503 -0.00000000000E+00 -0.00000000000E+00 -0.26028029439E+03  0.26028029439E+03  0.00000000000E+00 0.  1.
          6    2    1    2  501    0 -0.37578460548E+01 -0.88264141122E+02  0.49742266892E+02  0.19952669124E+03  0.17184855946E+03 0.  0.
         24    2    3    3    0    0  0.39995276857E+01 -0.38834916145E+02  0.95920259952E+02  0.13127771929E+03  0.80678351368E+02 0.  0.
         -6    2    1    2    0  502  0.37578460548E+01  0.88264141122E+02 -0.13489801970E+03  0.23587814473E+03  0.17215209387E+03 0.  0.
        -24    2    5    5    0    0 -0.36304733461E+02 -0.11897031937E+01 -0.93885596041E+02  0.12952444505E+03  0.81502316877E+02 0.  0.
          5    1    3    3  501    0 -0.77573737405E+01 -0.49429224977E+02 -0.46177993060E+02  0.68248971950E+02  0.47000000000E+01 0. -1.
        -13    1    4    4    0    0  0.67271742424E+01  0.16056565457E+02 -0.34259674093E+01  0.17742756839E+02  0.00000000000E+00 0.  1.
         14    1    4    4    0    0 -0.27276465567E+01 -0.54891481602E+02  0.99346227361E+02  0.11353496245E+03  0.00000000000E+00 0. -1.
         -5    1    5    5    0  502  0.40062579516E+02  0.89453844316E+02 -0.41012423659E+02  0.10635369968E+03  0.47000000000E+01 0.  1.
         11    1    6    6    0    0 -0.20450735186E+01  0.32651630059E+02 -0.66536443797E+02  0.74144518505E+02  0.00000000000E+00 0. -1.
        -12    1    6    6    0    0 -0.34259659942E+02 -0.33841333253E+02 -0.27349152244E+02  0.55379926545E+02  0.00000000000E+00 0.  1.
</event>
<event>
12    1  0.1066489E+000  0.1838294E+03  0.7818608E-02  0.1164364E+00
         21   -1    0    0  503  502  0.00000000000E+00  0.00000000000E+00  0.18800693642E+03  0.18800693642E+03  0.00000000000E+00 0. -1.
         21   -1    0    0  501  503 -0.00000000000E+00 -0.00000000000E+00 -0.19355329517E+03  0.19355329517E+03  0.00000000000E+00 0. -1.
          6    2    1    2  501    0 -0.96624388577E+01  0.60360112576E+02  0.49813954576E+02  0.18957581779E+03  0.17239737442E+03 0.  0.
         24    2    3    3    0    0 -0.11702327459E+02 -0.12296268338E+01 -0.33047427002E+02  0.86204856189E+02  0.78744449640E+02 0.  0.
         -6    2    1    2    0  502  0.96624388577E+01 -0.60360112576E+02 -0.55360313318E+02  0.19198441380E+03  0.17336823508E+03 0.  0.
        -24    2    5    5    0    0 -0.10060694340E+02 -0.80556997414E+02  0.16595814729E+02  0.11454611253E+03  0.79086935870E+02 0.  0.
          5    1    3    3  501    0  0.20398886016E+01  0.61589739410E+02  0.82861381578E+02  0.10337096160E+03  0.47000000000E+01 0. -1.
        -11    1    4    4    0    0 -0.44929445855E+02 -0.20302557348E+01 -0.10938552278E+02  0.46286379953E+02  0.00000000000E+00 0.  1.
         12    1    4    4    0    0  0.33227118396E+02  0.80062890091E+00 -0.22108874724E+02  0.39918476237E+02  0.00000000000E+00 0. -1.
         -5    1    5    5    0  502  0.19723133198E+02  0.20196884837E+02 -0.71956128047E+02  0.77438301271E+02  0.47000000000E+01 0.  1.
         11    1    6    6    0    0 -0.19887961015E+02  0.97932920797E+01  0.46613876395E-01  0.22168485198E+02  0.00000000000E+00 0. -1.
        -12    1    6    6    0    0  0.98272666750E+01 -0.90350289493E+02  0.16549200853E+02  0.92377627328E+02  0.00000000000E+00 0.  1.
</event>
<event>
12    1  0.1066489E+000  0.1806924E+03  0.7818608E-02  0.1171787E+00
         21   -1    0    0  501  502  0.00000000000E+00  0.00000000000E+00  0.56345435450E+03  0.56345435450E+03  0.00000000000E+00 0. -1.
         21   -1    0    0  502  503 -0.00000000000E+00 -0.00000000000E+00 -0.63118124544E+02  0.63118124544E+02  0.00000000000E+00 0. -1.
         -6    2    1    2    0  503 -0.50669924265E+01 -0.54384970036E+02  0.36906522627E+03  0.40323009093E+03  0.15297701007E+03 0.  0.
        -24    2    3    3    0    0  0.25036307415E+01  0.24224023787E+02  0.20551416118E+03  0.22154979718E+03  0.79089637055E+02 0.  0.
          6    2    1    2  501    0  0.50669924265E+01  0.54384970036E+02  0.13127100368E+03  0.22334238811E+03  0.17223921313E+03 0.  0.
         24    2    5    5    0    0 -0.44016178321E+02 -0.90838029187E+01  0.10220021845E+03  0.13787518185E+03  0.80899577820E+02 0.  0.
          5    1    5    5  501    0  0.49083170748E+02  0.63468772955E+02  0.29070785236E+02  0.85467206257E+02  0.47000000000E+01 0. -1.
        -11    1    6    6    0    0 -0.42026826318E+02  0.28747144051E+02  0.77223333070E+02  0.92499165358E+02  0.00000000000E+00 0.  1.
         12    1    6    6    0    0 -0.19893520027E+01 -0.37830946969E+02  0.24976885377E+02  0.45376016497E+02  0.00000000000E+00 0. -1.
         -5    1    3    3    0  503 -0.75706231680E+01 -0.78608993823E+02  0.16355106509E+03  0.18168029375E+03  0.47000000000E+01 0.  1.
         13    1    4    4    0    0  0.11151361832E+02 -0.30666478361E+01  0.18721740024E+03  0.18757428436E+03  0.00000000000E+00 0. -1.
        -14    1    4    4    0    0 -0.86477310905E+01  0.27290671623E+02  0.18296760941E+02  0.33975512822E+02  0.00000000000E+00 0.  1.
</event>
<event>
12    1  0.1066489E+000  0.1682143E+03  0.7818608E-02  0.1180350E+00
         21   -1    0    0  503  502  0.00000000000E+00  0.00000000000E+00  0.23542230471E+03  0.23542230471E+03  0.00000000000E+00 0. -1.
         21   -1    0    0  501  503 -0.00000000000E+00 -0.00000000000E+00 -0.13356887082E+03  0.13356887082E+03  0.00000000000E+00 0. -1.
          6    2    1    2  501    0  0.13984244876E+02  0.34467245344E+01 -0.10686696647E+02  0.16855345746E+03  0.16759660952E+03 0.  0.
         24    2    3    3    0    0  0.21678564149E+02 -0.13385589491E+02 -0.67851553545E+02  0.10828372867E+03  0.80451217685E+02 0.  0.
         -6    2    1    2    0  502 -0.13984244876E+02 -0.34467245344E+01  0.11254013054E+03  0.20043771806E+03  0.16523485959E+03 0.  0.
        -24    2    5    5    0    0  0.23529382665E+02 -0.39951343140E+02  0.11531045840E+03  0.14781049937E+03  0.80010625786E+02 0.  0.
          5    1    3    3  501    0 -0.76943192724E+01  0.16832314026E+02  0.57164856898E+02  0.60269728792E+02  0.47000000000E+01 0. -1.
        -13    1    4    4    0    0 -0.93032597122E+01  0.11416491323E+02 -0.66988113458E+02  0.68587857964E+02  0.00000000000E+00 0.  1.
         14    1    4    4    0    0  0.30981823861E+02 -0.24802080814E+02 -0.86344008718E+00  0.39695870708E+02  0.00000000000E+00 0. -1.
         -5    1    5    5    0  502 -0.37513627541E+02  0.36504618605E+02 -0.27703278648E+01  0.52627218692E+02  0.47000000000E+01 0.  1.
         13    1    6    6    0    0  0.41063862248E+02 -0.90968397261E+01  0.20932083984E+02  0.46980266236E+02  0.00000000000E+00 0. -1.
        -14    1    6    6    0    0 -0.17534479583E+02 -0.30854503414E+02  0.94378374418E+02  0.10083023313E+03  0.00000000000E+00 0.  1.
</event>
<event>
12    1  0.1066489E+000  0.1965858E+03  0.7818608E-02  0.1152687E+00
         21   -1    0    0  501  502  0.00000000000E+00  0.00000000000E+00  0.39462783404E+02  0.39462783404E+02  0.00000000000E+00 0.  1.
         21   -1    0    0  502  503 -0.00000000000E+00 -0.00000000000E+00 -0.10147033862E+04  0.10147033862E+04  0.00000000000E+00 0. -1.
         -6    2    1    2    0  503 -0.57207172915E+02  0.75018475195E+02 -0.38785812055E+03  0.43475986103E+03  0.17228401794E+03 0.  0.
        -24    2    3    3    0    0 -0.77058497480E+01  0.98385059985E+02 -0.33161121288E+03  0.35613300238E+03  0.84413972333E+02 0.  0.
          6    2    1    2  501    0  0.57207172915E+02 -0.75018475195E+02 -0.58738248221E+03  0.61940630853E+03  0.17246901864E+03 0.  0.
         24    2    5    5    0    0 -0.22067079176E+02 -0.65742131276E+02 -0.43154466532E+03  0.44425502314E+03  0.79515681552E+02 0.  0.
          5    1    5    5  501    0  0.79274252091E+02 -0.92763439188E+01 -0.15583781689E+03  0.17515128539E+03  0.47000000000E+01 0. -1.
        -13    1    6    6    0    0  0.65278923482E+01 -0.14454219551E+02 -0.10241323901E+02  0.18879156670E+02  0.00000000000E+00 0.  1.
         14    1    6    6    0    0 -0.28594971524E+02 -0.51287911725E+02 -0.42130334142E+03  0.42537586647E+03  0.00000000000E+00 0. -1.
         -5    1    3    3    0  503 -0.49501323167E+02 -0.23366584790E+02 -0.56246907665E+02  0.78626858655E+02  0.47000000000E+01 0.  1.
         13    1    4    4    0    0 -0.61300235755E+01  0.50912025240E+02 -0.28502583657E+03  0.28960203559E+03  0.00000000000E+00 0. -1.
        -14    1    4    4    0    0 -0.15758261724E+01  0.47473034744E+02 -0.46585376308E+02  0.66530966788E+02  0.00000000000E+00 0.  1.
</event>
<event>
12    1  0.1066489E+000  0.2558724E+03  0.7818608E-02  0.1110056E+00
         21   -1    0    0  501  502  0.00000000000E+00  0.00000000000E+00  0.63033530635E+02  0.63033530635E+02  0.00000000000E+00 0.  1.
         21   -1    0    0  502  503 -0.00000000000E+00 -0.00000000000E+00 -0.10309705707E+04  0.10309705707E+04  0.00000000000E+00 0.  1.
         -6    2    1    2    0  503  0.13962854199E+03 -0.12340696074E+03 -0.51590676444E+03  0.57587364450E+03  0.17534325516E+03 0.  0.
        -24    2    3    3    0    0  0.96552001839E+02 -0.12757530695E+03 -0.25650117572E+03  0.31284073233E+03  0.80490512834E+02 0.  0.
          6    2    1    2  501    0 -0.13962854199E+03  0.12340696074E+03 -0.45203027557E+03  0.51813045679E+03  0.17147125859E+03 0.  0.
         24    2    5    5    0    0 -0.14023588157E+03  0.13220706475E+03 -0.46066403546E+03  0.50492278850E+03  0.74772042429E+02 0.  0.
          5    1    5    5  501    0  0.60733958470E+00 -0.88001040090E+01  0.86337598874E+01  0.13207668293E+02  0.47000000000E+01 0. -1.
        -13    1    6    6    0    0 -0.52131516736E+02  0.85868390942E+02 -0.29517692655E+03  0.31180201021E+03  0.00000000000E+00 0.  1.
         14    1    6    6    0    0 -0.88104364837E+02  0.46338673805E+02 -0.16548710891E+03  0.19312077829E+03  0.00000000000E+00 0. -1.
         -5    1    3    3    0  503  0.43076540150E+02  0.41683462122E+01 -0.25940558872E+03  0.26303291216E+03  0.47000000000E+01 0.  1.
         13    1    4    4    0    0  0.97965771139E+02 -0.11430159318E+03 -0.25869979031E+03  0.29931209134E+03  0.00000000000E+00 0. -1.
        -14    1    4    4    0    0 -0.14137693005E+01 -0.13273713771E+02  0.21986145860E+01  0.13528640989E+02  0.00000000000E+00 0.  1.
</event>
<event>
12    1  0.1066489E+000  0.1869030E+03  0.7818608E-02  0.1162231E+00
         21   -1    0    0  501  502  0.00000000000E+00  0.00000000000E+00  0.47343570144E+03  0.47343570144E+03  0.00000000000E+00 0.  1.
         21   -1    0    0  502  503 -0.00000000000E+00 -0.00000000000E+00 -0.74199977856E+02  0.74199977856E+02  0.00000000000E+00 0.  1.
         -6    2    1    2    0  503  0.26650507838E+02  0.64675297095E+02  0.24679144398E+03  0.30957833031E+03  0.17331930693E+03 0.  0.
        -24    2    3    3    0    0  0.68302544242E+02  0.84686851682E+02  0.21291464747E+03  0.25208848951E+03  0.79867759693E+02 0.  0.
          6    2    1    2  501    0 -0.26650507838E+02 -0.64675297095E+02  0.15244427961E+03  0.23805734899E+03  0.16893460095E+03 0.  0.
         24    2    5    5    0    0  0.24094790367E+02 -0.72662927974E+02  0.46941623877E+02  0.12061890595E+03  0.80529152455E+02 0.  0.
          5    1    5    5  501    0 -0.50745298205E+02  0.79876308783E+01  0.10550265573E+03  0.11743844304E+03  0.47000000000E+01 0. -1.
        -11    1    6    6    0    0  0.94224122141E+01  0.13169982950E+02 -0.75807762857E+01  0.17880113868E+02  0.00000000000E+00 0.  1.
         12    1    6    6    0    0  0.14672378153E+02 -0.85832910924E+02  0.54522400163E+02  0.10273879208E+03  0.00000000000E+00 0. -1.
         -5    1    3    3    0  503 -0.41652036404E+02 -0.20011554587E+02  0.33876796503E+02  0.57489840797E+02  0.47000000000E+01 0.  1.
         11    1    4    4    0    0 -0.18752082268E+00 -0.11701672449E+02  0.46407033753E+01  0.12589695389E+02  0.00000000000E+00 0. -1.
        -12    1    4    4    0    0  0.68490065065E+02  0.96388524131E+02  0.20827394410E+03  0.23949879413E+03  0.00000000000E+00 0.  1.
</event>
<event>
12    1  0.1066489E+000  0.2036119E+03  0.7818608E-02  0.1146952E+00
         21   -1    0    0  503  502  0.00000000000E+00  0.00000000000E+00  0.17919473042E+04  0.17919473042E+04  0.00000000000E+00 0. -1.
         21   -1    0    0  501  503 -0.00000000000E+00 -0.00000000000E+00 -0.27653919544E+02  0.27653919544E+02  0.00000000000E+00 0. -1.
          6    2    1    2  501    0  0.61048291003E+02  0.89326476559E+02  0.12529281315E+04  0.12691902739E+04  0.17119852580E+03 0.  0.
         24    2    3    3    0    0  0.59071480482E+02  0.11785493544E+03  0.11882040812E+04  0.11982743135E+04  0.81566942785E+02 0.  0.
         -6    2    1    2    0  502 -0.61048291003E+02 -0.89326476559E+02  0.51136525317E+03  0.55041094992E+03  0.17248674848E+03 0.  0.
        -24    2    5    5    0    0 -0.54490647872E+02  0.32534649311E+01  0.15230527075E+03  0.17951984835E+03  0.77786018763E+02 0.  0.
          5    1    3    3  501    0  0.19768105210E+01 -0.28528458877E+02  0.64724050351E+02  0.70915960401E+02  0.47000000000E+01 0. -1.
        -11    1    4    4    0    0 -0.17507365989E+01 -0.19828214861E+01  0.29545408561E+03  0.29546592589E+03  0.00000000000E+00 0.  1.
         12    1    4    4    0    0  0.60822217081E+02  0.11983775692E+03  0.89274999556E+03  0.90280838756E+03  0.00000000000E+00 0. -1.
         -5    1    5    5    0  502 -0.65576431316E+01 -0.92579941490E+02  0.35905998242E+03  0.37089110157E+03  0.47000000000E+01 0.  1.
         11    1    6    6    0    0  0.15467658452E+02  0.13719405455E+02  0.16714072570E+02  0.26586289059E+02  0.00000000000E+00 0. -1.
        -12    1    6    6    0    0 -0.69958306324E+02 -0.10465940524E+02  0.13559119818E+03  0.15293355929E+03  0.00000000000E+00 0.  1.
</event>
<event>
12    1  0.1066489E+000  0.2222459E+03  0.7818608E-02  0.1132358E+00
         21   -1    0    0  501  502  0.00000000000E+00  0.00000000000E+00  0.16508115434E+03  0.16508115434E+03  0.00000000000E+00 0. -1.
         21   -1    0    0  502  503 -0.00000000000E+00 -0.00000000000E+00 -0.31535512245E+03  0.31535512245E+03  0.00000000000E+00 0. -1.
         -6    2    1    2    0  503  0.66592796730E+02 -0.12204128435E+03 -0.13129007732E+03  0.25812854120E+03  0.17339141767E+03 0.  0.
        -24    2    3    3    0    0  0.20935052593E+02 -0.14829690663E+03 -0.10373408312E+03  0.19850128135E+03  0.78814654446E+02 0.  0.
          6    2    1    2  501    0 -0.66592796730E+02  0.12204128435E+03 -0.18983890784E+02  0.22230773559E+03  0.17242872595E+03 0.  0.
         24    2    5    5    0    0 -0.90377238408E+02  0.14071363357E+03 -0.35322172924E+02  0.18761788470E+03  0.77359180870E+02 0.  0.
          5    1    5    5  501    0  0.23784441678E+02 -0.18672349221E+02  0.16338282140E+02  0.34689850888E+02  0.47000000000E+01 0. -1.
        -11    1    6    6    0    0 -0.60867789639E+02  0.39975563238E+02 -0.38950870385E+02  0.82583919594E+02  0.00000000000E+00 0.  1.
         12    1    6    6    0    0 -0.29509448769E+02  0.10073807033E+03  0.36286974616E+01  0.10503396511E+03  0.00000000000E+00 0. -1.
         -5    1    3    3    0  503  0.45657744137E+02  0.26255622281E+02 -0.27555994203E+02  0.59627259853E+02  0.47000000000E+01 0.  1.
         13    1    4    4    0    0 -0.24546985360E+02 -0.20908219856E+02 -0.31848864765E+02  0.45321720341E+02  0.00000000000E+00 0. -1.
        -14    1    4    4    0    0  0.45482037953E+02 -0.12738868677E+03 -0.71885218353E+02  0.15317956101E+03  0.00000000000E+00 0.  1.
</event>
<event>
12    1  0.1066489E+000  0.3481428E+03  0.7818608E-02  0.1063571E+00
         21   -1    0    0  501  502  0.00000000000E+00  0.00000000000E+00  0.44630550637E+03  0.44630550637E+03  0.00000000000E+00 0.  1.
         21   -1    0    0  502  503 -0.00000000000E+00 -0.00000000000E+00 -0.27639065153E+03  0.27639065153E+03  0.00000000000E+00 0.  1.
         -6    2    1    2    0  503  0.28550803416E+03  0.94281020681E+02  0.30803725936E+02  0.34950294008E+03  0.17549839648E+03 0.  0.
        -24    2    3    3    0    0  0.24095609334E+03  0.82759382069E+02 -0.35047131125E+02  0.26902903772E+03  0.78989667010E+02 0.  0.
          6    2    1    2  501    0 -0.28550803416E+03 -0.94281020681E+02  0.13911112890E+03  0.37319321781E+03  0.17180664482E+03 0.  0.
         24    2    5    5    0    0 -0.14857068071E+03  0.17492829157E+02  0.61724257801E+02  0.18017495418E+03  0.79207852344E+02 0.  0.
          5    1    5    5  501    0 -0.13693735345E+03 -0.11177384984E+03  0.77386871102E+02  0.19301826363E+03  0.47000000000E+01 0. -1.
        -13    1    6    6    0    0 -0.23154736952E+02 -0.52703631460E+01  0.45968432198E+02  0.51739881423E+02  0.00000000000E+00 0.  1.
         14    1    6    6    0    0 -0.12541594376E+03  0.22763192303E+02  0.15755825603E+02  0.12843507275E+03  0.00000000000E+00 0. -1.
         -5    1    3    3    0  503  0.44551940816E+02  0.11521638613E+02  0.65850857061E+02  0.80473902369E+02  0.47000000000E+01 0.  1.
         13    1    4    4    0    0  0.21462785792E+03  0.75210209209E+02 -0.37707823430E+01  0.22745529619E+03  0.00000000000E+00 0. -1.
        -14    1    4    4    0    0  0.26328235421E+02  0.75491728595E+01 -0.31276348782E+02  0.41573741525E+02  0.00000000000E+00 0.  1.
</event>
<event>
12    1  0.1066489E+000  0.1784999E+03  0.7818608E-02  0.1169672E+00
         21   -1    0    0  503  502  0.00000000000E+00  0.00000000000E+00  0.22255618237E+04  0.22255618237E+04  0.00000000000E+00 0. -1.
         21   -1    0    0  501  503 -0.00000000000E+00 -0.00000000000E+00 -0.14257055109E+02  0.14257055109E+02  0.00000000000E+00 0. -1.
          6    2    1    2  501    0  0.95016693477E+01 -0.40108140295E+02  0.11810843763E+04  0.11942490428E+04  0.17196373883E+03 0.  0.
         24    2    3    3    0    0  0.14354110576E+02  0.33474929664E+02  0.67898261736E+03  0.68673916036E+03  0.96263535589E+02 0.  0.
         -6    2    1    2    0  502 -0.95016693477E+01  0.40108140295E+02  0.10302203922E+04  0.10455698360E+04  0.17367579220E+03 0.  0.
        -24    2    5    5    0    0 -0.38560548582E+02  0.84819721516E+02  0.63051644685E+03  0.64229712692E+03  0.79456330351E+02 0.  0.
          5    1    3    3  501    0 -0.48524412284E+01 -0.73583069959E+02  0.50210175897E+03  0.50750988240E+03  0.47000000000E+01 0. -1.
        -13    1    4    4    0    0 -0.26472011768E+02  0.51572987145E+02  0.35748175976E+03  0.36215155525E+03  0.00000000000E+00 0.  1.
         14    1    4    4    0    0  0.40826122344E+02 -0.18098057481E+02  0.32150085760E+03  0.32458760511E+03  0.00000000000E+00 0. -1.
         -5    1    5    5    0  502  0.29058879234E+02 -0.44711581221E+02  0.39970394537E+03  0.40327270910E+03  0.47000000000E+01 0.  1.
         11    1    6    6    0    0 -0.35999976676E+02  0.59696983444E+02  0.21511283167E+03  0.22612664262E+03  0.00000000000E+00 0. -1.
        -12    1    6    6    0    0 -0.25605719059E+01  0.25122738072E+02  0.41540361518E+03  0.41617048430E+03  0.00000000000E+00 0.  1.
</event>
<event>
12    1  0.1066489E+000  0.2025486E+03  0.7818608E-02  0.1152632E+00
         21   -1    0    0  503  502  0.00000000000E+00  0.00000000000E+00  0.14020910005E+04  0.14020910005E+04  0.00000000000E+00 0.  1.
         21   -1    0    0  501  503 -0.00000000000E+00 -0.00000000000E+00 -0.27487751615E+02  0.27487751615E+02  0.00000000000E+00 0.  1.
          6    2    1    2  501    0  0.60148986953E+02  0.33233617814E+01  0.88821258690E+03  0.91101457149E+03  0.19338305143E+03 0.  0.
         24    2    3    3    0    0 -0.29710708983E+02  0.49885967909E+02  0.48991132708E+03  0.50002938342E+03  0.81516500526E+02 0.  0.
         -6    2    1    2    0  502 -0.60148986953E+02 -0.33233617814E+01  0.48639066195E+03  0.51856418059E+03  0.16942251323E+03 0.  0.
        -24    2    5    5    0    0  0.18773787707E+02  0.37350232527E+02  0.22090668114E+03  0.23858743209E+03  0.79854279802E+02 0.  0.
          5    1    3    3  501    0  0.89859695936E+02 -0.46562606128E+02  0.39830125982E+03  0.41098518807E+03  0.47000000000E+01 0. -1.
        -13    1    4    4    0    0  0.13258347467E+02  0.40304145254E+02  0.36751929484E+03  0.36996032217E+03  0.00000000000E+00 0.  1.
         14    1    4    4    0    0 -0.42969056450E+02  0.95818226548E+01  0.12239203224E+03  0.13006906124E+03  0.00000000000E+00 0. -1.
         -5    1    5    5    0  502 -0.78922774659E+02 -0.40673594308E+02  0.26548398081E+03  0.27997674850E+03  0.47000000000E+01 0.  1.
         13    1    6    6    0    0  0.18505668146E+01  0.32961900151E+02  0.21845256147E+03  0.22093309637E+03  0.00000000000E+00 0. -1.
        -14    1    6    6    0    0  0.16923220892E+02  0.43883323760E+01  0.24541196764E+01  0.17654335722E+02  0.00000000000E+00 0.  1.
</event>
<event>
12    1  0.1066489E+000  0.2361713E+03  0.7818608E-02  0.1123064E+00
         21   -1    0    0  501  502  0.00000000000E+00  0.00000000000E+00  0.97608516817E+03  0.97608516817E+03  0.00000000000E+00 0.  1.
         21   -1    0    0  502  503 -0.00000000000E+00 -0.00000000000E+00 -0.90483168130E+02  0.90483168130E+02  0.00000000000E+00 0.  1.
         -6    2    1    2    0  503 -0.15655657730E+03  0.11613044698E+02  0.77357597039E+03  0.80882425047E+03  0.17644279945E+03 0.  0.
        -24    2    3    3    0    0 -0.56720570405E+02  0.22170449332E+02  0.17842172792E+03  0.20524380894E+03  0.81129256026E+02 0.  0.
          6    2    1    2  501    0  0.15655657730E+03 -0.11613044698E+02  0.11202602965E+03  0.25774408583E+03  0.17098934984E+03 0.  0.
         24    2    5    5    0    0  0.85513116522E+02  0.59639333179E+01  0.13685600405E+03  0.18031837237E+03  0.80231464965E+02 0.  0.
          5    1    5    5  501    0  0.71043460781E+02 -0.17576978016E+02 -0.24829974406E+02  0.77425713461E+02  0.47000000000E+01 0. -1.
        -11    1    6    6    0    0 -0.12381030676E+02 -0.11260308620E+02  0.30191301670E+02  0.34519547612E+02  0.00000000000E+00 0.  1.
         12    1    6    6    0    0  0.97894147198E+02  0.17224241938E+02  0.10666470238E+03  0.14579882476E+03  0.00000000000E+00 0. -1.
         -5    1    3    3    0  503 -0.99836006898E+02 -0.10557404634E+02  0.59515424247E+03  0.60358044153E+03  0.47000000000E+01 0.  1.
         13    1    4    4    0    0 -0.12335600121E+02  0.21177613731E+02  0.15118533817E+03  0.15315895283E+03  0.00000000000E+00 0. -1.
        -14    1    4    4    0    0 -0.44384970284E+02  0.99283560051E+00  0.27236389752E+02  0.52084856113E+02  0.00000000000E+00 0.  1.
</event>
<event>
12    1  0.1066489E+000  0.3587901E+03  0.7818608E-02  0.1059253E+00
         21   -1    0    0  501  502  0.00000000000E+00  0.00000000000E+00  0.48225709813E+03  0.48225709813E+03  0.00000000000E+00 0. -1.
         21   -1    0    0  502  503 -0.00000000000E+00 -0.00000000000E+00 -0.40389908239E+03  0.40389908239E+03  0.00000000000E+00 0. -1.
         -6    2    1    2    0  503 -0.30752003682E+03  0.56765844644E+02  0.29845141068E+03  0.46523878315E+03  0.17199693789E+03 0.  0.
        -24    2    3    3    0    0 -0.12066243199E+03  0.75612845330E+02  0.18240081513E+03  0.24442029514E+03  0.78705136075E+02 0.  0.
          6    2    1    2  501    0  0.30752003682E+03 -0.56765844644E+02 -0.22009339494E+03  0.42091739737E+03  0.17589604530E+03 0.  0.
         24    2    5    5    0    0  0.28833605484E+03 -0.48864208589E+00 -0.18157960303E+03  0.34992056041E+03  0.79594767823E+02 0.  0.
          5    1    5    5  501    0  0.19183981974E+02 -0.56277202558E+02 -0.38513791910E+02  0.70996836968E+02  0.47000000000E+01 0. -1.
        -13    1    6    6    0    0  0.25894352284E+03 -0.16486687270E+02 -0.13477417237E+03  0.29238268830E+03  0.00000000000E+00 0.  1.
         14    1    6    6    0    0  0.29392531997E+02  0.15998045184E+02 -0.46805430661E+02  0.57537872104E+02  0.00000000000E+00 0. -1.
         -5    1    3    3    0  503 -0.18685760483E+03 -0.18847000686E+02  0.11605059555E+03  0.22081848801E+03  0.47000000000E+01 0.  1.
         11    1    4    4    0    0  0.93682333973E+01  0.20097997915E+01  0.13496991297E+01  0.96759898681E+01  0.00000000000E+00 0. -1.
        -12    1    4    4    0    0 -0.13003066538E+03  0.73603045539E+02  0.18105111600E+03  0.23474430527E+03  0.00000000000E+00 0.  1.
</event>
<event>
12    1  0.1066489E+000  0.2202368E+03  0.7818608E-02  0.1134399E+00
         21   -1    0    0  501  502  0.00000000000E+00  0.00000000000E+00  0.23146480623E+03  0.23146480623E+03  0.00000000000E+00 0. -1.
         21   -1    0    0  502  503 -0.00000000000E+00 -0.00000000000E+00 -0.29229536481E+03  0.29229536481E+03  0.00000000000E+00 0. -1.
         -6    2    1    2    0  503  0.97045390029E+02 -0.89524119268E+02  0.11164408572E+03  0.24691834329E+03  0.17627220633E+03 0.  0.
        -24    2    3    3    0    0 -0.11985318480E+01 -0.46117335856E+02  0.29220542476E+01  0.94017763966E+02  0.81869141898E+02 0.  0.
          6    2    1    2  501    0 -0.97045390029E+02  0.89524119268E+02 -0.17247464429E+03  0.27684182775E+03  0.17164358133E+03 0.  0.
         24    2    5    5    0    0 -0.52289608861E+02  0.10145668267E+03 -0.18332776286E+03  0.22903653306E+03  0.76295499120E+02 0.  0.
          5    1    5    5  501    0 -0.44755781168E+02 -0.11932563406E+02  0.10853118574E+02  0.47805294688E+02  0.47000000000E+01 0. -1.
        -13    1    6    6    0    0 -0.61538734437E+02  0.46118764636E+02 -0.77063459614E+02  0.10887025808E+03  0.00000000000E+00 0.  1.
         14    1    6    6    0    0  0.92491255757E+01  0.55337918038E+02 -0.10626430325E+03  0.12016627498E+03  0.00000000000E+00 0. -1.
         -5    1    3    3    0  503  0.98243921877E+02 -0.43406783412E+02  0.10872203147E+03  0.15290057933E+03  0.47000000000E+01 0.  1.
         11    1    4    4    0    0 -0.18599970716E+02 -0.45791962366E+01  0.34190841033E+02  0.39191090306E+02  0.00000000000E+00 0. -1.
        -12    1    4    4    0    0  0.17401438868E+02 -0.41538139619E+02 -0.31268786785E+02  0.54826673661E+02  0.00000000000E+00 0.  1.
</event>
<event>
12    1  0.1066489E+000  0.2606455E+03  0.7818608E-02  0.1106855E+00
         21   -1    0    0  503  502  0.00000000000E+00  0.00000000000E+00  0.11418858814E+04  0.11418858814E+04  0.00000000000E+00 0.  1.
         21   -1    0    0  501  503 -0.00000000000E+00 -0.00000000000E+00 -0.10573301554E+03  0.10573301554E+03  0.00000000000E+00 0. -1.
          6    2    1    2  501    0  0.10946720817E+02  0.19481734231E+03  0.93163944205E+03  0.96741310499E+03  0.17280751764E+03 0.  0.
         24    2    3    3    0    0 -0.29743210977E+02  0.61873236428E+02  0.22205044206E+03  0.24431667660E+03  0.75307925613E+02 0.  0.
         -6    2    1    2    0  502 -0.10946720817E+02 -0.19481734231E+03  0.10451342381E+03  0.28020579195E+03  0.17180978587E+03 0.  0.
        -24    2    5    5    0    0  0.31503522488E+02 -0.18070890883E+03  0.44175768140E+02  0.20494761137E+03  0.80024016739E+02 0.  0.
          5    1    3    3  501    0  0.40689931794E+02  0.13294410588E+03  0.70958899999E+03  0.72309642838E+03  0.47000000000E+01 0. -1.
        -11    1    4    4    0    0 -0.54046917406E+02  0.33478066497E+02  0.12320754078E+03  0.13864324117E+03  0.00000000000E+00 0.  1.
         12    1    4    4    0    0  0.24303706429E+02  0.28395169931E+02  0.98842901287E+02  0.10567343543E+03  0.00000000000E+00 0. -1.
         -5    1    5    5    0  502 -0.42450243305E+02 -0.14108433482E+02  0.60337655669E+02  0.75258180576E+02  0.47000000000E+01 0.  1.
         13    1    6    6    0    0 -0.25647326018E+02 -0.60394632521E+02  0.36301613775E+01  0.65715105119E+02  0.00000000000E+00 0. -1.
        -14    1    6    6    0    0  0.57150848505E+02 -0.12031427631E+03  0.40545606763E+02  0.13923250625E+03  0.00000000000E+00 0.  1.
</event>
<event>
12    1  0.1066489E+000  0.1777843E+03  0.7818608E-02  0.1170006E+00
         21   -1    0    0  503  502  0.00000000000E+00  0.00000000000E+00  0.68282532995E+03  0.68282532995E+03  0.00000000000E+00 0. -1.
         21   -1    0    0  501  503 -0.00000000000E+00 -0.00000000000E+00 -0.68314361639E+02  0.68314361639E+02  0.00000000000E+00 0. -1.
          6    2    1    2  501    0 -0.36202742265E+02  0.27067825543E+02  0.52062236889E+03  0.55008662324E+03  0.17176826353E+03 0.  0.
         24    2    3    3    0    0 -0.12448862497E+02 -0.18133105444E+02  0.11852263966E+03  0.14473041790E+03  0.80096779349E+02 0.  0.
         -6    2    1    2    0  502  0.36202742265E+02 -0.27067825543E+02  0.93888599428E+02  0.20105306835E+03  0.17194173857E+03 0.  0.
        -24    2    5    5    0    0  0.33412459932E+02 -0.83962844991E+02  0.51065740917E+02  0.12963377037E+03  0.77659852605E+02 0.  0.
          5    1    3    3  501    0 -0.23753879768E+02  0.45200930987E+02  0.40209972923E+03  0.40535620535E+03  0.47000000000E+01 0. -1.
        -13    1    4    4    0    0 -0.22307267856E+02  0.15626917452E+02  0.74705330498E+01  0.28242231008E+02  0.00000000000E+00 0.  1.
         14    1    4    4    0    0  0.98584053595E+01 -0.33760022896E+02  0.11105210661E+03  0.11648818689E+03  0.00000000000E+00 0. -1.
         -5    1    5    5    0  502  0.27902823328E+01  0.56895019448E+02  0.42822858511E+02  0.71419297984E+02  0.47000000000E+01 0.  1.
         13    1    6    6    0    0 -0.24986282516E+02 -0.26357392740E+02  0.22747062347E+02  0.42853883271E+02  0.00000000000E+00 0. -1.
        -14    1    6    6    0    0  0.58398742448E+02 -0.57605452251E+02  0.28318678571E+02  0.86779887097E+02  0.00000000000E+00 0.  1.
</event>
<event>
12    1  0.1066489E+000  0.3575798E+03  0.7818608E-02  0.1059621E+00
         21   -1    0    0  503  502  0.00000000000E+00  0.00000000000E+00  0.28247874689E+03  0.28247874689E+03  0.00000000000E+00 0. -1.
         21   -1    0    0  501  503 -0.00000000000E+00 -0.00000000000E+00 -0.47770313777E+03  0.47770313777E+03  0.00000000000E+00 0.  1.
          6    2    1    2  501    0 -0.29644659579E+03  0.10073037139E+03 -0.18619202031E+03  0.40248804850E+03  0.17117817875E+03 0.  0.
         24    2    3    3    0    0 -0.26240832486E+03  0.25970605148E+02 -0.15059663592E+03  0.31284013762E+03  0.75213055140E+02 0.  0.
         -6    2    1    2    0  502  0.29644659579E+03 -0.10073037139E+03 -0.90323705736E+01  0.35769383616E+03  0.17273130821E+03 0.  0.
        -24    2    5    5    0    0  0.64318522078E+02 -0.61309193343E+02  0.18675147261E+02  0.12057093886E+03  0.79327805344E+02 0.  0.
          5    1    3    3  501    0 -0.34038270928E+02  0.74759766238E+02 -0.35595384388E+02  0.89647910881E+02  0.47000000000E+01 0. -1.
        -11    1    4    4    0    0 -0.24494640683E+03  0.30318320491E+02 -0.15835085078E+03  0.29324551953E+03  0.00000000000E+00 0.  1.
         12    1    4    4    0    0 -0.17461918027E+02 -0.43477153434E+01  0.77542148620E+01  0.19594618088E+02  0.00000000000E+00 0. -1.
         -5    1    5    5    0  502  0.23212807371E+03 -0.39421178042E+02 -0.27707517834E+02  0.23712289731E+03  0.47000000000E+01 0.  1.
         13    1    6    6    0    0 -0.12285798746E+02  0.64421294759E+01 -0.63962585589E+01  0.15275928992E+02  0.00000000000E+00 0. -1.
        -14    1    6    6    0    0  0.76604320823E+02 -0.67751322819E+02  0.25071405819E+02  0.10529500986E+03  0.00000000000E+00 0.  1.
</event>
<event>
12    1  0.1066489E+000  0.3944751E+03  0.7818608E-02  0.1045822E+00
         21   -1    0    0  503  502  0.00000000000E+00  0.00000000000E+00  0.17800439032E+03  0.17800439032E+03  0.00000000000E+00 0.  1.
         21   -1    0    0  501  503 -0.00000000000E+00 -0.00000000000E+00 -0.91598991667E+03  0.91598991667E+03  0.00000000000E+00 0.  1.
          6    2    1    2  501    0 -0.27291923193E+02 -0.35369918344E+03 -0.24769114190E+03  0.46470962167E+03  0.16957644075E+03 0.  0.
         24    2    3    3    0    0 -0.20873153675E+02 -0.23459794559E+03 -0.24081271341E+03  0.34514496034E+03  0.75248894291E+02 0.  0.
         -6    2    1    2    0  502  0.27291923193E+02  0.35369918344E+03 -0.49029438445E+03  0.62928468531E+03  0.17251860859E+03 0.  0.
        -24    2    5    5    0    0 -0.38766329388E+02  0.26567856027E+03 -0.31367294484E+03  0.42112958504E+03  0.82894423187E+02 0.  0.
          5    1    3    3  501    0 -0.64187695181E+01 -0.11910123785E+03 -0.68784284906E+01  0.11956466132E+03  0.47000000000E+01 0. -1.
        -11    1    4    4    0    0 -0.11677451899E+02 -0.24056793992E+01 -0.22871356205E+01  0.12140064480E+02  0.00000000000E+00 0.  1.
         12    1    4    4    0    0 -0.91957017758E+01 -0.23219226619E+03 -0.23852557779E+03  0.33300489586E+03  0.00000000000E+00 0. -1.
         -5    1    5    5    0  502  0.66058252581E+02  0.88020623172E+02 -0.17662143961E+03  0.20815510027E+03  0.47000000000E+01 0.  1.
         13    1    6    6    0    0 -0.20606608089E+02  0.64248227279E+02 -0.32812103126E+02  0.75027335798E+02  0.00000000000E+00 0. -1.
        -14    1    6    6    0    0 -0.18159721298E+02  0.20143033299E+03 -0.28086084171E+03  0.34610224925E+03  0.00000000000E+00 0.  1.
</event>
<event>
12    1  0.1066489E+000  0.1998735E+03  0.7818608E-02  0.1150144E+00
         21   -1    0    0  503  502  0.00000000000E+00  0.00000000000E+00  0.23430951805E+03  0.23430951805E+03  0.00000000000E+00 0.  1.
         21   -1    0    0  501  503 -0.00000000000E+00 -0.00000000000E+00 -0.17981266271E+03  0.17981266271E+03  0.00000000000E+00 0.  1.
          6    2    1    2  501    0 -0.10412175794E+03  0.31279578030E+02  0.77223890326E+02  0.21296071736E+03  0.16603910811E+03 0.  0.
         24    2    3    3    0    0 -0.19010115549E+02 -0.23659835892E+00 -0.12928715489E+02  0.84949610887E+02  0.81779240848E+02 0.  0.
         -6    2    1    2    0  502  0.10412175794E+03 -0.31279578030E+02 -0.22727034991E+02  0.20116146341E+03  0.16771900239E+03 0.  0.
        -24    2    5    5    0    0  0.11185094862E+03 -0.18181758460E+02  0.33598004169E+02  0.14263033235E+03  0.79833418915E+02 0.  0.
          5    1    3    3  501    0 -0.85111642389E+02  0.31516176389E+02  0.90152605815E+02  0.12801110647E+03  0.47000000000E+01 0. -1.
        -13    1    4    4    0    0  0.18888317238E+02 -0.48532067110E+01  0.24614886729E+02  0.31404056937E+02  0.00000000000E+00 0.  1.
         14    1    4    4    0    0 -0.37898432787E+02  0.46166083521E+01 -0.37543602217E+02  0.53545553950E+02  0.00000000000E+00 0. -1.
         -5    1    5    5    0  502 -0.77291906817E+01 -0.13097819570E+02 -0.56325039159E+02  0.58531131053E+02  0.47000000000E+01 0.  1.
         11    1    6    6    0    0  0.34209581653E+02 -0.42104052621E+02  0.28367413818E+02  0.61218925919E+02  0.00000000000E+00 0. -1.
        -12    1    6    6    0    0  0.77641366967E+02  0.23922294161E+02  0.52305903509E+01  0.81411406435E+02  0.00000000000E+00 0.  1.
</event>
<event>
12    1  0.1066489E+000  0.2359797E+03  0.7818608E-02  0.1122649E+00
         21   -1    0    0  503  502  0.00000000000E+00  0.00000000000E+00  0.79553432767E+03  0.79553432767E+03  0.00000000000E+00 0.  1.
         21   -1    0    0  501  503 -0.00000000000E+00 -0.00000000000E+00 -0.72738073370E+02  0.72738073370E+02  0.00000000000E+00 0.  1.
          6    2    1    2  501    0  0.15937254881E+03 -0.40851608067E+01  0.27390662614E+03  0.36154014639E+03  0.17398315940E+03 0.  0.
         24    2    3    3    0    0  0.19861201738E+02 -0.33160997097E+01  0.49479038726E+02  0.97241377174E+02  0.81254207951E+02 0.  0.
         -6    2    1    2    0  502 -0.15937254881E+03  0.40851608067E+01  0.44888962816E+03  0.50673225465E+03  0.17279867413E+03 0.  0.
        -24    2    5    5    0    0 -0.61560253621E+02  0.36299900786E+02  0.34076741310E+03  0.35734169956E+03  0.80394731087E+02 0.  0.
          5    1    3    3  501    0  0.13951134707E+03 -0.76906109692E+00  0.22442758741E+03  0.26429876922E+03  0.47000000000E+01 0. -1.
        -13    1    4    4    0    0  0.21763419054E+02 -0.28196056642E+02 -0.62671367798E+01  0.36165467265E+02  0.00000000000E+00 0.  1.
         14    1    4    4    0    0 -0.19022173160E+01  0.24879956932E+02  0.55746175506E+02  0.61075909909E+02  0.00000000000E+00 0. -1.
         -5    1    5    5    0  502 -0.97812295190E+02 -0.32214739979E+02  0.10812221506E+03  0.14939055510E+03  0.47000000000E+01 0.  1.
         11    1    6    6    0    0 -0.79989206014E+02  0.33854487700E+02  0.24912426699E+03  0.26383195375E+03  0.00000000000E+00 0. -1.
        -12    1    6    6    0    0  0.18428952393E+02  0.24454130858E+01  0.91643146110E+02  0.93509745805E+02  0.00000000000E+00 0.  1.
</event>
<event>
12    1  0.1066489E+000  0.2262972E+03  0.7818608E-02  0.1129473E+00
         21   -1    0    0  501  502  0.00000000000E+00  0.00000000000E+00  0.26583447451E+03  0.26583447451E+03  0.00000000000E+00 0.  1.
         21   -1    0    0  502  503 -0.00000000000E+00 -0.00000000000E+00 -0.19706179197E+03  0.19706179197E+03  0.00000000000E+00 0.  1.
         -6    2    1    2    0  503 -0.15558387525E+02 -0.14576002243E+03  0.72483638089E+02  0.23656860258E+03  0.17094671209E+03 0.  0.
        -24    2    3    3    0    0 -0.38512205931E+02 -0.16202530684E+03  0.87266193219E+02  0.20444304901E+03  0.80288117088E+02 0.  0.
          6    2    1    2  501    0  0.15558387525E+02  0.14576002243E+03 -0.37109555528E+01  0.22632766390E+03  0.17240183495E+03 0.  0.
         24    2    5    5    0    0  0.13258609809E+02 -0.27347946200E+01 -0.30925871863E+01  0.77739400404E+02  0.76489087091E+02 0.  0.
          5    1    5    5  501    0  0.22997777169E+01  0.14849481705E+03 -0.61836836650E+00  0.14858826350E+03  0.47000000000E+01 0. -1.
        -11    1    6    6    0    0  0.10325754716E+02  0.16648253248E+02  0.32012742764E+02  0.37531336853E+02  0.00000000000E+00 0.  1.
         12    1    6    6    0    0  0.29328550923E+01 -0.19383047868E+02 -0.35105329950E+02  0.40208063551E+02  0.00000000000E+00 0. -1.
         -5    1    3    3    0  503  0.22953818405E+02  0.16265284408E+02 -0.14782555130E+02  0.32125553574E+02  0.47000000000E+01 0.  1.
         11    1    4    4    0    0 -0.57639730765E+02 -0.12491936531E+03  0.44290787838E+02  0.14452979028E+03  0.00000000000E+00 0. -1.
        -12    1    4    4    0    0  0.19127524834E+02 -0.37105941533E+02  0.42975405381E+02  0.59913258724E+02  0.00000000000E+00 0.  1.
</event>
<event>
12    1  0.1066489E+000  0.1876396E+03  0.7818608E-02  0.1160874E+00
         21   -1    0    0  501  502  0.00000000000E+00  0.00000000000E+00  0.73324840516E+02  0.73324840516E+02  0.00000000000E+00 0. -1.
         21   -1    0    0  502  503 -0.00000000000E+00 -0.00000000000E+00 -0.54367581099E+03  0.54367581099E+03  0.00000000000E+00 0. -1.
         -6    2    1    2    0  503  0.13902662032E+02  0.71595645343E+02 -0.12795066628E+03  0.22711227807E+03  0.17288549217E+03 0.  0.
        -24    2    3    3    0    0 -0.57681410761E+01 -0.25514637450E+02 -0.81657389995E+02  0.11764764931E+03  0.80552913495E+02 0.  0.
          6    2    1    2  501    0 -0.13902662032E+02 -0.71595645343E+02 -0.34240030419E+03  0.38988837344E+03  0.17162678983E+03 0.  0.
         24    2    5    5    0    0  0.38109330315E+02 -0.78106606635E+02 -0.30017749176E+03  0.32241618766E+03  0.79326593549E+02 0.  0.
          5    1    5    5  501    0 -0.52011992347E+02  0.65109612916E+01 -0.42222812431E+02  0.67472185784E+02  0.47000000000E+01 0. -1.
        -11    1    6    6    0    0  0.29676975110E+02  0.73988106875E+01 -0.10014971451E+03  0.10471595183E+03  0.00000000000E+00 0.  1.
         12    1    6    6    0    0  0.84323552054E+01 -0.85505417322E+02 -0.20002777726E+03  0.21770023583E+03  0.00000000000E+00 0. -1.
         -5    1    3    3    0  503  0.19670803108E+02  0.97110282793E+02 -0.46293276285E+02  0.10946462875E+03  0.47000000000E+01 0.  1.
         11    1    4    4    0    0 -0.42178812338E+02 -0.88498531351E+01 -0.31066576770E+02  0.53127246333E+02  0.00000000000E+00 0. -1.
        -12    1    4    4    0    0  0.36410671261E+02 -0.16664784315E+02 -0.50590813225E+02  0.64520402980E+02  0.00000000000E+00 0.  1.
</event>
<event>
12    1  0.1066489E+000  0.1839205E+03  0.7818608E-02  0.1164300E+00
         21   -1    0    0  503  502  0.00000000000E+00  0.00000000000E+00  0.10902082089E+03  0.10902082089E+03  0.00000000000E+00 0.  1.
         21   -1    0    0  501  503 -0.00000000000E+00 -0.00000000000E+00 -0.32612308419E+03  0.32612308419E+03  0.00000000000E+00 0.  1.
          6    2    1    2  501    0 -0.43617449344E+02  0.48417350442E+02 -0.15930442902E+03  0.24332008461E+03  0.17198849019E+03 0.  0.
         24    2    3    3    0    0 -0.68083486862E+02  0.64798131577E+02 -0.62841962202E+02  0.14235467228E+03  0.86496135555E+02 0.  0.
         -6    2    1    2    0  502  0.43617449344E+02 -0.48417350442E+02 -0.57797834279E+02  0.19182382047E+03  0.17090660239E+03 0.  0.
        -24    2    5    5    0    0  0.28236751616E+02 -0.11256315093E+02  0.34682825705E+02  0.90867043171E+02  0.78293693005E+02 0.  0.
          5    1    3    3  501    0  0.24466037517E+02 -0.16380781136E+02 -0.96462466822E+02  0.10096541233E+03  0.47000000000E+01 0. -1.
        -13    1    4    4    0    0 -0.67830498604E+02  0.44723708056E+02 -0.81404224720E+02  0.11501232284E+03  0.00000000000E+00 0.  1.
         14    1    4    4    0    0 -0.25298825805E+00  0.20074423521E+02  0.18562262518E+02  0.27342349433E+02  0.00000000000E+00 0. -1.
         -5    1    5    5    0  502  0.15380697728E+02 -0.37161035349E+02 -0.92480659984E+02  0.10095677730E+03  0.47000000000E+01 0.  1.
         13    1    6    6    0    0 -0.19749548904E+02  0.16732812873E+02  0.21796386011E+02  0.33839535335E+02  0.00000000000E+00 0. -1.
        -14    1    6    6    0    0  0.47986300520E+02 -0.27989127966E+02  0.12886439693E+02  0.57027507835E+02  0.00000000000E+00 0.  1.
</event>
<event>
12    1  0.1066489E+000  0.2561220E+03  0.7818608E-02  0.1109663E+00
         21   -1    0    0  501  502  0.00000000000E+00  0.00000000000E+00  0.90091271713E+02  0.90091271713E+02  0.00000000000E+00 0.  1.
         21   -1    0    0  502  503 -0.00000000000E+00 -0.00000000000E+00 -0.73189029585E+03  0.73189029585E+03  0.00000000000E+00 0.  1.
         -6    2    1    2    0  503 -0.96205255723E+02 -0.16373287059E+03 -0.36135851943E+03  0.44292036075E+03  0.17185622555E+03 0.  0.
        -24    2    3    3    0    0 -0.12385345639E+03 -0.17189606705E+03 -0.32982529214E+03  0.39993786198E+03  0.79231518913E+02 0.  0.
          6    2    1    2  501    0  0.96205255723E+02  0.16373287059E+03 -0.28044050471E+03  0.37906120682E+03  0.17022519699E+03 0.  0.
         24    2    5    5    0    0 -0.12963061525E+01  0.87517499573E+02 -0.19572252825E+03  0.22901267173E+03  0.80489145883E+02 0.  0.
          5    1    5    5  501    0  0.97501561875E+02  0.76215371019E+02 -0.84717976453E+02  0.15004853509E+03  0.47000000000E+01 0. -1.
        -11    1    6    6    0    0  0.22424485973E+02  0.13187749198E+02 -0.10548098758E+02  0.28071991156E+02  0.00000000000E+00 0.  1.
         12    1    6    6    0    0 -0.23720792125E+02  0.74329750375E+02 -0.18517442950E+03  0.20094068057E+03  0.00000000000E+00 0. -1.
         -5    1    3    3    0  503  0.27648200665E+02  0.81631964569E+01 -0.31533227293E+02  0.42982498763E+02  0.47000000000E+01 0.  1.
         13    1    4    4    0    0 -0.22962745918E+02 -0.96903289490E+02 -0.16366316247E+03  0.19158070352E+03  0.00000000000E+00 0. -1.
        -14    1    4    4    0    0 -0.10089071047E+03 -0.74992777559E+02 -0.16616212967E+03  0.20835715846E+03  0.00000000000E+00 0.  1.
</event>
<event>
12    1  0.1066489E+000  0.2270125E+03  0.7818608E-02  0.1128880E+00
         21   -1    0    0  501  502  0.00000000000E+00  0.00000000000E+00  0.10605003327E+03  0.10605003327E+03  0.00000000000E+00 0.  1.
         21   -1    0    0  502  503 -0.00000000000E+00 -0.00000000000E+00 -0.53894407367E+03  0.53894407367E+03  0.00000000000E+00 0.  1.
         -6    2    1    2    0  503 -0.14847714685E+03 -0.88492806948E+01 -0.31921682657E+03  0.39170658510E+03  0.17149604527E+03 0.  0.
        -24    2    3    3    0    0 -0.45967961428E+02  0.18807312447E+02 -0.60708693572E+02  0.11220423258E+03  0.80233882214E+02 0.  0.
          6    2    1    2  501    0  0.14847714685E+03  0.88492806948E+01 -0.11367721384E+03  0.25328752183E+03  0.17061150860E+03 0.  0.
         24    2    5    5    0    0  0.53210169359E+02 -0.40961489219E+02 -0.10132649521E+03  0.14497528776E+03  0.79003858809E+02 0.  0.
          5    1    5    5  501    0  0.95266977488E+02  0.49810769914E+02 -0.12350718621E+02  0.10831223407E+03  0.47000000000E+01 0. -1.
        -13    1    6    6    0    0 -0.60456472105E+00 -0.11204684514E+02 -0.78630052426E+02  0.79426668054E+02  0.00000000000E+00 0.  1.
         14    1    6    6    0    0  0.53814734080E+02 -0.29756804705E+02 -0.22696442789E+02  0.65548619708E+02  0.00000000000E+00 0. -1.
         -5    1    3    3    0  503 -0.10250918542E+03 -0.27656593141E+02 -0.25850813299E+03  0.27950235252E+03  0.47000000000E+01 0.  1.
         13    1    4    4    0    0 -0.60555617982E+02 -0.90368760298E+01 -0.29699979761E+02  0.68049517231E+02  0.00000000000E+00 0. -1.
        -14    1    4    4    0    0  0.14587656554E+02  0.27844188477E+02 -0.31008713811E+02  0.44154715352E+02  0.00000000000E+00 0.  1.
</event>
<event>
12    1  0.1066489E+000  0.1804225E+03  0.7818608E-02  0.1167582E+00
         21   -1    0    0  501  502  0.00000000000E+00  0.00000000000E+00  0.99791019839E+02  0.99791019839E+02  0.00000000000E+00 0. -1.
         21   -1    0    0  502  503 -0.00000000000E+00 -0.00000000000E+00 -0.36452309165E+03  0.36452309165E+03  0.00000000000E+00 0. -1.
         -6    2    1    2    0  503 -0.28737556446E+02 -0.44574289947E+02 -0.20925254626E+03  0.27629496607E+03  0.17245163289E+03 0.  0.
        -24    2    3    3    0    0 -0.22409788267E+02  0.23816578471E+02 -0.45179899288E+02  0.98364431823E+02  0.81024132997E+02 0.  0.
          6    2    1    2  501    0  0.28737556446E+02  0.44574289947E+02 -0.55479525552E+02  0.18801914542E+03  0.17164063276E+03 0.  0.
         24    2    5    5    0    0 -0.24849810354E+02  0.77019684723E+02 -0.53672555237E+02  0.12517278781E+03  0.78980622393E+02 0.  0.
          5    1    5    5  501    0  0.53587366800E+02 -0.32445394777E+02 -0.18069703158E+01  0.62846357607E+02  0.47000000000E+01 0. -1.
        -13    1    6    6    0    0  0.92781010368E+01  0.52114388621E+02  0.46696856007E+01  0.53139426265E+02  0.00000000000E+00 0.  1.
         14    1    6    6    0    0 -0.34127911391E+02  0.24905296103E+02 -0.58342240837E+02  0.72033361547E+02  0.00000000000E+00 0. -1.
         -5    1    3    3    0  503 -0.63277681796E+01 -0.68390868418E+02 -0.16407264697E+03  0.17793053425E+03  0.47000000000E+01 0.  1.
         13    1    4    4    0    0  0.15419471553E+02  0.38882579031E+02 -0.67409557619E+01  0.42368095775E+02  0.00000000000E+00 0. -1.
        -14    1    4    4    0    0 -0.37829259820E+02 -0.15066000560E+02 -0.38438943526E+02  0.55996336048E+02  0.00000000000E+00 0.  1.
</event>
<event>
12    1  0.1066489E+000  0.1982579E+03  0.7818608E-02  0.1151873E+00
         21   -1    0    0  503  502  0.00000000000E+00  0.00000000000E+00  0.50357886645E+03  0.50357886645E+03  0.00000000000E+00 0. -1.
         21   -1    0    0  501  503 -0.00000000000E+00 -0.00000000000E+00 -0.77377152484E+02  0.77377152484E+02  0.00000000000E+00 0. -1.
          6    2    1    2  501    0 -0.70838660697E+01  0.98184841629E+02  0.19095741293E+03  0.27526517452E+03  0.17209223826E+03 0.  0.
         24    2    3    3    0    0 -0.54852740502E+02  0.91638479027E+01  0.83576046055E+02  0.12775432529E+03  0.79015270092E+02 0.  0.
         -6    2    1    2    0  502  0.70838660697E+01 -0.98184841629E+02  0.23524430104E+03  0.30569084441E+03  0.16857214154E+03 0.  0.
        -24    2    5    5    0    0 -0.39679381047E+02 -0.42453015849E+01  0.12616428606E+03  0.15425776305E+03  0.79281489122E+02 0.  0.
          5    1    3    3  501    0  0.47768874433E+02  0.89020993726E+02  0.10738136688E+03  0.14751084923E+03  0.47000000000E+01 0. -1.
        -13    1    4    4    0    0 -0.11153818514E+02 -0.32637155378E+02  0.42103750656E+02  0.54427175178E+02  0.00000000000E+00 0.  1.
         14    1    4    4    0    0 -0.43698921988E+02  0.41801003280E+02  0.41472295399E+02  0.73327150114E+02  0.00000000000E+00 0. -1.
         -5    1    5    5    0  502  0.46763247116E+02 -0.93939540044E+02  0.10908001498E+03  0.15143308136E+03  0.47000000000E+01 0.  1.
         13    1    6    6    0    0 -0.16703055267E+02 -0.31534645234E+02  0.17222265645E+02  0.39623633595E+02  0.00000000000E+00 0. -1.
        -14    1    6    6    0    0 -0.22976325779E+02  0.27289343649E+02  0.10894202042E+03  0.11463412946E+03  0.00000000000E+00 0.  1.
</event>
<event>
12    1  0.1066489E+000  0.2350707E+03  0.7818608E-02  0.1123163E+00
         21   -1    0    0  501  502  0.00000000000E+00  0.00000000000E+00  0.89180068289E+02  0.89180068289E+02  0.00000000000E+00 0.  1.
         21   -1    0    0  502  503 -0.00000000000E+00 -0.00000000000E+00 -0.63762002239E+03  0.63762002239E+03  0.00000000000E+00 0.  1.
         -6    2    1    2    0  503 -0.16052897703E+03  0.82780042020E+01 -0.21222277608E+03  0.31669661003E+03  0.17152305471E+03 0.  0.
        -24    2    3    3    0    0 -0.10115272167E+03  0.72335158205E+02 -0.12583902341E+03  0.19376125545E+03  0.79017188564E+02 0.  0.
          6    2    1    2  501    0  0.16052897703E+03 -0.82780042020E+01 -0.33621717802E+03  0.41010348065E+03  0.17118643703E+03 0.  0.
         24    2    5    5    0    0  0.18063453257E+03  0.22529587201E+01 -0.33257020896E+03  0.38664021303E+03  0.79080972861E+02 0.  0.
          5    1    5    5  501    0 -0.20105555542E+02 -0.10530962922E+02 -0.36469690612E+01  0.23463267612E+02  0.47000000000E+01 0. -1.
        -13    1    6    6    0    0  0.64747311867E+02 -0.31085000351E+02 -0.85129958654E+02  0.11138043590E+03  0.00000000000E+00 0.  1.
         14    1    6    6    0    0  0.11588722070E+03  0.33337959071E+02 -0.24744025030E+03  0.27525977713E+03  0.00000000000E+00 0. -1.
         -5    1    3    3    0  503 -0.59376255360E+02 -0.64057154003E+02 -0.86383752676E+02  0.12293535458E+03  0.47000000000E+01 0.  1.
         11    1    4    4    0    0 -0.27772410838E+02 -0.16348615427E+02 -0.28017597566E+02  0.42703276261E+02  0.00000000000E+00 0. -1.
        -12    1    4    4    0    0 -0.73380310832E+02  0.88683773632E+02 -0.97821425843E+02  0.15105797919E+03  0.00000000000E+00 0.  1.
</event>
<event>
12    1  0.1066489E+000  0.1893909E+03  0.7818608E-02  0.1159174E+00
         21   -1    0    0  503  502  0.00000000000E+00  0.00000000000E+00  0.15258978914E+04  0.15258978914E+04  0.00000000000E+00 0. -1.
         21   -1    0    0  501  503 -0.00000000000E+00 -0.00000000000E+00 -0.44482494957E+02  0.44482494957E+02  0.00000000000E+00 0. -1.
          6    2    1    2  501    0  0.75122946836E+02  0.16024304462E+02  0.19964701985E+03  0.27469559299E+03  0.17233252972E+03 0.  0.
         24    2    3    3    0    0  0.10428029928E+03  0.52110043091E+02  0.15110370278E+03  0.20738381567E+03  0.81153438618E+02 0.  0.
         -6    2    1    2    0  502 -0.75122946836E+02 -0.16024304462E+02  0.12817683766E+04  0.12956847934E+04  0.17311463559E+03 0.  0.
        -24    2    5    5    0    0 -0.63373874364E+02 -0.50631842729E+02  0.12066622532E+04  0.12120263080E+04  0.79963406908E+02 0.  0.
          5    1    3    3  501    0 -0.29157352442E+02 -0.36085738629E+02  0.48543317076E+02  0.67311777324E+02  0.47000000000E+01 0. -1.
        -13    1    4    4    0    0  0.59691167461E+02  0.51775172221E+02  0.14104858917E+03  0.16167377165E+03  0.00000000000E+00 0.  1.
         14    1    4    4    0    0  0.44589131817E+02  0.33487087022E+00  0.10055113605E+02  0.45710044019E+02  0.00000000000E+00 0. -1.
         -5    1    5    5    0  502 -0.11749072472E+02  0.34607538267E+02  0.75106123362E+02  0.83658485376E+02  0.47000000000E+01 0.  1.
         11    1    6    6    0    0 -0.80299916449E+01 -0.20353945225E+02  0.81680292002E+03  0.81709593929E+03  0.00000000000E+00 0. -1.
        -12    1    6    6    0    0 -0.55343882719E+02 -0.30277897504E+02  0.38985933322E+03  0.39493036871E+03  0.00000000000E+00 0.  1.
</event>
<event>
12    1  0.1066489E+000  0.1887091E+03  0.7818608E-02  0.1160672E+00
         21   -1    0    0  501  502  0.00000000000E+00  0.00000000000E+00  0.46223363348E+02  0.46223363348E+02  0.00000000000E+00 0.  1.
         21   -1    0    0  502  503 -0.00000000000E+00 -0.00000000000E+00 -0.75288647625E+03  0.75288647625E+03  0.00000000000E+00 0.  1.
         -6    2    1    2    0  503  0.22116468906E+02 -0.73874633026E+02 -0.36205531996E+03  0.40621590596E+03  0.16727434932E+03 0.  0.
        -24    2    3    3    0    0  0.29887672046E+02  0.58088682251E+01 -0.27410259946E+03  0.28718808142E+03  0.80110818188E+02 0.  0.
          6    2    1    2  501    0 -0.22116468906E+02  0.73874633026E+02 -0.34460779294E+03  0.39289393364E+03  0.17223388904E+03 0.  0.
         24    2    5    5    0    0  0.51367091508E+02  0.27561041083E+02 -0.22352808616E+03  0.24380614794E+03  0.77964372609E+02 0.  0.
          5    1    5    5  501    0 -0.73483560413E+02  0.46313591943E+02 -0.12107970678E+03  0.14908778569E+03  0.47000000000E+01 0. -1.
        -11    1    6    6    0    0  0.26242543309E+02  0.53814336195E+02 -0.15649784006E+03  0.16755962462E+03  0.00000000000E+00 0.  1.
         12    1    6    6    0    0  0.25124548199E+02 -0.26253295112E+02 -0.67030246106E+02  0.76246523327E+02  0.00000000000E+00 0. -1.
         -5    1    3    3    0  503 -0.77712031407E+01 -0.79683501251E+02 -0.87952720500E+02  0.11902782453E+03  0.47000000000E+01 0.  1.
         11    1    4    4    0    0 -0.26819470911E+02 -0.64141883333E+01 -0.81459635888E+02  0.86000570410E+02  0.00000000000E+00 0. -1.
        -12    1    4    4    0    0  0.56707142957E+02  0.12223056558E+02 -0.19264296357E+03  0.20118751101E+03  0.00000000000E+00 0.  1.
</event>
<event>
12    1  0.1066489E+000  0.2588209E+03  0.7818608E-02  0.1109609E+00
         21   -1    0    0  501  502  0.00000000000E+00  0.00000000000E+00  0.41031135164E+03  0.41031135164E+03  0.00000000000E+00 0. -1.
         21   -1    0    0  502  503 -0.00000000000E+00 -0.00000000000E+00 -0.18262925283E+03  0.18262925283E+03  0.00000000000E+00 0. -1.
         -6    2    1    2    0  503 -0.11274255807E+03  0.15636148496E+03  0.22881477494E+03  0.34546269381E+03  0.17270921574E+03 0.  0.
        -24    2    3    3    0    0 -0.49347284989E+02  0.17107440307E+02  0.45730237292E+02  0.10681507172E+03  0.81181191750E+02 0.  0.
          6    2    1    2  501    0  0.11274255807E+03 -0.15636148496E+03 -0.11326761353E+01  0.24747791066E+03  0.15519096278E+03 0.  0.
         24    2    5    5    0    0  0.10166667401E+03 -0.61900752732E+02  0.32865992319E+02  0.14636656313E+03  0.78582323454E+02 0.  0.
          5    1    5    5  501    0  0.11075884058E+02 -0.94460732232E+02 -0.33998668455E+02  0.10111134752E+03  0.47000000000E+01 0. -1.
        -11    1    6    6    0    0  0.61877597345E+02 -0.39331135262E+01 -0.11735978593E+02  0.63103404256E+02  0.00000000000E+00 0.  1.
         12    1    6    6    0    0  0.39789076665E+02 -0.57967639206E+02  0.44601970913E+02  0.83263158878E+02  0.00000000000E+00 0. -1.
         -5    1    3    3    0  503 -0.63395273079E+02  0.13925404466E+03  0.18308453765E+03  0.23864762209E+03  0.47000000000E+01 0.  1.
         11    1    4    4    0    0  0.26432207799E+01  0.33726764240E+02 -0.25741538305E+01  0.33927975332E+02  0.00000000000E+00 0. -1.
        -12    1    4    4    0    0 -0.51990505769E+02 -0.16619323933E+02  0.48304391122E+02  0.72887096388E+02  0.00000000000E+00 0.  1.
</event>
<event>
12    1  0.1066489E+000  0.1894132E+03  0.7818608E-02  0.1163355E+00
         21   -1    0    0  503  502  0.00000000000E+00  0.00000000000E+00  0.58797415480E+02  0.58797415480E+02  0.00000000000E+00 0. -1.
         21   -1    0    0  501  503 -0.00000000000E+00 -0.00000000000E+00 -0.60979035189E+03  0.60979035189E+03  0.00000000000E+00 0. -1.
          6    2    1    2  501    0 -0.79436612281E+02  0.12624040681E+02 -0.18605272789E+03  0.26550511218E+03  0.17148704111E+03 0.  0.
         24    2    3    3    0    0 -0.96341114244E+01 -0.41743790938E+02 -0.43174104816E+02  0.97384199829E+02  0.76054709682E+02 0.  0.
         -6    2    1    2    0  502  0.79436612281E+02 -0.12624040681E+02 -0.36494020853E+03  0.40308265519E+03  0.15107855354E+03 0.  0.
        -24    2    5    5    0    0  0.38455578507E+02 -0.42302111534E+02 -0.13110841743E+03  0.16379281097E+03  0.79814582913E+02 0.  0.
          5    1    3    3  501    0 -0.69802500856E+02  0.54367831619E+02 -0.14287862307E+03  0.16812091236E+03  0.47000000000E+01 0. -1.
        -13    1    4    4    0    0 -0.29247993424E+02  0.10815850374E+02 -0.14838640252E+02  0.34534229153E+02  0.00000000000E+00 0.  1.
         14    1    4    4    0    0  0.19613882000E+02 -0.52559641312E+02 -0.28335464564E+02  0.62849970676E+02  0.00000000000E+00 0. -1.
         -5    1    5    5    0  502  0.40981033773E+02  0.29678070853E+02 -0.23383179110E+03  0.23928984422E+03  0.47000000000E+01 0.  1.
         13    1    6    6    0    0  0.63058326263E+02 -0.35412154497E+02 -0.91005724049E+02  0.11624291379E+03  0.00000000000E+00 0. -1.
        -14    1    6    6    0    0 -0.24602747756E+02 -0.68899570373E+01 -0.40102693380E+02  0.47549897176E+02  0.00000000000E+00 0.  1.
</event>
<event>
12    1  0.1066489E+000  0.2619562E+03  0.7818608E-02  0.1106048E+00
         21   -1    0    0  503  502  0.00000000000E+00  0.00000000000E+00  0.71314012290E+03  0.71314012290E+03  0.00000000000E+00 0.  1.
         21   -1    0    0  501  503 -0.00000000000E+00 -0.00000000000E+00 -0.96742535155E+02  0.96742535155E+02  0.00000000000E+00 0.  1.
          6    2    1    2  501    0 -0.27941707628E+02 -0.19521900104E+03  0.27400069268E+03  0.37907445460E+03  0.17242350521E+03 0.  0.
         24    2    3    3    0    0  0.40688361528E+01 -0.15221402880E+03  0.10467742575E+03  0.20140464491E+03  0.80129904160E+02 0.  0.
         -6    2    1    2    0  502  0.27941707628E+02  0.19521900104E+03  0.34239689506E+03  0.43080820345E+03  0.17166501397E+03 0.  0.
        -24    2    5    5    0    0 -0.67810698306E+00  0.21294982792E+03  0.28732785060E+03  0.36609216472E+03  0.78218222330E+02 0.  0.
          5    1    3    3  501    0 -0.32010543781E+02 -0.43004972248E+02  0.16932326693E+03  0.17766980969E+03  0.47000000000E+01 0. -1.
        -13    1    4    4    0    0  0.23496068786E+02 -0.33924810818E+02 -0.14640934215E+01  0.41292875983E+02  0.00000000000E+00 0.  1.
         14    1    4    4    0    0 -0.19427232633E+02 -0.11828921798E+03  0.10614151917E+03  0.16011176893E+03  0.00000000000E+00 0. -1.
         -5    1    5    5    0  502  0.28619814611E+02 -0.17730826877E+02  0.55069044468E+02  0.64716038729E+02  0.47000000000E+01 0.  1.
         13    1    6    6    0    0  0.15391966564E+02  0.15967602186E+03  0.25635231792E+03  0.30240677158E+03  0.00000000000E+00 0. -1.
        -14    1    6    6    0    0 -0.16070073547E+02  0.53273806058E+02  0.30975532673E+02  0.63685393145E+02  0.00000000000E+00 0.  1.
</event>
<event>
12    1  0.1066489E+000  0.2330976E+03  0.7818608E-02  0.1124510E+00
         21   -1    0    0  501  502  0.00000000000E+00  0.00000000000E+00  0.65606195079E+03  0.65606195079E+03  0.00000000000E+00 0. -1.
         21   -1    0    0  502  503 -0.00000000000E+00 -0.00000000000E+00 -0.25541727295E+03  0.25541727295E+03  0.00000000000E+00 0.  1.
         -6    2    1    2    0  503  0.71272532647E+02 -0.14031969935E+03  0.57505362895E+03  0.62050075719E+03  0.17194511209E+03 0.  0.
        -24    2    3    3    0    0  0.10676296793E+03 -0.14335498795E+03  0.50727053992E+03  0.54378425876E+03  0.80180642980E+02 0.  0.
          6    2    1    2  501    0 -0.71272532647E+02  0.14031969935E+03 -0.17440895111E+03  0.29097846655E+03  0.17169913755E+03 0.  0.
         24    2    5    5    0    0 -0.10456379369E+03  0.63376931257E+02 -0.84172190151E+02  0.16771752119E+03  0.78063992679E+02 0.  0.
          5    1    5    5  501    0  0.33291261040E+02  0.76942768095E+02 -0.90236760957E+02  0.12326094536E+03  0.47000000000E+01 0. -1.
        -11    1    6    6    0    0 -0.77929573776E+02  0.78348669357E+02 -0.48309185333E+02  0.12060393794E+03  0.00000000000E+00 0.  1.
         12    1    6    6    0    0 -0.26634219911E+02 -0.14971738100E+02 -0.35863004818E+02  0.47113583249E+02  0.00000000000E+00 0. -1.
         -5    1    3    3    0  503 -0.35490435288E+02  0.30352885957E+01  0.67783089030E+02  0.76716498435E+02  0.47000000000E+01 0.  1.
         11    1    4    4    0    0  0.66261731154E+02 -0.13606505254E+03  0.43557117387E+03  0.46111447933E+03  0.00000000000E+00 0. -1.
        -12    1    4    4    0    0  0.40501236780E+02 -0.72899354077E+01  0.71699366050E+02  0.82669779429E+02  0.00000000000E+00 0.  1.
</event>
<event>
12    1  0.1066489E+000  0.4447578E+03  0.7818608E-02  0.1029332E+00
         21   -1    0    0  501  502  0.00000000000E+00  0.00000000000E+00  0.81137181186E+03  0.81137181186E+03  0.00000000000E+00 0. -1.
         21   -1    0    0  502  503 -0.00000000000E+00 -0.00000000000E+00 -0.26618246174E+03  0.26618246174E+03  0.00000000000E+00 0. -1.
         -6    2    1    2    0  503  0.40730738139E+03 -0.47077735739E+02  0.11535012934E+03  0.45903085523E+03  0.17113753992E+03 0.  0.
        -24    2    3    3    0    0  0.35274634010E+03 -0.24094249881E+02  0.42327320296E+02  0.36490557440E+03  0.79711748554E+02 0.  0.
          6    2    1    2  501    0 -0.40730738139E+03  0.47077735739E+02  0.42983922078E+03  0.61852341837E+03  0.17231902743E+03 0.  0.
         24    2    5    5    0    0 -0.29629837599E+03 -0.23063184715E+02  0.25109510256E+03  0.39668046085E+03  0.77343386210E+02 0.  0.
          5    1    5    5  501    0 -0.11100900541E+03  0.70140920454E+02  0.17874411822E+03  0.22184295752E+03  0.47000000000E+01 0. -1.
        -13    1    6    6    0    0 -0.20786552907E+03 -0.50573443562E+02  0.18597018255E+03  0.28346192014E+03  0.00000000000E+00 0.  1.
         14    1    6    6    0    0 -0.88432846911E+02  0.27510258847E+02  0.65124920005E+02  0.11321854071E+03  0.00000000000E+00 0. -1.
         -5    1    3    3    0  503  0.54561041299E+02 -0.22983485858E+02  0.73022809043E+02  0.94125280825E+02  0.47000000000E+01 0.  1.
         11    1    4    4    0    0  0.18239408404E+03 -0.48453837855E+02  0.48280871007E+01  0.18878211440E+03  0.00000000000E+00 0. -1.
        -12    1    4    4    0    0  0.17035225606E+03  0.24359587974E+02  0.37499233195E+02  0.17612346000E+03  0.00000000000E+00 0.  1.
</event>
<event>
12    1  0.1066489E+000  0.3097825E+03  0.7818608E-02  0.1080521E+00
         21   -1    0    0  503  502  0.00000000000E+00  0.00000000000E+00  0.29361952883E+03  0.29361952883E+03  0.00000000000E+00 0.  1.
         21   -1    0    0  501  503 -0.00000000000E+00 -0.00000000000E+00 -0.34560284166E+03  0.34560284166E+03  0.00000000000E+00 0.  1.
          6    2    1    2  501    0  0.24254342437E+03 -0.87516590277E+02 -0.10166566068E+03  0.32548122964E+03  0.17063310937E+03 0.  0.
         24    2    3    3    0    0  0.22781637847E+03 -0.24891334437E+02 -0.71026823124E+02  0.25406948750E+03  0.83585967995E+02 0.  0.
         -6    2    1    2    0  502 -0.24254342437E+03  0.87516590277E+02  0.49682347850E+02  0.31374114084E+03  0.17169362682E+03 0.  0.
        -24    2    5    5    0    0 -0.10811474796E+03  0.64805353560E+02  0.86358596038E+02  0.17248213584E+03  0.80023418426E+02 0.  0.
          5    1    3    3  501    0  0.14727045898E+02 -0.62625255840E+02 -0.30638837551E+02  0.71411742146E+02  0.47000000000E+01 0. -1.
        -13    1    4    4    0    0  0.20939349043E+03 -0.98758404783E+01 -0.37470238913E+02  0.21294878461E+03  0.00000000000E+00 0.  1.
         14    1    4    4    0    0  0.18422888036E+02 -0.15015493959E+02 -0.33556584211E+02  0.41120702892E+02  0.00000000000E+00 0. -1.
         -5    1    5    5    0  502 -0.13442867641E+03  0.22711236716E+02 -0.36676248188E+02  0.14125900500E+03  0.47000000000E+01 0.  1.
         13    1    6    6    0    0 -0.42564036997E+02  0.71372502202E+02  0.42487521613E+02  0.93332313851E+02  0.00000000000E+00 0. -1.
        -14    1    6    6    0    0 -0.65550710964E+02 -0.65671486414E+01  0.43871074425E+02  0.79149821986E+02  0.00000000000E+00 0.  1.
</event>
<event>
12    1  0.1066489E+000  0.2860440E+03  0.7818608E-02  0.1092466E+00
         21   -1    0    0  501  502  0.00000000000E+00  0.00000000000E+00  0.36865612768E+03  0.36865612768E+03  0.00000000000E+00 0.  1.
         21   -1    0    0  502  503 -0.00000000000E+00 -0.00000000000E+00 -0.27416831458E+03  0.27416831458E+03  0.00000000000E+00 0. -1.
         -6    2    1    2    0  503 -0.28628395817E+02  0.22629689057E+03  0.18779962650E+03  0.34218394624E+03  0.17260152266E+03 0.  0.
        -24    2    3    3    0    0 -0.12567490728E+02  0.35271931553E+02  0.30549222300E+02  0.94195504453E+02  0.80854728355E+02 0.  0.
          6    2    1    2  501    0  0.28628395817E+02 -0.22629689057E+03 -0.93311813405E+02  0.30064049602E+03  0.17218520726E+03 0.  0.
         24    2    5    5    0    0  0.49741672606E+02 -0.69371174151E+02 -0.78972844553E+02  0.14158344036E+03  0.80762408393E+02 0.  0.
          5    1    5    5  501    0 -0.21113276789E+02 -0.15692571642E+03 -0.14338968851E+02  0.15905705567E+03  0.47000000000E+01 0. -1.
        -13    1    6    6    0    0  0.55958418382E+02 -0.78604633780E+02 -0.85293518436E+02  0.12878283009E+03  0.00000000000E+00 0.  1.
         14    1    6    6    0    0 -0.62167457768E+01  0.92334596291E+01  0.63206738826E+01  0.12800610263E+02  0.00000000000E+00 0. -1.
         -5    1    3    3    0  503 -0.16060905089E+02  0.19102495902E+03  0.15725040420E+03  0.24798844179E+03  0.47000000000E+01 0.  1.
         11    1    4    4    0    0 -0.38391726489E+02  0.33239144680E+02  0.41974740997E+02  0.65883566112E+02  0.00000000000E+00 0. -1.
        -12    1    4    4    0    0  0.25824235761E+02  0.20327868726E+01 -0.11425518697E+02  0.28311938341E+02  0.00000000000E+00 0.  1.
</event>
<event>
12    1  0.1066489E+000  0.2645956E+03  0.7818608E-02  0.1104528E+00
         21   -1    0    0  503  502  0.00000000000E+00  0.00000000000E+00  0.16648303935E+03  0.16648303935E+03  0.00000000000E+00 0.  1.
         21   -1    0    0  501  503 -0.00000000000E+00 -0.00000000000E+00 -0.42464986352E+03  0.42464986352E+03  0.00000000000E+00 0.  1.
          6    2    1    2  501    0  0.17843017356E+03  0.92039292764E+02 -0.95686613165E+02  0.28063227737E+03  0.17114318250E+03 0.  0.
         24    2    3    3    0    0  0.40600793855E+02  0.46972159456E+02  0.97071137773E+01  0.10130600464E+03  0.79459865923E+02 0.  0.
         -6    2    1    2    0  502 -0.17843017356E+03 -0.92039292764E+02 -0.16248021100E+03  0.31050062550E+03  0.17234343973E+03 0.  0.
        -24    2    5    5    0    0 -0.45139861822E+02 -0.37420249795E+02 -0.12837881750E+03  0.16239747868E+03  0.80336405685E+02 0.  0.
          5    1    3    3  501    0  0.13782937970E+03  0.45067133308E+02 -0.10539372694E+03  0.17932627274E+03  0.47000000000E+01 0. -1.
        -11    1    4    4    0    0 -0.21299201867E+00 -0.13600463004E+02  0.23330945937E+02  0.27006499178E+02  0.00000000000E+00 0.  1.
         12    1    4    4    0    0  0.40813785874E+02  0.60572622460E+02 -0.13623832160E+02  0.74299505461E+02  0.00000000000E+00 0. -1.
         -5    1    5    5    0  502 -0.13329031174E+03 -0.54619042969E+02 -0.34101393496E+02  0.14810314681E+03  0.47000000000E+01 0.  1.
         13    1    6    6    0    0 -0.61055515650E+02 -0.10564205881E+02 -0.10977881595E+03  0.12605858506E+03  0.00000000000E+00 0. -1.
        -14    1    6    6    0    0  0.15915653828E+02 -0.26856043914E+02 -0.18600001554E+02  0.36338893617E+02  0.00000000000E+00 0.  1.
</event>
<event>
12    1  0.1066489E+000  0.1898989E+03  0.7818608E-02  0.1160581E+00
         21   -1    0    0  503  502  0.00000000000E+00  0.00000000000E+00  0.13354123265E+03  0.13354123265E+03  0.00000000000E+00 0. -1.
         21   -1    0    0  501  503 -0.00000000000E+00 -0.00000000000E+00 -0.27719190270E+03  0.27719190270E+03  0.00000000000E+00 0. -1.
          6    2    1    2  501    0 -0.19515011420E+02 -0.54228608923E+02 -0.18985978944E+02  0.19084562179E+03  0.18094199696E+03 0.  0.
         24    2    3    3    0    0 -0.67843462681E+02  0.23434862592E+02 -0.12668771190E+02  0.99034668612E+02  0.67048039573E+02 0.  0.
         -6    2    1    2    0  502  0.19515011420E+02  0.54228608923E+02 -0.12466469111E+03  0.21988751356E+03  0.17171970101E+03 0.  0.
        -24    2    5    5    0    0 -0.10453742470E+02  0.29952826487E+02 -0.15078231979E+03  0.17307234134E+03  0.78817985442E+02 0.  0.
          5    1    3    3  501    0  0.48328451260E+02 -0.77663471515E+02 -0.63172077539E+01  0.91810953175E+02  0.47000000000E+01 0. -1.
        -13    1    4    4    0    0 -0.20060938261E+02 -0.10795066915E+02 -0.30079117429E+02  0.37732320614E+02  0.00000000000E+00 0.  1.
         14    1    4    4    0    0 -0.47782524420E+02  0.34229929506E+02  0.17410346239E+02  0.61302347999E+02  0.00000000000E+00 0. -1.
         -5    1    5    5    0  502  0.29968753890E+02  0.24275782437E+02  0.26117628681E+02  0.46815172226E+02  0.47000000000E+01 0.  1.
         13    1    6    6    0    0  0.44558147949E+01  0.31689845558E+01 -0.14069506841E+03  0.14080127493E+03  0.00000000000E+00 0. -1.
        -14    1    6    6    0    0 -0.14909557265E+02  0.26783841931E+02 -0.10087251380E+02  0.32271066403E+02  0.00000000000E+00 0.  1.
</event>
<event>
12    1  0.1066489E+000  0.1918078E+03  0.7818608E-02  0.1157526E+00
         21   -1    0    0  503  502  0.00000000000E+00  0.00000000000E+00  0.14832148834E+02  0.14832148834E+02  0.00000000000E+00 0. -1.
         21   -1    0    0  501  503 -0.00000000000E+00 -0.00000000000E+00 -0.24975992511E+04  0.24975992511E+04  0.00000000000E+00 0. -1.
          6    2    1    2  501    0  0.78415312325E+02  0.83296441032E+00 -0.14399326835E+04  0.14526514927E+04  0.17504448327E+03 0.  0.
         24    2    3    3    0    0  0.88145075379E+02 -0.33665032712E+02 -0.63650741368E+03  0.64841332256E+03  0.79970372363E+02 0.  0.
         -6    2    1    2    0  502 -0.78415312325E+02 -0.83296441032E+00 -0.10428344188E+04  0.10597799073E+04  0.17169790863E+03 0.  0.
        -24    2    5    5    0    0 -0.12145710893E+03 -0.59189263369E+01 -0.76547497160E+03  0.77901520827E+03  0.78268126183E+02 0.  0.
          5    1    3    3  501    0 -0.97297630541E+01  0.34497997123E+02 -0.80342526980E+03  0.80423817010E+03  0.47000000000E+01 0. -1.
        -11    1    4    4    0    0  0.15406935934E+02  0.67101136290E+01 -0.19158672847E+02  0.25484388261E+02  0.00000000000E+00 0.  1.
         12    1    4    4    0    0  0.72738139445E+02 -0.40375146341E+02 -0.61734874084E+03  0.62292893430E+03  0.00000000000E+00 0. -1.
         -5    1    5    5    0  502  0.43041796607E+02  0.50859619266E+01 -0.27735944721E+03  0.28076469903E+03  0.47000000000E+01 0.  1.
         13    1    6    6    0    0 -0.93105489073E+02  0.29662952400E+02 -0.46919043447E+03  0.47925795418E+03  0.00000000000E+00 0. -1.
        -14    1    6    6    0    0 -0.28351619859E+02 -0.35581878737E+02 -0.29628453712E+03  0.29975725409E+03  0.00000000000E+00 0.  1.
</event>
<event>
12    1  0.1066489E+000  0.3756079E+03  0.7818608E-02  0.1052662E+00
         21   -1    0    0  501  502  0.00000000000E+00  0.00000000000E+00  0.18800185580E+03  0.18800185580E+03  0.00000000000E+00 0. -1.
         21   -1    0    0  502  503 -0.00000000000E+00 -0.00000000000E+00 -0.82952763959E+03  0.82952763959E+03  0.00000000000E+00 0. -1.
         -6    2    1    2    0  503  0.32167376872E+03 -0.86360881739E+02 -0.48019194518E+03  0.60964384234E+03  0.17363494726E+03 0.  0.
        -24    2    3    3    0    0  0.29366024630E+03 -0.24681254576E+02 -0.41836374267E+03  0.51780730021E+03  0.79061206552E+02 0.  0.
          6    2    1    2  501    0 -0.32167376872E+03  0.86360881739E+02 -0.16133383860E+03  0.40788565305E+03  0.17149309928E+03 0.  0.
         24    2    5    5    0    0 -0.16673321089E+03  0.11125660163E+03 -0.11367794646E+03  0.24381387794E+03  0.79652599114E+02 0.  0.
          5    1    5    5  501    0 -0.15494055783E+03 -0.24895719888E+02 -0.47655892147E+02  0.16407177510E+03  0.47000000000E+01 0. -1.
        -13    1    6    6    0    0 -0.44967983925E+02 -0.36584027375E+01 -0.79902700356E+01  0.45818641448E+02  0.00000000000E+00 0.  1.
         14    1    6    6    0    0 -0.12176522697E+03  0.11491500436E+03 -0.10568767642E+03  0.19799523649E+03  0.00000000000E+00 0. -1.
         -5    1    3    3    0  503  0.28013522423E+02 -0.61679627163E+02 -0.61828202507E+02  0.91836542132E+02  0.47000000000E+01 0.  1.
         11    1    4    4    0    0  0.15983298419E+03 -0.44831219526E+01 -0.29060253249E+03  0.33168737255E+03  0.00000000000E+00 0. -1.
        -12    1    4    4    0    0  0.13382726211E+03 -0.20198132624E+02 -0.12776121018E+03  0.18611992766E+03  0.00000000000E+00 0.  1.
</event>
<event>
12    1  0.1066489E+000  0.6361854E+03  0.7818608E-02  0.9833220E-01
         21   -1    0    0  501  502  0.00000000000E+00  0.00000000000E+00  0.12939811706E+04  0.12939811706E+04  0.00000000000E+00 0.  1.
         21   -1    0    0  502  503 -0.00000000000E+00 -0.00000000000E+00 -0.35399654556E+03  0.35399654556E+03  0.00000000000E+00 0. -1.
         -6    2    1    2    0  503 -0.53888461238E+03  0.29125884471E+03  0.75162194770E+03  0.98449273082E+03  0.17047593581E+03 0.  0.
        -24    2    3    3    0    0 -0.54699209642E+03  0.29203544450E+03  0.73105199403E+03  0.96187531720E+03  0.79259406242E+02 0.  0.
          6    2    1    2  501    0  0.53888461238E+03 -0.29125884471E+03  0.18836267736E+03  0.66348498536E+03  0.17176579257E+03 0.  0.
         24    2    5    5    0    0  0.43514026581E+03 -0.29215097006E+03  0.17691507950E+03  0.55900138459E+03  0.80525538705E+02 0.  0.
          5    1    5    5  501    0  0.10374434657E+03  0.89212535861E+00  0.11447597864E+02  0.10448360077E+03  0.47000000000E+01 0. -1.
        -11    1    6    6    0    0  0.11555653281E+03 -0.78146140542E+02  0.85675912052E+02  0.16370856258E+03  0.00000000000E+00 0.  1.
         12    1    6    6    0    0  0.31958373300E+03 -0.21400482952E+03  0.91239167446E+02  0.39529282201E+03  0.00000000000E+00 0. -1.
         -5    1    3    3    0  503  0.81074840384E+01 -0.77659979875E+00  0.20569953672E+02  0.22617413618E+02  0.47000000000E+01 0.  1.
         13    1    4    4    0    0 -0.33425118162E+03  0.16219772121E+03  0.38096010837E+03  0.53213020714E+03  0.00000000000E+00 0. -1.
        -14    1    4    4    0    0 -0.21274091480E+03  0.12983772330E+03  0.35009188565E+03  0.42974511006E+03  0.00000000000E+00 0.  1.
</event>
<event>
12    1  0.1066489E+000  0.2404720E+03  0.7818608E-02  0.1119495E+00
         21   -1    0    0  503  502  0.00000000000E+00  0.00000000000E+00  0.63709567072E+03  0.63709567072E+03  0.00000000000E+00 0. -1.
         21   -1    0    0  501  503 -0.00000000000E+00 -0.00000000000E+00 -0.12725569487E+03  0.12725569487E+03  0.00000000000E+00 0. -1.
          6    2    1    2  501    0 -0.14338267221E+03 -0.87941980090E+02  0.45970976727E+03  0.51880618714E+03  0.17185577424E+03 0.  0.
         24    2    3    3    0    0 -0.17381519031E+03 -0.83076561406E+02  0.38393074721E+03  0.43686498664E+03  0.79591221051E+02 0.  0.
         -6    2    1    2    0  502  0.14338267221E+03  0.87941980090E+02  0.50130208575E+02  0.24554517845E+03  0.17171783337E+03 0.  0.
        -24    2    5    5    0    0  0.74405387201E+02  0.11246254248E+03  0.66729016059E+02  0.17033391442E+03  0.79855467649E+02 0.  0.
          5    1    3    3  501    0  0.30432518101E+02 -0.48654186834E+01  0.75779020064E+02  0.81941200496E+02  0.47000000000E+01 0. -1.
        -11    1    4    4    0    0 -0.82069609793E+02 -0.55740047864E+02  0.27228674182E+03  0.28979724560E+03  0.00000000000E+00 0.  1.
         12    1    4    4    0    0 -0.91745580514E+02 -0.27336513543E+02  0.11164400539E+03  0.14706774104E+03  0.00000000000E+00 0. -1.
         -5    1    5    5    0  502  0.68977285006E+02 -0.24520562387E+02 -0.16598807484E+02  0.75211264026E+02  0.47000000000E+01 0.  1.
         13    1    6    6    0    0 -0.86390521160E+01  0.25388142548E+02 -0.88503446959E+01  0.28240389600E+02  0.00000000000E+00 0. -1.
        -14    1    6    6    0    0  0.83044439317E+02  0.87074399928E+02  0.75579360755E+02  0.14209352482E+03  0.00000000000E+00 0.  1.
</event>
<event>
12    1  0.1066489E+000  0.2714781E+03  0.7818608E-02  0.1100438E+00
         21   -1    0    0  501  502  0.00000000000E+00  0.00000000000E+00  0.49946496842E+03  0.49946496842E+03  0.00000000000E+00 0. -1.
         21   -1    0    0  502  503 -0.00000000000E+00 -0.00000000000E+00 -0.23398663267E+03  0.23398663267E+03  0.00000000000E+00 0. -1.
         -6    2    1    2    0  503 -0.28075124761E+02  0.20821775982E+03  0.35563151084E+03  0.44740825764E+03  0.17192303327E+03 0.  0.
        -24    2    3    3    0    0 -0.82504811875E+02  0.10453514023E+03  0.18521577925E+03  0.24058396502E+03  0.76427219083E+02 0.  0.
          6    2    1    2  501    0  0.28075124761E+02 -0.20821775982E+03 -0.90153175090E+02  0.28604334345E+03  0.17190215594E+03 0.  0.
         24    2    5    5    0    0  0.62610335469E+02 -0.66097717055E+02 -0.20230222942E+02  0.12386413217E+03  0.81511342834E+02 0.  0.
          5    1    5    5  501    0 -0.34535210708E+02 -0.14212004277E+03 -0.69922952148E+02  0.16217921128E+03  0.47000000000E+01 0. -1.
        -11    1    6    6    0    0  0.28600469632E+02 -0.80373330008E+02 -0.13556734320E+02  0.86380808547E+02  0.00000000000E+00 0.  1.
         12    1    6    6    0    0  0.34009865836E+02  0.14275612954E+02 -0.66734886217E+01  0.37483323622E+02  0.00000000000E+00 0. -1.
         -5    1    3    3    0  503  0.54429687114E+02  0.10368261959E+03  0.17041573159E+03  0.20682429262E+03  0.47000000000E+01 0.  1.
         13    1    4    4    0    0 -0.57550563189E+02  0.16232331287E+02  0.54711303754E+02  0.81048643794E+02  0.00000000000E+00 0. -1.
        -14    1    4    4    0    0 -0.24954248686E+02  0.88302808942E+02  0.13050447549E+03  0.15953532122E+03  0.00000000000E+00 0.  1.
</event>
<event>
12    1  0.1066489E+000  0.3060769E+03  0.7818608E-02  0.1082509E+00
         21   -1    0    0  503  502  0.00000000000E+00  0.00000000000E+00  0.55622684863E+02  0.55622684863E+02  0.00000000000E+00 0.  1.
         21   -1    0    0  501  503 -0.00000000000E+00 -0.00000000000E+00 -0.17558951347E+04  0.17558951347E+04  0.00000000000E+00 0.  1.
          6    2    1    2  501    0 -0.23987430774E+03  0.79811984937E+02 -0.65535112392E+03  0.72330365239E+03  0.17254982317E+03 0.  0.
         24    2    3    3    0    0 -0.39335408279E+02  0.13220342012E+01 -0.22904709205E+03  0.24567017350E+03  0.79638192167E+02 0.  0.
         -6    2    1    2    0  502  0.23987430774E+03 -0.79811984937E+02 -0.10449213259E+04  0.10882141672E+04  0.16864121630E+03 0.  0.
        -24    2    5    5    0    0  0.11077995446E+03 -0.43061035986E+01 -0.68607528010E+03  0.69942236587E+03  0.78750333814E+02 0.  0.
          5    1    3    3  501    0 -0.20053889947E+03  0.78489950736E+02 -0.42630403187E+03  0.47763347889E+03  0.47000000000E+01 0. -1.
        -11    1    4    4    0    0 -0.19012727986E+02 -0.38279063709E+02 -0.13534640973E+03  0.14193456651E+03  0.00000000000E+00 0.  1.
         12    1    4    4    0    0 -0.20322680293E+02  0.39601097910E+02 -0.93700682319E+02  0.10373560699E+03  0.00000000000E+00 0. -1.
         -5    1    5    5    0  502  0.12909435328E+03 -0.75505881339E+02 -0.35884604584E+03  0.38879180133E+03  0.47000000000E+01 0.  1.
         13    1    6    6    0    0  0.56321255794E+02 -0.41442773268E+02 -0.33698724786E+03  0.34416564694E+03  0.00000000000E+00 0. -1.
        -14    1    6    6    0    0  0.54458698667E+02  0.37136669669E+02 -0.34908803224E+03  0.35525671894E+03  0.00000000000E+00 0.  1.
</event>
<event>
12    1  0.1066489E+000  0.1756039E+03  0.7818608E-02  0.1172544E+00
         21   -1    0    0  503  502  0.00000000000E+00  0.00000000000E+00  0.16401532845E+03  0.16401532845E+03  0.00000000000E+00 0. -1.
         21   -1    0    0  501  503 -0.00000000000E+00 -0.00000000000E+00 -0.18628804689E+03  0.18628804689E+03  0.00000000000E+00 0. -1.
          6    2    1    2  501    0 -0.34986370540E+02  0.18030657242E+01 -0.14040647079E+02  0.17616435610E+03  0.17207394753E+03 0.  0.
         24    2    3    3    0    0  0.38793459518E+02  0.22091871414E+02 -0.30017288828E+02  0.97854445862E+02  0.81740269528E+02 0.  0.
         -6    2    1    2    0  502  0.34986370540E+02 -0.18030657242E+01 -0.82320713613E+01  0.17413901924E+03  0.17037996905E+03 0.  0.
        -24    2    5    5    0    0  0.52589643753E+02 -0.32430175333E+02 -0.55204554858E+02  0.11517802131E+03  0.80006542317E+02 0.  0.
          5    1    3    3  501    0 -0.73779830058E+02 -0.20288805690E+02  0.15976641749E+02  0.78309910236E+02  0.47000000000E+01 0. -1.
        -13    1    4    4    0    0 -0.21225990582E+02 -0.11484272258E+02 -0.48145000537E+01  0.24609156756E+02  0.00000000000E+00 0.  1.
         14    1    4    4    0    0  0.60019450100E+02  0.33576143672E+02 -0.25202788774E+02  0.73245289106E+02  0.00000000000E+00 0. -1.
         -5    1    5    5    0  502 -0.17603273213E+02  0.30627109609E+02  0.46972483497E+02  0.58960997928E+02  0.47000000000E+01 0.  1.
         11    1    6    6    0    0  0.57005561336E+02  0.46466817548E+01 -0.52672159473E+02  0.77753341138E+02  0.00000000000E+00 0. -1.
        -12    1    6    6    0    0 -0.44159175826E+01 -0.37076857088E+02 -0.25323953848E+01  0.37424680172E+02  0.00000000000E+00 0.  1.
</event>
<event>
12    1  0.1066489E+000  0.2238688E+03  0.7818608E-02  0.1131533E+00
         21   -1    0    0  501  502  0.00000000000E+00  0.00000000000E+00  0.74699185301E+02  0.74699185301E+02  0.00000000000E+00 0. -1.
         21   -1    0    0  502  503 -0.00000000000E+00 -0.00000000000E+00 -0.73645974652E+03  0.73645974652E+03  0.00000000000E+00 0. -1.
         -6    2    1    2    0  503  0.10748027604E+03  0.91077312562E+02 -0.45735628432E+03  0.50801156186E+03  0.17045201546E+03 0.  0.
        -24    2    3    3    0    0  0.45227937635E+02  0.91213438080E+02 -0.41179820632E+03  0.43072637157E+03  0.74712695093E+02 0.  0.
          6    2    1    2  501    0 -0.10748027604E+03 -0.91077312562E+02 -0.20440427690E+03  0.30314736996E+03  0.17398313969E+03 0.  0.
         24    2    5    5    0    0 -0.13493480925E+03 -0.65839303656E+02 -0.11307447182E+03  0.20438537432E+03  0.80282802672E+02 0.  0.
          5    1    5    5  501    0  0.27454533207E+02 -0.25238008906E+02 -0.91329805078E+02  0.98761995639E+02  0.47000000000E+01 0. -1.
        -11    1    6    6    0    0 -0.82833222231E+02 -0.47286908838E+02 -0.11454856731E+03  0.14905961467E+03  0.00000000000E+00 0.  1.
         12    1    6    6    0    0 -0.52101587018E+02 -0.18552394818E+02  0.14740954897E+01  0.55325759650E+02  0.00000000000E+00 0. -1.
         -5    1    3    3    0  503  0.62252338408E+02 -0.13612551715E+00 -0.45558078002E+02  0.77285190293E+02  0.47000000000E+01 0.  1.
         11    1    4    4    0    0 -0.13680627502E+02 -0.31557715495E+01 -0.31419536578E+02  0.34413743500E+02  0.00000000000E+00 0. -1.
        -12    1    4    4    0    0  0.58908565137E+02  0.94369209629E+02 -0.38037866974E+03  0.39631262807E+03  0.00000000000E+00 0.  1.
</event>
<event>
12    1  0.1066489E+000  0.2653718E+03  0.7818608E-02  0.1104297E+00
         21   -1    0    0  501  502  0.00000000000E+00  0.00000000000E+00  0.17100785271E+03  0.17100785271E+03  0.00000000000E+00 0. -1.
         21   -1    0    0  502  503 -0.00000000000E+00 -0.00000000000E+00 -0.48215216496E+03  0.48215216496E+03  0.00000000000E+00 0. -1.
         -6    2    1    2    0  503  0.39822553480E+02 -0.19557786959E+03 -0.27123376400E+02  0.26445690380E+03  0.17136288274E+03 0.  0.
        -24    2    3    3    0    0  0.27876474979E+01 -0.45478703541E+02 -0.53901345994E+02  0.10748399669E+03  0.81063993185E+02 0.  0.
          6    2    1    2  501    0 -0.39822553480E+02  0.19557786959E+03 -0.28402093585E+03  0.38870311387E+03  0.17488762075E+03 0.  0.
         24    2    5    5    0    0 -0.38546261218E+02  0.22099245231E+03 -0.24412472367E+03  0.34114969461E+03  0.80391263188E+02 0.  0.
          5    1    5    5  501    0 -0.12762922615E+01 -0.25414582716E+02 -0.39896212186E+02  0.47553419260E+02  0.47000000000E+01 0. -1.
        -11    1    6    6    0    0 -0.12697693302E+02  0.17604399658E+03 -0.22480922363E+03  0.28581796160E+03  0.00000000000E+00 0.  1.
         12    1    6    6    0    0 -0.25848567916E+02  0.44948455731E+02 -0.19315500035E+02  0.55331733006E+02  0.00000000000E+00 0. -1.
         -5    1    3    3    0  503  0.37034905982E+02 -0.15009916605E+03  0.26777969595E+02  0.15697290711E+03  0.47000000000E+01 0.  1.
         13    1    4    4    0    0 -0.20368468699E+02 -0.58911729321E+02 -0.22618483029E+02  0.66310347181E+02  0.00000000000E+00 0. -1.
        -14    1    4    4    0    0  0.23156116197E+02  0.13433025780E+02 -0.31282862965E+02  0.41173649513E+02  0.00000000000E+00 0.  1.
</event>
<event>
12    1  0.1066489E+000  0.2402894E+03  0.7818608E-02  0.1119872E+00
         21   -1    0    0  501  502  0.00000000000E+00  0.00000000000E+00  0.16023417991E+04  0.16023417991E+04  0.00000000000E+00 0. -1.
         21   -1    0    0  502  503 -0.00000000000E+00 -0.00000000000E+00 -0.58933309479E+02  0.58933309479E+02  0.00000000000E+00 0. -1.
         -6    2    1    2    0  503  0.80748747446E+02  0.14481760058E+03  0.12938268742E+04  0.13159509789E+04  0.17391521148E+03 0.  0.
        -24    2    3    3    0    0  0.41620388936E+02  0.14452937125E+03  0.67639260171E+03  0.69726019799E+03  0.77742112983E+02 0.  0.
          6    2    1    2  501    0 -0.80748747446E+02 -0.14481760058E+03  0.24958161541E+03  0.34532412968E+03  0.17165451971E+03 0.  0.
         24    2    5    5    0    0 -0.25294660801E+02 -0.11378712719E+03  0.24286679134E+03  0.28125210094E+03  0.80815442619E+02 0.  0.
          5    1    5    5  501    0 -0.55454086645E+02 -0.31030473386E+02  0.67148240648E+01  0.64072028737E+02  0.47000000000E+01 0. -1.
        -13    1    6    6    0    0 -0.24353736268E+02 -0.42491360089E+02  0.31619090557E+02  0.58295686290E+02  0.00000000000E+00 0.  1.
         14    1    6    6    0    0 -0.94092453321E+00 -0.71295767106E+02  0.21124770079E+03  0.22295641465E+03  0.00000000000E+00 0. -1.
         -5    1    3    3    0  503  0.39128358510E+02  0.28822932706E+00  0.61743427250E+03  0.61869078090E+03  0.47000000000E+01 0.  1.
         11    1    4    4    0    0  0.58318673667E+01 -0.95023140475E+01  0.47481629828E+02  0.48773043993E+02  0.00000000000E+00 0. -1.
        -12    1    4    4    0    0  0.35788521569E+02  0.15403168530E+03  0.62891097188E+03  0.64848715400E+03  0.00000000000E+00 0.  1.
</event>
<event>
12    1  0.1066489E+000  0.1865750E+03  0.7818608E-02  0.1161822E+00
         21   -1    0    0  501  502  0.00000000000E+00  0.00000000000E+00  0.10879713518E+04  0.10879713518E+04  0.00000000000E+00 0. -1.
         21   -1    0    0  502  503 -0.00000000000E+00 -0.00000000000E+00 -0.56933887604E+02  0.56933887604E+02  0.00000000000E+00 0. -1.
         -6    2    1    2    0  503  0.58592923521E+02  0.39385451360E+02  0.13455401380E+03  0.22921270541E+03  0.17160809196E+03 0.  0.
        -24    2    3    3    0    0  0.14781633072E+02 -0.43886702650E+02  0.66653884280E+02  0.11308261287E+03  0.78742604089E+02 0.  0.
          6    2    1    2  501    0 -0.58592923521E+02 -0.39385451360E+02  0.89648345038E+03  0.91569253398E+03  0.17270175306E+03 0.  0.
         24    2    5    5    0    0  0.15916116476E+02  0.28414614809E+02  0.37620531973E+03  0.38573039453E+03  0.78719639053E+02 0.  0.
          5    1    5    5  501    0 -0.74509039997E+02 -0.67800066170E+02  0.52027813065E+03  0.52996213945E+03  0.47000000000E+01 0. -1.
        -13    1    6    6    0    0  0.46714003156E+02  0.64644958290E+01  0.22219608073E+03  0.22714551743E+03  0.00000000000E+00 0.  1.
         14    1    6    6    0    0 -0.30797886680E+02  0.21950118980E+02  0.15400923901E+03  0.15858487711E+03  0.00000000000E+00 0. -1.
         -5    1    3    3    0  503  0.43811290449E+02  0.83272154011E+02  0.67900129522E+02  0.11613009254E+03  0.47000000000E+01 0.  1.
         11    1    4    4    0    0  0.32554475600E+02 -0.45022772178E+02  0.75063089203E+02  0.93387960985E+02  0.00000000000E+00 0. -1.
        -12    1    4    4    0    0 -0.17772842529E+02  0.11360695277E+01 -0.84092049234E+01  0.19694651887E+02  0.00000000000E+00 0.  1.
</event>
<event>
12    1  0.1066489E+000  0.2020216E+03  0.7818608E-02  0.1148073E+00
         21   -1    0    0  501  502  0.00000000000E+00  0.00000000000E+00  0.71261276519E+02  0.71261276519E+02  0.00000000000E+00 0.  1.
         21   -1    0    0  502  503 -0.00000000000E+00 -0.00000000000E+00 -0.65914933315E+03  0.65914933315E+03  0.00000000000E+00 0.  1.
         -6    2    1    2    0  503  0.10375558314E+03 -0.15250340542E+02 -0.16149191927E+03  0.25863562279E+03  0.17267006535E+03 0.  0.
        -24    2    3    3    0    0  0.91945415921E+02 -0.63161120106E+01 -0.28827607125E+02  0.12506462966E+03  0.79475014187E+02 0.  0.
          6    2    1    2  501    0 -0.10375558314E+03  0.15250340542E+02 -0.42639613736E+03  0.47177498687E+03  0.17251138619E+03 0.  0.
         24    2    5    5    0    0 -0.50255764009E+02 -0.97176906921E+01 -0.12818770445E+03  0.16774210594E+03  0.95316584101E+02 0.  0.
          5    1    5    5  501    0 -0.53499819127E+02  0.24968031234E+02 -0.29820843291E+03  0.30403288093E+03  0.47000000000E+01 0. -1.
        -11    1    6    6    0    0 -0.10293290476E+02  0.36080446254E+02 -0.17361184275E+02  0.41342002251E+02  0.00000000000E+00 0.  1.
         12    1    6    6    0    0 -0.39962473533E+02 -0.45798136946E+02 -0.11082652017E+03  0.12640010369E+03  0.00000000000E+00 0. -1.
         -5    1    3    3    0  503  0.11810167215E+02 -0.89342285312E+01 -0.13266431214E+03  0.13357099313E+03  0.47000000000E+01 0.  1.
         13    1    4    4    0    0 -0.10664863501E+00 -0.26069425706E+01  0.20430184326E+02  0.20596115048E+02  0.00000000000E+00 0. -1.
        -14    1    4    4    0    0  0.92052064556E+02 -0.37091694400E+01 -0.49257791451E+02  0.10446851461E+03  0.00000000000E+00 0.  1.
</event>
<event>
12    1  0.1066489E+000  0.2035378E+03  0.7818608E-02  0.1148133E+00
         21   -1    0    0  503  502  0.00000000000E+00  0.00000000000E+00  0.18361323456E+03  0.18361323456E+03  0.00000000000E+00 0.  1.
         21   -1    0    0  501  503 -0.00000000000E+00 -0.00000000000E+00 -0.26536549294E+03  0.26536549294E+03  0.00000000000E+00 0.  1.
          6    2    1    2  501    0 -0.56284409492E+02  0.75568025615E+02  0.52842407274E+02  0.21028544383E+03  0.18041393137E+03 0.  0.
         24    2    3    3    0    0  0.25654169208E+02  0.58666423054E+02 -0.15731601744E+02  0.10200765496E+03  0.77834393335E+02 0.  0.
         -6    2    1    2    0  502  0.56284409492E+02 -0.75568025615E+02 -0.13459466566E+03  0.23869328367E+03  0.17314819779E+03 0.  0.
        -24    2    5    5    0    0  0.91620420323E+01 -0.89090718575E+02 -0.33194313626E+02  0.12596572656E+03  0.82124312236E+02 0.  0.
          5    1    3    3  501    0 -0.81938578700E+02  0.16901602561E+02  0.68574009019E+02  0.10827778886E+03  0.47000000000E+01 0. -1.
        -13    1    4    4    0    0  0.89642143449E+01 -0.10890617988E+02  0.18044074806E+02  0.22903085700E+02  0.00000000000E+00 0.  1.
         14    1    4    4    0    0  0.16689954863E+02  0.69557041042E+02 -0.33775676550E+02  0.79104569263E+02  0.00000000000E+00 0. -1.
         -5    1    5    5    0  502  0.47122367460E+02  0.13522692960E+02 -0.10140035204E+03  0.11272755711E+03  0.47000000000E+01 0.  1.
         11    1    6    6    0    0  0.21350673374E+02 -0.55759457410E+02 -0.57545882431E+02  0.82924646089E+02  0.00000000000E+00 0. -1.
        -12    1    6    6    0    0 -0.12188631342E+02 -0.33331261165E+02  0.24351568805E+02  0.43041080471E+02  0.00000000000E+00 0.  1.
</event>
<event>
12    1  0.1066489E+000  0.2601181E+03  0.7818608E-02  0.1107221E+00
         21   -1    0    0  501  502  0.00000000000E+00  0.00000000000E+00  0.48275162153E+03  0.48275162153E+03  0.00000000000E+00 0. -1.
         21   -1    0    0  502  503 -0.00000000000E+00 -0.00000000000E+00 -0.14210867868E+03  0.14210867868E+03  0.00000000000E+00 0. -1.
         -6    2    1    2    0  503  0.19343311990E+03  0.10373338953E+02  0.12871398862E+03  0.28933789343E+03  0.17211957376E+03 0.  0.
        -24    2    3    3    0    0  0.43422853286E+02 -0.37362727146E+02  0.27353395127E+02  0.10204701802E+03  0.79899111979E+02 0.  0.
          6    2    1    2  501    0 -0.19343311990E+03 -0.10373338953E+02  0.21192895423E+03  0.33552240678E+03  0.17360134150E+03 0.  0.
         24    2    5    5    0    0 -0.92607643427E+02  0.39487891247E+02  0.17468484988E+03  0.21694276142E+03  0.80086801521E+02 0.  0.
          5    1    5    5  501    0 -0.10082547648E+03 -0.49861230200E+02  0.37244104351E+02  0.11857964536E+03  0.47000000000E+01 0. -1.
        -11    1    6    6    0    0 -0.38457124963E+01 -0.75523260574E+01 -0.58797622027E+01  0.10314976347E+02  0.00000000000E+00 0.  1.
         12    1    6    6    0    0 -0.88761930931E+02  0.47040217304E+02  0.18056461209E+03  0.20662778507E+03  0.00000000000E+00 0. -1.
         -5    1    3    3    0  503  0.15001026662E+03  0.47736066100E+02  0.10136059349E+03  0.18729087541E+03  0.47000000000E+01 0.  1.
         11    1    4    4    0    0  0.31954695621E+02 -0.16509701495E+01 -0.22893991511E+02  0.39344162489E+02  0.00000000000E+00 0. -1.
        -12    1    4    4    0    0  0.11468157665E+02 -0.35711756997E+02  0.50247386638E+02  0.62702855533E+02  0.00000000000E+00 0.  1.
</event>
<event>
12    1  0.1066489E+000  0.2350508E+03  0.7818608E-02  0.1123388E+00
         21   -1    0    0  501  502  0.00000000000E+00  0.00000000000E+00  0.11131874283E+04  0.11131874283E+04  0.00000000000E+00 0. -1.
         21   -1    0    0  502  503 -0.00000000000E+00 -0.00000000000E+00 -0.74029206506E+02  0.74029206506E+02  0.00000000000E+00 0. -1.
         -6    2    1    2    0  503  0.15932118498E+03 -0.15112530217E+01  0.17772084390E+03  0.29467536709E+03  0.17281015520E+03 0.  0.
        -24    2    3    3    0    0  0.18709260981E+03 -0.89053672843E+01  0.14139133298E+03  0.24811520894E+03  0.80540037569E+02 0.  0.
          6    2    1    2  501    0 -0.15932118498E+03  0.15112530217E+01  0.86143737786E+03  0.89254126769E+03  0.17079237304E+03 0.  0.
         24    2    5    5    0    0 -0.12551567039E+03  0.40173418871E+02  0.42519060964E+03  0.45325672589E+03  0.85361103199E+02 0.  0.
          5    1    5    5  501    0 -0.33805514595E+02 -0.38662165850E+02  0.43624676822E+03  0.43928454181E+03  0.47000000000E+01 0. -1.
        -13    1    6    6    0    0 -0.12820600328E+03  0.56757359436E+02  0.37813260008E+03  0.40328952425E+03  0.00000000000E+00 0.  1.
         14    1    6    6    0    0  0.26903328908E+01 -0.16583940564E+02  0.47058009558E+02  0.49967201635E+02  0.00000000000E+00 0. -1.
         -5    1    3    3    0  503 -0.27771424829E+02  0.73941142627E+01  0.36329510923E+02  0.46560158147E+02  0.47000000000E+01 0.  1.
         11    1    4    4    0    0  0.23145670454E+02  0.77549326641E+01  0.59051539710E+02  0.63897929415E+02  0.00000000000E+00 0. -1.
        -12    1    4    4    0    0  0.16394693936E+03 -0.16660299948E+02  0.82339793272E+02  0.18421727952E+03  0.00000000000E+00 0.  1.
</event>
<event>
12    1  0.1066489E+000  0.3787928E+03  0.7818608E-02  0.1051423E+00
         21   -1    0    0  501  502  0.00000000000E+00  0.00000000000E+00  0.51577854345E+03  0.51577854345E+03  0.00000000000E+00 0. -1.
         21   -1    0    0  502  503 -0.00000000000E+00 -0.00000000000E+00 -0.34874497206E+03  0.34874497206E+03  0.00000000000E+00 0. -1.
         -6    2    1    2    0  503 -0.16916068941E+03  0.29188555155E+03  0.27836575627E+03  0.46970854573E+03  0.17124867775E+03 0.  0.
        -24    2    3    3    0    0 -0.32638890768E+02  0.10932998594E+03  0.51936991928E+02  0.14837256680E+03  0.79363873595E+02 0.  0.
          6    2    1    2  501    0  0.16916068941E+03 -0.29188555155E+03 -0.11133218488E+03  0.39481496977E+03  0.17225414630E+03 0.  0.
         24    2    5    5    0    0  0.14510037587E+03 -0.26909645669E+03 -0.14603116836E+03  0.34660344639E+03  0.73087788521E+02 0.  0.
          5    1    5    5  501    0  0.24060313537E+02 -0.22789094855E+02  0.34698983485E+02  0.48211523381E+02  0.47000000000E+01 0. -1.
        -13    1    6    6    0    0  0.57999551223E+02 -0.14574668331E+03 -0.10933184086E+03  0.19120537404E+03  0.00000000000E+00 0.  1.
         14    1    6    6    0    0  0.87100824651E+02 -0.12334977338E+03 -0.36699327501E+02  0.15539807234E+03  0.00000000000E+00 0. -1.
         -5    1    3    3    0  503 -0.13652179864E+03  0.18255556561E+03  0.22642876434E+03  0.32133597894E+03  0.47000000000E+01 0.  1.
         13    1    4    4    0    0 -0.29726110399E+02  0.12181397847E+03  0.51480044833E+02  0.13554512903E+03  0.00000000000E+00 0. -1.
        -14    1    4    4    0    0 -0.29127803697E+01 -0.12483992528E+02  0.45694709545E+00  0.12827437763E+02  0.00000000000E+00 0.  1.
</event>
<event>
12    1  0.1066489E+000  0.2274713E+03  0.7818608E-02  0.1128642E+00
         21   -1    0    0  503  502  0.00000000000E+00  0.00000000000E+00  0.14903379145E+03  0.14903379145E+03  0.00000000000E+00 0. -1.
         21   -1    0    0  501  503 -0.00000000000E+00 -0.00000000000E+00 -0.58327717695E+03  0.58327717695E+03  0.00000000000E+00 0. -1.
          6    2    1    2  501    0 -0.47800836007E+02  0.14199236213E+03 -0.45128227407E+03  0.50537005284E+03  0.17116205358E+03 0.  0.
         24    2    3    3    0    0 -0.83401788790E+02  0.65965756567E+02 -0.20042917075E+03  0.24080088978E+03  0.80659014501E+02 0.  0.
         -6    2    1    2    0  502  0.47800836007E+02 -0.14199236213E+03  0.17038888571E+02  0.22694091557E+03  0.16960278479E+03 0.  0.
        -24    2    5    5    0    0  0.82375390415E+02 -0.13068813861E+03  0.46246616212E+02  0.18005417292E+03  0.80097822428E+02 0.  0.
          5    1    3    3  501    0  0.35600952783E+02  0.76026605564E+02 -0.25085310333E+03  0.26456916306E+03  0.47000000000E+01 0. -1.
        -11    1    4    4    0    0 -0.19736280309E+02  0.49285895831E+02 -0.14614015667E+03  0.15548493715E+03  0.00000000000E+00 0.  1.
         12    1    4    4    0    0 -0.63665508480E+02  0.16679860735E+02 -0.54289014076E+02  0.85315952632E+02  0.00000000000E+00 0. -1.
         -5    1    5    5    0  502 -0.34574554408E+02 -0.11304223522E+02 -0.29207727641E+02  0.46886742645E+02  0.47000000000E+01 0.  1.
         13    1    6    6    0    0  0.80528722552E+02 -0.77417184072E+02  0.35559061728E+01  0.11176287404E+03  0.00000000000E+00 0. -1.
        -14    1    6    6    0    0  0.18466678627E+01 -0.53270954536E+02  0.42690710039E+02  0.68291298882E+02  0.00000000000E+00 0.  1.
</event>
<event>
12    1  0.1066489E+000  0.1995225E+03  0.7818608E-02  0.1150212E+00
         21   -1    0    0  501  502  0.00000000000E+00  0.00000000000E+00  0.11230050832E+03  0.11230050832E+03  0.00000000000E+00 0.  1.
         21   -1    0    0  502  503 -0.00000000000E+00 -0.00000000000E+00 -0.35571633382E+03  0.35571633382E+03  0.00000000000E+00 0.  1.
         -6    2    1    2    0  503 -0.14001827449E+02  0.99189345988E+02 -0.13848883385E+03  0.24287521808E+03  0.17255328721E+03 0.  0.
        -24    2    3    3    0    0 -0.21954861798E+02 -0.14031082055E+02 -0.70131192394E+02  0.11029704029E+03  0.81044220827E+02 0.  0.
          6    2    1    2  501    0  0.14001827449E+02 -0.99189345988E+02 -0.10492699165E+03  0.22514162406E+03  0.17217578163E+03 0.  0.
         24    2    5    5    0    0 -0.30275928349E+02 -0.15612564397E+02 -0.44171945149E+01  0.87047788573E+02  0.79983885149E+02 0.  0.
          5    1    5    5  501    0  0.44277755798E+02 -0.83576781591E+02 -0.10050979714E+03  0.13809383549E+03  0.47000000000E+01 0. -1.
        -13    1    6    6    0    0  0.25373962072E+02  0.37660022990E+01  0.79120468612E+01  0.26844388801E+02  0.00000000000E+00 0.  1.
         14    1    6    6    0    0 -0.55649890422E+02 -0.19378566696E+02 -0.12329241376E+02  0.60203399772E+02  0.00000000000E+00 0. -1.
         -5    1    3    3    0  503  0.79530343494E+01  0.11322042804E+03 -0.68357641457E+02  0.13257817779E+03  0.47000000000E+01 0.  1.
         11    1    4    4    0    0 -0.21177711938E+02  0.32089899931E+02 -0.25667268581E+02  0.46228409413E+02  0.00000000000E+00 0. -1.
        -12    1    4    4    0    0 -0.77714986012E+00 -0.46120981986E+02 -0.44463923813E+02  0.64068630874E+02  0.00000000000E+00 0.  1.
</event>
<event>
12    1  0.1066489E+000  0.2178375E+03  0.7818608E-02  0.1137028E+00
         21   -1    0    0  501  502  0.00000000000E+00  0.00000000000E+00  0.25321028936E+03  0.25321028936E+03  0.00000000000E+00 0.  1.
         21   -1    0    0  502  503 -0.00000000000E+00 -0.00000000000E+00 -0.18526390876E+03  0.18526390876E+03  0.00000000000E+00 0.  1.
         -6    2    1    2    0  503  0.37458734491E+02 -0.12719511110E+03  0.67890095211E+02  0.22063669841E+03  0.16275667291E+03 0.  0.
        -24    2    3    3    0    0 -0.19348743015E+02 -0.12752154093E+03  0.62584258236E+02  0.16338778607E+03  0.78375136377E+02 0.  0.
          6    2    1    2  501    0 -0.37458734491E+02  0.12719511110E+03  0.56285389391E-01  0.21783749971E+03  0.17283350379E+03 0.  0.
         24    2    5    5    0    0  0.20498573514E+02  0.58157304672E+01 -0.63066219694E+01  0.83098566263E+02  0.80072367253E+02 0.  0.
          5    1    5    5  501    0 -0.57957308005E+02  0.12137938064E+03  0.63629073588E+01  0.13473893344E+03  0.47000000000E+01 0. -1.
        -11    1    6    6    0    0 -0.22366399823E-01 -0.25474943108E+02  0.23958920133E+02  0.34971460944E+02  0.00000000000E+00 0.  1.
         12    1    6    6    0    0  0.20520939913E+02  0.31290673575E+02 -0.30265542103E+02  0.48127105320E+02  0.00000000000E+00 0. -1.
         -5    1    3    3    0  503  0.56807477507E+02  0.32642982482E+00  0.53058369752E+01  0.57248912331E+02  0.47000000000E+01 0.  1.
         13    1    4    4    0    0  0.17401621027E+02 -0.10769448786E+03  0.47587036926E+02  0.11901867590E+03  0.00000000000E+00 0. -1.
        -14    1    4    4    0    0 -0.36750364042E+02 -0.19827053072E+02  0.14997221310E+02  0.44369110176E+02  0.00000000000E+00 0.  1.
</event>
<event>
12    1  0.1066489E+000  0.2079985E+03  0.7818608E-02  0.1143713E+00
         21   -1    0    0  503  502  0.00000000000E+00  0.00000000000E+00  0.34232504485E+03  0.34232504485E+03  0.00000000000E+00 0. -1.
         21   -1    0    0  501  503 -0.00000000000E+00 -0.00000000000E+00 -0.12950521159E+03  0.12950521159E+03  0.00000000000E+00 0. -1.
          6    2    1    2  501    0 -0.11074145449E+03 -0.35414570379E+02  0.61767833046E+02  0.21697612651E+03  0.17246887470E+03 0.  0.
         24    2    3    3    0    0 -0.22743941874E+02 -0.39245430938E+00  0.85644224345E+02  0.11918920049E+03  0.79710046018E+02 0.  0.
         -6    2    1    2    0  502  0.11074145449E+03  0.35414570379E+02  0.15105200021E+03  0.25485412993E+03  0.16916281873E+03 0.  0.
        -24    2    5    5    0    0  0.68096792158E+02 -0.81206850510E+00  0.16538802560E+03  0.19690114714E+03  0.82334866108E+02 0.  0.
          5    1    3    3  501    0 -0.87997512611E+02 -0.35022116069E+02 -0.23876391299E+02  0.97786926024E+02  0.47000000000E+01 0. -1.
        -13    1    4    4    0    0  0.20741667378E+02 -0.14273548502E+02  0.37827476127E+01  0.25460953084E+02  0.00000000000E+00 0.  1.
         14    1    4    4    0    0 -0.43485609252E+02  0.13881094192E+02  0.81861476732E+02  0.93728247401E+02  0.00000000000E+00 0. -1.
         -5    1    5    5    0  502  0.42644662327E+02  0.36226638884E+02 -0.14336025394E+02  0.57952982787E+02  0.47000000000E+01 0.  1.
         13    1    6    6    0    0  0.18171978212E+02 -0.36025195312E+02  0.97784508101E+02  0.10578206613E+03  0.00000000000E+00 0. -1.
        -14    1    6    6    0    0  0.49924813947E+02  0.35213126807E+02  0.67603517499E+02  0.91119081017E+02  0.00000000000E+00 0.  1.
</event>
<event>
12    1  0.1066489E+000  0.1936739E+03  0.7818608E-02  0.1155607E+00
         21   -1    0    0  501  502  0.00000000000E+00  0.00000000000E+00  0.79332306760E+03  0.79332306760E+03  0.00000000000E+00 0.  1.
         21   -1    0    0  502  503 -0.00000000000E+00 -0.00000000000E+00 -0.56353738980E+02  0.56353738980E+02  0.00000000000E+00 0.  1.
         -6    2    1    2    0  503  0.72035492652E+02 -0.70498091679E+02  0.54170986968E+03  0.57465712499E+03  0.16316291017E+03 0.  0.
        -24    2    3    3    0    0  0.72855995473E+02 -0.42121853611E+02  0.53178300191E+03  0.54421838626E+03  0.79361478023E+02 0.  0.
          6    2    1    2  501    0 -0.72035492652E+02  0.70498091679E+02  0.19525945893E+03  0.27501968159E+03  0.16537979268E+03 0.  0.
         24    2    5    5    0    0  0.20441544979E+02  0.47530133029E+02  0.75642294429E+02  0.12201678731E+03  0.80556622150E+02 0.  0.
          5    1    5    5  501    0 -0.92477037631E+02  0.22967958650E+02  0.11961716450E+03  0.15300289428E+03  0.47000000000E+01 0. -1.
        -13    1    6    6    0    0  0.41500357076E+02  0.14699142510E+02  0.69874651760E+02  0.82588203677E+02  0.00000000000E+00 0.  1.
         14    1    6    6    0    0 -0.21058812097E+02  0.32830990519E+02  0.57676426688E+01  0.39428583633E+02  0.00000000000E+00 0. -1.
         -5    1    3    3    0  503 -0.82050282091E+00 -0.28376238068E+02  0.99268677761E+01  0.30438738732E+02  0.47000000000E+01 0.  1.
         11    1    4    4    0    0  0.19806923916E+02  0.16714573969E+02  0.25522662685E+03  0.25653912425E+03  0.00000000000E+00 0. -1.
        -12    1    4    4    0    0  0.53049071556E+02 -0.58836427580E+02  0.27655637506E+03  0.28767926201E+03  0.00000000000E+00 0.  1.
</event>
<event>
12    1  0.1066489E+000  0.2587605E+03  0.7818608E-02  0.1108190E+00
         21   -1    0    0  501  502  0.00000000000E+00  0.00000000000E+00  0.19715958591E+03  0.19715958591E+03  0.00000000000E+00 0.  1.
         21   -1    0    0  502  503 -0.00000000000E+00 -0.00000000000E+00 -0.36154115567E+03  0.36154115567E+03  0.00000000000E+00 0.  1.
         -6    2    1    2    0  503 -0.13704853204E+03 -0.13116737030E+03 -0.97350194438E+01  0.25894354786E+03  0.17598241734E+03 0.  0.
        -24    2    3    3    0    0 -0.32759156461E+02 -0.73603871149E+02 -0.63105862133E+02  0.12832820749E+03  0.77427945995E+02 0.  0.
          6    2    1    2  501    0  0.13704853204E+03  0.13116737030E+03 -0.15464655032E+03  0.29975719372E+03  0.17306542259E+03 0.  0.
         24    2    5    5    0    0  0.27536212558E+02  0.10446811546E+03 -0.12227771955E+03  0.18238756591E+03  0.81495725977E+02 0.  0.
          5    1    5    5  501    0  0.10951231948E+03  0.26699254841E+02 -0.32368830773E+02  0.11736962781E+03  0.47000000000E+01 0. -1.
        -11    1    6    6    0    0  0.34992547631E+02  0.11503487680E+03 -0.11872295474E+03  0.16897526816E+03  0.00000000000E+00 0.  1.
         12    1    6    6    0    0 -0.74563350724E+01 -0.10566761343E+02 -0.35547648085E+01  0.13412297746E+02  0.00000000000E+00 0. -1.
         -5    1    3    3    0  503 -0.10428937558E+03 -0.57563499147E+02  0.53370842690E+02  0.13061534038E+03  0.47000000000E+01 0.  1.
         11    1    4    4    0    0 -0.51642531801E+02 -0.76695666446E+02 -0.49781880153E+02  0.10501148477E+03  0.00000000000E+00 0. -1.
        -12    1    4    4    0    0  0.18883375340E+02  0.30917952966E+01 -0.13323981981E+02  0.23316722716E+02  0.00000000000E+00 0.  1.
</event>
<event>
12    1  0.1066489E+000  0.4291993E+03  0.7818608E-02  0.1034221E+00
         21   -1    0    0  503  502  0.00000000000E+00  0.00000000000E+00  0.16209560254E+04  0.16209560254E+04  0.00000000000E+00 0.  1.
         21   -1    0    0  501  503 -0.00000000000E+00 -0.00000000000E+00 -0.13635505878E+03  0.13635505878E+03  0.00000000000E+00 0.  1.
          6    2    1    2  501    0  0.37935747951E+03 -0.10049828668E+03  0.11027437639E+04  0.11828313471E+04  0.17039420188E+03 0.  0.
         24    2    3    3    0    0  0.20049764948E+03 -0.11149850677E+03  0.72706517802E+03  0.76657621679E+03  0.79900554446E+02 0.  0.
         -6    2    1    2    0  502 -0.37935747951E+03  0.10049828668E+03  0.38185720275E+03  0.57447973709E+03  0.17378159325E+03 0.  0.
        -24    2    5    5    0    0 -0.82488706917E+02 -0.35134129843E+01  0.88849719479E+02  0.14456698192E+03  0.78667711101E+02 0.  0.
          5    1    3    3  501    0  0.17885983003E+03  0.11000220082E+02  0.37567858583E+03  0.41625513029E+03  0.47000000000E+01 0. -1.
        -11    1    4    4    0    0  0.16635206935E+02 -0.15428812329E+02  0.21914234609E+02  0.31543811408E+02  0.00000000000E+00 0.  1.
         12    1    4    4    0    0  0.18386244254E+03 -0.96069694436E+02  0.70515094341E+03  0.73503240538E+03  0.00000000000E+00 0. -1.
         -5    1    5    5    0  502 -0.29686877259E+03  0.10401169967E+03  0.29300748328E+03  0.42991275518E+03  0.47000000000E+01 0.  1.
         11    1    6    6    0    0 -0.78004378585E+02  0.26128477346E+02  0.75832614974E+02  0.11188371598E+03  0.00000000000E+00 0. -1.
        -12    1    6    6    0    0 -0.44843283323E+01 -0.29641890331E+02  0.13017104505E+02  0.32683265942E+02  0.00000000000E+00 0.  1.
</event>
<event>
12    1  0.1066489E+000  0.2150364E+03  0.7818608E-02  0.1137780E+00
         21   -1    0    0  501  502  0.00000000000E+00  0.00000000000E+00  0.10377541013E+04  0.10377541013E+04  0.00000000000E+00 0. -1.
         21   -1    0    0  502  503 -0.00000000000E+00 -0.00000000000E+00 -0.62417351847E+02  0.62417351847E+02  0.00000000000E+00 0. -1.
         -6    2    1    2    0  503  0.56578457683E+01 -0.12908634461E+03  0.78256772731E+03  0.81137990440E+03  0.17096726541E+03 0.  0.
        -24    2    3    3    0    0 -0.40298179374E+02 -0.13432303041E+03  0.67710596423E+03  0.69612517522E+03  0.80319070062E+02 0.  0.
          6    2    1    2  501    0 -0.56578457683E+01  0.12908634461E+03  0.19276902213E+03  0.28879154875E+03  0.17188765852E+03 0.  0.
         24    2    5    5    0    0 -0.49665440182E+02  0.10176839750E+03  0.69179618324E+02  0.15470437809E+03  0.79524602055E+02 0.  0.
          5    1    5    5  501    0  0.44007594413E+02  0.27317947110E+02  0.12358940381E+03  0.13408717066E+03  0.47000000000E+01 0. -1.
        -13    1    6    6    0    0 -0.18802879974E+02  0.96354665334E+01 -0.15190112021E+02  0.26021721961E+02  0.00000000000E+00 0.  1.
         14    1    6    6    0    0 -0.30862560208E+02  0.92132930962E+02  0.84369730345E+02  0.12868265613E+03  0.00000000000E+00 0. -1.
         -5    1    3    3    0  503  0.45956025143E+02  0.52366858074E+01  0.10546176309E+03  0.11525472918E+03  0.47000000000E+01 0.  1.
         11    1    4    4    0    0  0.22728655788E+01 -0.11359132194E+03  0.44847584437E+03  0.46264320737E+03  0.00000000000E+00 0. -1.
        -12    1    4    4    0    0 -0.42571044953E+02 -0.20731708469E+02  0.22863011986E+03  0.23348196785E+03  0.00000000000E+00 0.  1.
</event>
<event>
12    1  0.1066489E+000  0.2029896E+03  0.7818608E-02  0.1147700E+00
         21   -1    0    0  501  502  0.00000000000E+00  0.00000000000E+00  0.78836972760E+03  0.78836972760E+03  0.00000000000E+00 0.  1.
         21   -1    0    0  502  503 -0.00000000000E+00 -0.00000000000E+00 -0.51741184247E+02  0.51741184247E+02  0.00000000000E+00 0.  1.
         -6    2    1    2    0  503  0.27375104494E+01 -0.10423756344E+03  0.35838918646E+03  0.41188299647E+03  0.17416035774E+03 0.  0.
        -24    2    3    3    0    0 -0.38979230342E+02 -0.10329563849E+03  0.17447364583E+03  0.22323467347E+03  0.84872239387E+02 0.  0.
          6    2    1    2  501    0 -0.27375104494E+01  0.10423756344E+03  0.37823935689E+03  0.42822791538E+03  0.17158430235E+03 0.  0.
         24    2    5    5    0    0  0.51049863874E+02  0.81130376061E+02  0.16306593242E+03  0.20518371272E+03  0.79508685850E+02 0.  0.
          5    1    5    5  501    0 -0.53787374324E+02  0.23107187383E+02  0.21517342447E+03  0.22304420266E+03  0.47000000000E+01 0. -1.
        -13    1    6    6    0    0  0.19621869387E+01  0.41854123299E+01 -0.91646833804E+01  0.10264466641E+02  0.00000000000E+00 0.  1.
         14    1    6    6    0    0  0.49087676936E+02  0.76944963731E+02  0.17223061580E+03  0.19491924608E+03  0.00000000000E+00 0. -1.
         -5    1    3    3    0  503  0.41716740791E+02 -0.94192495038E+00  0.18391554063E+03  0.18864832300E+03  0.47000000000E+01 0.  1.
         11    1    4    4    0    0 -0.43310461493E+02 -0.11614159676E+03  0.14478512626E+03  0.19059747994E+03  0.00000000000E+00 0. -1.
        -12    1    4    4    0    0  0.43312311514E+01  0.12845958267E+02  0.29688519568E+02  0.32637193526E+02  0.00000000000E+00 0.  1.
</event>
<event>
12    1  0.1066489E+000  0.4644334E+03  0.7818608E-02  0.1023609E+00
         21   -1    0    0  503  502  0.00000000000E+00  0.00000000000E+00  0.24386836232E+03  0.24386836232E+03  0.00000000000E+00 0.  1.
         21   -1    0    0  501  503 -0.00000000000E+00 -0.00000000000E+00 -0.98332697210E+03  0.98332697210E+03  0.00000000000E+00 0.  1.
          6    2    1    2  501    0  0.40552889783E+03 -0.14364467971E+03 -0.17191303814E+03  0.49384248613E+03  0.17099364735E+03 0.  0.
         24    2    3    3    0    0  0.40296859223E+03 -0.13535373919E+03 -0.19097957143E+03  0.47237349567E+03  0.77195865626E+02 0.  0.
         -6    2    1    2    0  502 -0.40552889783E+03  0.14364467971E+03 -0.56754557164E+03  0.73335284830E+03  0.17495983319E+03 0.  0.
        -24    2    5    5    0    0 -0.16580870033E+03  0.90797428680E+02 -0.17103680628E+03  0.26698400710E+03  0.79310609529E+02 0.  0.
          5    1    3    3  501    0  0.25603055961E+01 -0.82909405261E+01  0.19066533288E+02  0.21468990456E+02  0.47000000000E+01 0. -1.
        -11    1    4    4    0    0  0.15903151485E+03 -0.33693936723E+02 -0.37735092288E+02  0.16688391558E+03  0.00000000000E+00 0.  1.
         12    1    4    4    0    0  0.24393707738E+03 -0.10165980247E+03 -0.15324447914E+03  0.30548958009E+03  0.00000000000E+00 0. -1.
         -5    1    5    5    0  502 -0.23972019750E+03  0.52847251034E+02 -0.39650876536E+03  0.46636884120E+03  0.47000000000E+01 0.  1.
         11    1    6    6    0    0 -0.37569537984E+02  0.23458298217E+02 -0.91696848426E+02  0.10183356004E+03  0.00000000000E+00 0. -1.
        -12    1    6    6    0    0 -0.12823916234E+03  0.67339130464E+02 -0.79339957852E+02  0.16515044705E+03  0.00000000000E+00 0.  1.
</event>
<event>
12    1  0.1066489E+000  0.1919403E+03  0.7818608E-02  0.1158291E+00
         21   -1    0    0  503  502  0.00000000000E+00  0.00000000000E+00  0.48563620419E+03  0.48563620419E+03  0.00000000000E+00 0.  1.
         21   -1    0    0  501  503 -0.00000000000E+00 -0.00000000000E+00 -0.79236559748E+02  0.79236559748E+02  0.00000000000E+00 0.  1.
          6    2    1    2  501    0  0.67277622435E+02  0.92451489750E+01  0.12840845782E+03  0.23093245842E+03  0.17952525463E+03 0.  0.
         24    2    3    3    0    0  0.30115973197E+02 -0.34437077115E+02  0.17280627194E+01  0.91795340607E+02  0.79564528746E+02 0.  0.
         -6    2    1    2    0  502 -0.67277622435E+02 -0.92451489750E+01  0.27799118663E+03  0.33394030553E+03  0.17211994815E+03 0.  0.
        -24    2    5    5    0    0 -0.10869664496E+03 -0.20626819250E+02  0.17442366291E+03  0.22171998733E+03  0.80595981920E+02 0.  0.
          5    1    3    3  501    0  0.37161649237E+02  0.43682226090E+02  0.12668039510E+03  0.13913711781E+03  0.47000000000E+01 0. -1.
        -13    1    4    4    0    0  0.37316873451E+02 -0.31075734245E+02 -0.31332879863E+02  0.57792730196E+02  0.00000000000E+00 0.  1.
         14    1    4    4    0    0 -0.72009002533E+01 -0.33613428700E+01  0.33060942582E+02  0.34002610411E+02  0.00000000000E+00 0. -1.
         -5    1    5    5    0  502  0.41419022529E+02  0.11381670275E+02  0.10356752372E+03  0.11222031819E+03  0.47000000000E+01 0.  1.
         11    1    6    6    0    0 -0.41888026059E+02 -0.46569094368E+02  0.10292153428E+03  0.12048290126E+03  0.00000000000E+00 0. -1.
        -12    1    6    6    0    0 -0.66808618905E+02  0.25942275118E+02  0.71502128633E+02  0.10123708608E+03  0.00000000000E+00 0.  1.
</event>
<event>
12    1  0.1066489E+000  0.2221934E+03  0.7818608E-02  0.1132407E+00
         21   -1    0    0  501  502  0.00000000000E+00  0.00000000000E+00  0.22087030392E+03  0.22087030392E+03  0.00000000000E+00 0.  1.
         21   -1    0    0  502  503 -0.00000000000E+00 -0.00000000000E+00 -0.23420836717E+03  0.23420836717E+03  0.00000000000E+00 0.  1.
         -6    2    1    2    0  503 -0.13782680138E+03  0.24644957882E+02  0.43727529449E+02  0.22645534202E+03  0.17252919744E+03 0.  0.
        -24    2    3    3    0    0 -0.10023533994E+03  0.11351513276E+02 -0.38823505200E+02  0.13465884446E+03  0.80310395392E+02 0.  0.
          6    2    1    2  501    0  0.13782680138E+03 -0.24644957882E+02 -0.57065592696E+02  0.22862332907E+03  0.17148919383E+03 0.  0.
         24    2    5    5    0    0  0.90177673018E+01 -0.41764397002E+02 -0.28045108974E+02  0.95397502257E+02  0.80551662401E+02 0.  0.
          5    1    5    5  501    0  0.12880903407E+03  0.17119439120E+02 -0.29020483722E+02  0.13322582681E+03  0.47000000000E+01 0. -1.
        -11    1    6    6    0    0  0.30791017830E+02 -0.36451293634E+02 -0.46303819803E+02  0.66489302259E+02  0.00000000000E+00 0.  1.
         12    1    6    6    0    0 -0.21773250528E+02 -0.53131033685E+01  0.18258710830E+02  0.28908199998E+02  0.00000000000E+00 0. -1.
         -5    1    3    3    0  503 -0.37591461436E+02  0.13293444606E+02  0.82551034649E+02  0.91796497558E+02  0.47000000000E+01 0.  1.
         13    1    4    4    0    0 -0.39007197192E+02  0.18387891953E+02  0.21702597194E+02  0.48277103561E+02  0.00000000000E+00 0. -1.
        -14    1    4    4    0    0 -0.61228142747E+02 -0.70363786771E+01 -0.60526102394E+02  0.86381740896E+02  0.00000000000E+00 0.  1.
</event>
<event>
12    1  0.1066489E+000  0.2236036E+03  0.7818608E-02  0.1131707E+00
         21   -1    0    0  503  502  0.00000000000E+00  0.00000000000E+00  0.15208025669E+03  0.15208025669E+03  0.00000000000E+00 0. -1.
         21   -1    0    0  501  503 -0.00000000000E+00 -0.00000000000E+00 -0.64113583739E+03  0.64113583739E+03  0.00000000000E+00 0. -1.
          6    2    1    2  501    0 -0.14161227590E+03 -0.18807942170E+02  0.34738154331E+02  0.22369132999E+03  0.16859210056E+03 0.  0.
         24    2    3    3    0    0 -0.23431081660E+02 -0.51967022566E+02  0.20286285153E+02  0.10000921403E+03  0.79628653785E+02 0.  0.
         -6    2    1    2    0  502  0.14161227590E+03  0.18807942170E+02 -0.52379373503E+03  0.56952476410E+03  0.17201977994E+03 0.  0.
        -24    2    5    5    0    0  0.83506328652E+02  0.64552885856E+02 -0.21772570408E+03  0.25461425213E+03  0.79268866360E+02 0.  0.
          5    1    3    3  501    0 -0.11818119424E+03  0.33159080396E+02  0.14451869178E+02  0.12368211596E+03  0.47000000000E+01 0. -1.
        -11    1    4    4    0    0 -0.51252359687E+02 -0.23083691892E+02  0.28604669752E+01  0.56283598643E+02  0.00000000000E+00 0.  1.
         12    1    4    4    0    0  0.27821278027E+02 -0.28883330674E+02  0.17425818178E+02  0.43725615388E+02  0.00000000000E+00 0. -1.
         -5    1    5    5    0  502  0.58105947248E+02 -0.45744943686E+02 -0.30606803094E+03  0.31491051196E+03  0.47000000000E+01 0.  1.
         13    1    6    6    0    0  0.14511224761E+01  0.31466551251E+02 -0.11404413219E+03  0.11831446949E+03  0.00000000000E+00 0. -1.
        -14    1    6    6    0    0  0.82055206176E+02  0.33086334605E+02 -0.10368157189E+03  0.13629978264E+03  0.00000000000E+00 0.  1.
</event>
<event>
12    1  0.1066489E+000  0.1937927E+03  0.7818608E-02  0.1155859E+00
         21   -1    0    0  501  502  0.00000000000E+00  0.00000000000E+00  0.12983952335E+03  0.12983952335E+03  0.00000000000E+00 0.  1.
         21   -1    0    0  502  503 -0.00000000000E+00 -0.00000000000E+00 -0.30343250121E+03  0.30343250121E+03  0.00000000000E+00 0. -1.
         -6    2    1    2    0  503  0.97362525551E+00  0.83132851032E+02 -0.31325772924E+02  0.19286493293E+03  0.17118282460E+03 0.  0.
        -24    2    3    3    0    0 -0.13081749255E+02  0.64926312839E+01 -0.70289906505E+02  0.10562061770E+03  0.77471010717E+02 0.  0.
          6    2    1    2  501    0 -0.97362525551E+00 -0.83132851032E+02 -0.14226720493E+03  0.24040709163E+03  0.17505311548E+03 0.  0.
         24    2    5    5    0    0  0.51887241023E+02 -0.87653533508E+02 -0.53577281048E+02  0.13695323548E+03  0.74230963525E+02 0.  0.
          5    1    5    5  501    0 -0.52860866278E+02  0.45206824755E+01 -0.88689923886E+02  0.10345385615E+03  0.47000000000E+01 0. -1.
        -13    1    6    6    0    0 -0.22768234386E+01 -0.25445934870E+02 -0.47884587610E+02  0.54273504189E+02  0.00000000000E+00 0.  1.
         14    1    6    6    0    0  0.54164064461E+02 -0.62207598638E+02 -0.56926934380E+01  0.82679731288E+02  0.00000000000E+00 0. -1.
         -5    1    3    3    0  503  0.14055374511E+02  0.76640219748E+02  0.38964133581E+02  0.87244315238E+02  0.47000000000E+01 0.  1.
         13    1    4    4    0    0  0.16332014775E+02  0.34524705589E+02 -0.34925676643E+02  0.51754158206E+02  0.00000000000E+00 0. -1.
        -14    1    4    4    0    0 -0.29413764030E+02 -0.28032074305E+02 -0.35364229862E+02  0.53866459490E+02  0.00000000000E+00 0.  1.
</event>
<event>
12    1  0.1066489E+000  0.2015931E+03  0.7818608E-02  0.1148872E+00
         21   -1    0    0  501  502  0.00000000000E+00  0.00000000000E+00  0.41853510203E+03  0.41853510203E+03  0.00000000000E+00 0.  1.
         21   -1    0    0  502  503 -0.00000000000E+00 -0.00000000000E+00 -0.13742676902E+03  0.13742676902E+03  0.00000000000E+00 0.  1.
         -6    2    1    2    0  503  0.27901484726E+02  0.97778147227E+02 -0.12569899498E+02  0.19975032306E+03  0.17147340979E+03 0.  0.
        -24    2    3    3    0    0  0.51272195794E+02  0.10031085225E+03 -0.53727927747E+02  0.15211968145E+03  0.86963222827E+02 0.  0.
          6    2    1    2  501    0 -0.27901484726E+02 -0.97778147227E+02  0.29367823251E+03  0.35621154799E+03  0.17407097331E+03 0.  0.
         24    2    5    5    0    0 -0.41326661095E+02  0.31777549654E+01  0.88141696896E+02  0.12677814367E+03  0.81152621255E+02 0.  0.
          5    1    5    5  501    0  0.13425176369E+02 -0.10095590219E+03  0.20553653561E+03  0.22943340432E+03  0.47000000000E+01 0. -1.
        -11    1    6    6    0    0  0.18492579335E+02  0.13807710714E+02  0.49926366944E+02  0.55002458871E+02  0.00000000000E+00 0.  1.
         12    1    6    6    0    0 -0.59819240430E+02 -0.10629955748E+02  0.38215329951E+02  0.71775684797E+02  0.00000000000E+00 0. -1.
         -5    1    3    3    0  503 -0.23370711068E+02 -0.25327050249E+01  0.41158028249E+02  0.47630641607E+02  0.47000000000E+01 0.  1.
         11    1    4    4    0    0 -0.13789862927E+02  0.20768174051E+02  0.14433881170E+02  0.28806497506E+02  0.00000000000E+00 0. -1.
        -12    1    4    4    0    0  0.65062058720E+02  0.79542678201E+02 -0.68161808917E+02  0.12331318395E+03  0.00000000000E+00 0.  1.
</event>
<event>
12    1  0.1066489E+000  0.1836476E+03  0.7818608E-02  0.1164454E+00
         21   -1    0    0  501  502  0.00000000000E+00  0.00000000000E+00  0.53090104553E+03  0.53090104553E+03  0.00000000000E+00 0.  1.
         21   -1    0    0  502  503 -0.00000000000E+00 -0.00000000000E+00 -0.13083630424E+03  0.13083630424E+03  0.00000000000E+00 0.  1.
         -6    2    1    2    0  503  0.61820106434E+02  0.12800249482E+02  0.43784910739E+03  0.47480341523E+03  0.17245541547E+03 0.  0.
        -24    2    3    3    0    0  0.48647188728E+02 -0.46451543869E+02  0.16460943175E+03  0.19486358041E+03  0.79694761745E+02 0.  0.
          6    2    1    2  501    0 -0.61820106434E+02 -0.12800249482E+02 -0.37784366105E+02  0.18693393454E+03  0.17184605207E+03 0.  0.
         24    2    5    5    0    0 -0.26688898514E+02  0.54085425551E+02  0.43130051116E+01  0.10031884372E+03  0.80048346831E+02 0.  0.
          5    1    5    5  501    0 -0.35131207919E+02 -0.66885675033E+02 -0.42097371217E+02  0.86615090820E+02  0.47000000000E+01 0. -1.
        -11    1    6    6    0    0  0.22703554908E+02  0.14663246471E+02  0.21827838014E+02  0.34740706885E+02  0.00000000000E+00 0.  1.
         12    1    6    6    0    0 -0.49392453422E+02  0.39422179080E+02 -0.17514832902E+02  0.65578136830E+02  0.00000000000E+00 0. -1.
         -5    1    3    3    0  503  0.13172917706E+02  0.59251793350E+02  0.27323967564E+03  0.27993983482E+03  0.47000000000E+01 0.  1.
         11    1    4    4    0    0  0.69102579166E+02 -0.23114693549E+02  0.12288102115E+03  0.14286077441E+03  0.00000000000E+00 0. -1.
        -12    1    4    4    0    0 -0.20455390438E+02 -0.23336850320E+02  0.41728410599E+02  0.52002806000E+02  0.00000000000E+00 0.  1.
</event>
<event>
12    1  0.1066489E+000  0.2179000E+03  0.7818608E-02  0.1135735E+00
         21   -1    0    0  503  502  0.00000000000E+00  0.00000000000E+00  0.82748267931E+02  0.82748267931E+02  0.00000000000E+00 0. -1.
         21   -1    0    0  501  503 -0.00000000000E+00 -0.00000000000E+00 -0.59336074044E+03  0.59336074044E+03  0.00000000000E+00 0. -1.
          6    2    1    2  501    0  0.14675931555E+02 -0.13074516228E+03 -0.32162181813E+03  0.38766858733E+03  0.17186232654E+03 0.  0.
         24    2    3    3    0    0  0.46648411532E+02 -0.27913128502E+02 -0.97022137758E+02  0.13854256888E+03  0.82616772729E+02 0.  0.
         -6    2    1    2    0  502 -0.14675931555E+02  0.13074516228E+03 -0.18899065438E+03  0.28844042104E+03  0.17369723262E+03 0.  0.
        -24    2    5    5    0    0  0.29973537780E+02  0.32933693387E+02 -0.14620097397E+03  0.17262286923E+03  0.80255149757E+02 0.  0.
          5    1    3    3  501    0 -0.31972479977E+02 -0.10283203377E+03 -0.22459968037E+03  0.24912601845E+03  0.47000000000E+01 0. -1.
        -13    1    4    4    0    0 -0.15543242019E+02 -0.23334052147E+02 -0.67712724471E+01  0.28843031960E+02  0.00000000000E+00 0.  1.
         14    1    4    4    0    0  0.62191653551E+02 -0.45790763548E+01 -0.90250865310E+02  0.10969953692E+03  0.00000000000E+00 0. -1.
         -5    1    5    5    0  502 -0.44649469335E+02  0.97811468890E+02 -0.42789680408E+02  0.11581755181E+03  0.47000000000E+01 0.  1.
         11    1    6    6    0    0 -0.15602021098E+02  0.18438857494E+02 -0.11005627665E+03  0.11267563427E+03  0.00000000000E+00 0. -1.
        -12    1    6    6    0    0  0.45575558878E+02  0.14494835893E+02 -0.36144697326E+02  0.59947234960E+02  0.00000000000E+00 0.  1.
</event>
<event>
12    1  0.1066489E+000  0.6727867E+03  0.7818608E-02  0.9765064E-01
         21   -1    0    0  503  502  0.00000000000E+00  0.00000000000E+00  0.86639501929E+03  0.86639501929E+03  0.00000000000E+00 0. -1.
         21   -1    0    0  501  503 -0.00000000000E+00 -0.00000000000E+00 -0.66475412333E+03  0.66475412333E+03  0.00000000000E+00 0.  1.
          6    2    1    2  501    0  0.30207932186E+03  0.57571962709E+03  0.45530109063E+03  0.81213212981E+03  0.17191424442E+03 0.  0.
         24    2    3    3    0    0  0.12376207503E+03  0.37077267557E+03  0.24154520286E+03  0.46642421407E+03  0.80112634929E+02 0.  0.
         -6    2    1    2    0  502 -0.30207932186E+03 -0.57571962709E+03 -0.25366019468E+03  0.71901701281E+03  0.17302301766E+03 0.  0.
        -24    2    5    5    0    0 -0.28904932054E+03 -0.43335699745E+03 -0.22706345769E+03  0.57353032727E+03  0.77662252971E+02 0.  0.
          5    1    3    3  501    0  0.17831724683E+03  0.20494695151E+03  0.21375588776E+03  0.34570791574E+03  0.47000000000E+01 0. -1.
        -13    1    4    4    0    0  0.54873601147E+01  0.35328275574E+02  0.52791151213E+02  0.63758166712E+02  0.00000000000E+00 0.  1.
         14    1    4    4    0    0  0.11827471491E+03  0.33544440000E+03  0.18875405165E+03  0.40266604736E+03  0.00000000000E+00 0. -1.
         -5    1    5    5    0  502 -0.13030001322E+02 -0.14236262964E+03 -0.26596736983E+02  0.14548668554E+03  0.47000000000E+01 0.  1.
         13    1    6    6    0    0 -0.10369117775E+03 -0.11228281731E+03 -0.95088649960E+02  0.18000317430E+03  0.00000000000E+00 0. -1.
        -14    1    6    6    0    0 -0.18535814279E+03 -0.32107418013E+03 -0.13197480773E+03  0.39352715296E+03  0.00000000000E+00 0.  1.
</event>
<event>
12    1  0.1066489E+000  0.2015987E+03  0.7818608E-02  0.1149159E+00
         21   -1    0    0  501  502  0.00000000000E+00  0.00000000000E+00  0.32493028320E+03  0.32493028320E+03  0.00000000000E+00 0. -1.
         21   -1    0    0  502  503 -0.00000000000E+00 -0.00000000000E+00 -0.13458020444E+03  0.13458020444E+03  0.00000000000E+00 0. -1.
         -6    2    1    2    0  503 -0.87937330614E+02  0.43085505416E+02  0.16222961251E+03  0.25596002142E+03  0.17206902830E+03 0.  0.
        -24    2    3    3    0    0  0.21731840190E+02  0.23763663909E+02  0.58339083440E+02  0.10359207002E+03  0.79315091341E+02 0.  0.
          6    2    1    2  501    0  0.87937330614E+02 -0.43085505416E+02  0.28120466252E+02  0.20355046623E+03  0.17621775389E+03 0.  0.
         24    2    5    5    0    0  0.33812949498E+02 -0.75139642766E+02  0.62897938742E+02  0.13151936915E+03  0.80943883623E+02 0.  0.
          5    1    5    5  501    0  0.54124381116E+02  0.32054137350E+02 -0.34777472490E+02  0.72031097071E+02  0.47000000000E+01 0. -1.
        -11    1    6    6    0    0  0.42737285101E+01  0.72152736316E+01  0.40289825007E+02  0.41153310050E+02  0.00000000000E+00 0.  1.
         12    1    6    6    0    0  0.29539220988E+02 -0.82354916398E+02  0.22608113735E+02  0.90366059104E+02  0.00000000000E+00 0. -1.
         -5    1    3    3    0  503 -0.10966917080E+03  0.19321841507E+02  0.10389052907E+03  0.15236795140E+03  0.47000000000E+01 0.  1.
         11    1    4    4    0    0 -0.25565654999E+02  0.35776461353E+01  0.42602110604E+02  0.49813071531E+02  0.00000000000E+00 0. -1.
        -12    1    4    4    0    0  0.47297495189E+02  0.20186017774E+02  0.15736972836E+02  0.53778998491E+02  0.00000000000E+00 0.  1.
</event>
<event>
12    1  0.1066489E+000  0.1892274E+03  0.7818608E-02  0.1159216E+00
         21   -1    0    0  503  502  0.00000000000E+00  0.00000000000E+00  0.15872016391E+03  0.15872016391E+03  0.00000000000E+00 0.  1.
         21   -1    0    0  501  503 -0.00000000000E+00 -0.00000000000E+00 -0.25192047808E+03  0.25192047808E+03  0.00000000000E+00 0.  1.
          6    2    1    2  501    0  0.83068462740E+02 -0.19912139147E+02  0.20110816083E+02  0.19029304299E+03  0.16884944329E+03 0.  0.
         24    2    3    3    0    0  0.11244185610E+03 -0.27668817524E+02 -0.18120739758E+02  0.14123487181E+03  0.78804779927E+02 0.  0.
         -6    2    1    2    0  502 -0.83068462740E+02  0.19912139147E+02 -0.11331113026E+03  0.22034759900E+03  0.16857280136E+03 0.  0.
        -24    2    5    5    0    0 -0.89332616978E+02 -0.20581843384E+02 -0.12777645661E+03  0.17664018641E+03  0.80442550043E+02 0.  0.
          5    1    3    3  501    0 -0.29373393362E+02  0.77566783763E+01  0.38231555842E+02  0.49058171176E+02  0.47000000000E+01 0. -1.
        -13    1    4    4    0    0  0.46310541281E+02  0.36844462345E+01 -0.43627030949E+02  0.63730363307E+02  0.00000000000E+00 0.  1.
         14    1    4    4    0    0  0.66131314821E+02 -0.31353263758E+02  0.25506291191E+02  0.77504508505E+02  0.00000000000E+00 0. -1.
         -5    1    5    5    0  502  0.62641542383E+01  0.40493982532E+02  0.14465326345E+02  0.43707412596E+02  0.47000000000E+01 0.  1.
         11    1    6    6    0    0 -0.73306407589E+00 -0.62635616243E+01 -0.69155976378E+02  0.69442916528E+02  0.00000000000E+00 0. -1.
        -12    1    6    6    0    0 -0.88599552902E+02 -0.14318281760E+02 -0.58620480229E+02  0.10719726988E+03  0.00000000000E+00 0.  1.
</event>
<event>
12    1  0.1066489E+000  0.2096965E+03  0.7818608E-02  0.1141821E+00
         21   -1    0    0  501  502  0.00000000000E+00  0.00000000000E+00  0.24198903039E+03  0.24198903039E+03  0.00000000000E+00 0.  1.
         21   -1    0    0  502  503 -0.00000000000E+00 -0.00000000000E+00 -0.18190991164E+03  0.18190991164E+03  0.00000000000E+00 0.  1.
         -6    2    1    2    0  503 -0.94459373970E+02 -0.74683273917E+02  0.38057137935E+02  0.21304925393E+03  0.17158518036E+03 0.  0.
        -24    2    3    3    0    0 -0.13319462118E+03 -0.50619833471E+02  0.29664499984E+02  0.16644458770E+03  0.80750501952E+02 0.  0.
          6    2    1    2  501    0  0.94459373970E+02  0.74683273917E+02  0.22021980820E+02  0.21084968810E+03  0.17167544554E+03 0.  0.
         24    2    5    5    0    0  0.39518347139E+02  0.43658656853E+02 -0.53156651894E+02  0.11259003153E+03  0.79894351995E+02 0.  0.
          5    1    5    5  501    0  0.54941026832E+02  0.31024617064E+02  0.75178632713E+02  0.98259656573E+02  0.47000000000E+01 0. -1.
        -11    1    6    6    0    0 -0.48584098218E+01  0.32989835744E+02  0.98675842959E+01  0.34775028803E+02  0.00000000000E+00 0.  1.
         12    1    6    6    0    0  0.44376756960E+02  0.10668821109E+02 -0.63024236190E+02  0.77815002727E+02  0.00000000000E+00 0. -1.
         -5    1    3    3    0  503  0.38735247206E+02 -0.24063440446E+02  0.83926379518E+01  0.46604666226E+02  0.47000000000E+01 0.  1.
         11    1    4    4    0    0 -0.76027989559E+02 -0.25674397030E+02  0.56913610898E+02  0.98379819906E+02  0.00000000000E+00 0. -1.
        -12    1    4    4    0    0 -0.57166631618E+02 -0.24945436441E+02 -0.27249110914E+02  0.68064767798E+02  0.00000000000E+00 0.  1.
</event>
<event>
12    1  0.1066489E+000  0.2096862E+03  0.7818608E-02  0.1141843E+00
         21   -1    0    0  501  502  0.00000000000E+00  0.00000000000E+00  0.14182039194E+03  0.14182039194E+03  0.00000000000E+00 0. -1.
         21   -1    0    0  502  503 -0.00000000000E+00 -0.00000000000E+00 -0.47104869125E+03  0.47104869125E+03  0.00000000000E+00 0.  1.
         -6    2    1    2    0  503  0.11378393135E+03 -0.37770665943E+02  0.14704034659E+02  0.21005678460E+03  0.17185528180E+03 0.  0.
        -24    2    3    3    0    0  0.40558004129E+02  0.17418434775E+02 -0.43966728000E+02  0.10109705972E+03  0.79619022504E+02 0.  0.
          6    2    1    2  501    0 -0.11378393135E+03  0.37770665943E+02 -0.34393233396E+03  0.40281229859E+03  0.17203165786E+03 0.  0.
         24    2    5    5    0    0 -0.31735826036E+02  0.74753369729E+02 -0.24114976277E+03  0.26611570424E+03  0.77904627707E+02 0.  0.
          5    1    5    5  501    0 -0.82048105314E+02 -0.36982703787E+02 -0.10278257119E+03  0.13669659435E+03  0.47000000000E+01 0. -1.
        -11    1    6    6    0    0  0.24389125888E+01  0.46903197628E+02 -0.20124205132E+03  0.20664999749E+03  0.00000000000E+00 0.  1.
         12    1    6    6    0    0 -0.34174738625E+02  0.27850172102E+02 -0.39907711452E+02  0.59465706752E+02  0.00000000000E+00 0. -1.
         -5    1    3    3    0  503  0.73225927221E+02 -0.55189100718E+02  0.58670762659E+02  0.10895972488E+03  0.47000000000E+01 0.  1.
         11    1    4    4    0    0 -0.20723672923E+01  0.51618788843E+01  0.21394375295E+02  0.22105632632E+02  0.00000000000E+00 0. -1.
        -12    1    4    4    0    0  0.42630371421E+02  0.12256555890E+02 -0.65361103295E+02  0.78991427090E+02  0.00000000000E+00 0.  1.
</event>
<event>
12    1  0.1066489E+000  0.1922438E+03  0.7818608E-02  0.1157042E+00
         21   -1    0    0  501  502  0.00000000000E+00  0.00000000000E+00  0.27047871140E+03  0.27047871140E+03  0.00000000000E+00 0.  1.
         21   -1    0    0  502  503 -0.00000000000E+00 -0.00000000000E+00 -0.32747507463E+03  0.32747507463E+03  0.00000000000E+00 0.  1.
         -6    2    1    2    0  503 -0.30560090168E+01  0.77733189054E+02  0.20076407990E+03  0.27796383141E+03  0.17580070513E+03 0.  0.
        -24    2    3    3    0    0 -0.44185127144E+02  0.49850106909E+02  0.43566478794E+02  0.11303279606E+03  0.80255942407E+02 0.  0.
          6    2    1    2  501    0  0.30560090168E+01 -0.77733189054E+02 -0.25776044312E+03  0.31998995462E+03  0.17292003107E+03 0.  0.
         24    2    5    5    0    0  0.48284469195E+02 -0.21567949242E+02 -0.64544707955E+02  0.11370239297E+03  0.77237610288E+02 0.  0.
          5    1    5    5  501    0 -0.45228460178E+02 -0.56165239812E+02 -0.19321573517E+03  0.20628756165E+03  0.47000000000E+01 0. -1.
        -13    1    6    6    0    0  0.23104390629E+02 -0.44778006778E+02 -0.13377853635E+02  0.52133000347E+02  0.00000000000E+00 0.  1.
         14    1    6    6    0    0  0.25180078566E+02  0.23210057536E+02 -0.51166854320E+02  0.61569392626E+02  0.00000000000E+00 0. -1.
         -5    1    3    3    0  503  0.41129118127E+02  0.27883082145E+02  0.15719760110E+03  0.16493103534E+03  0.47000000000E+01 0.  1.
         13    1    4    4    0    0  0.10813643963E+02  0.19885378342E+02  0.45013409281E+02  0.50384225534E+02  0.00000000000E+00 0. -1.
        -14    1    4    4    0    0 -0.54998771107E+02  0.29964728567E+02 -0.14469304871E+01  0.62648570528E+02  0.00000000000E+00 0.  1.
</event>
<event>
12    1  0.1066489E+000  0.2420900E+03  0.7818608E-02  0.1119064E+00
         21   -1    0    0  501  502  0.00000000000E+00  0.00000000000E+00  0.17707657255E+03  0.17707657255E+03  0.00000000000E+00 0.  1.
         21   -1    0    0  502  503 -0.00000000000E+00 -0.00000000000E+00 -0.45568673806E+03  0.45568673806E+03  0.00000000000E+00 0.  1.
         -6    2    1    2    0  503  0.16405022444E+03 -0.11872842284E+02  0.28913292614E+02  0.24381048993E+03  0.17763483889E+03 0.  0.
        -24    2    3    3    0    0  0.13450798536E+03 -0.73646702150E+02  0.11208688116E+02  0.17292821660E+03  0.79134686101E+02 0.  0.
          6    2    1    2  501    0 -0.16405022444E+03  0.11872842284E+02 -0.30752345813E+03  0.38895282068E+03  0.17222130788E+03 0.  0.
         24    2    5    5    0    0 -0.58782808267E+02 -0.53844703393E+02 -0.16861970575E+03  0.20262953404E+03  0.79192501325E+02 0.  0.
          5    1    5    5  501    0 -0.10526741618E+03  0.65717545677E+02 -0.13890375238E+03  0.18632328664E+03  0.47000000000E+01 0. -1.
        -13    1    6    6    0    0 -0.52443119653E+02 -0.10911127229E+02 -0.39907997802E+02  0.66798067224E+02  0.00000000000E+00 0.  1.
         14    1    6    6    0    0 -0.63396886142E+01 -0.42933576164E+02 -0.12871170795E+03  0.13583146682E+03  0.00000000000E+00 0. -1.
         -5    1    3    3    0  503  0.29542239087E+02  0.61773859866E+02  0.17704604498E+02  0.70882273337E+02  0.47000000000E+01 0.  1.
         13    1    4    4    0    0  0.12995147413E+03 -0.37666667398E+02  0.16402169561E+02  0.13629084572E+03  0.00000000000E+00 0. -1.
        -14    1    4    4    0    0  0.45565112290E+01 -0.35980034752E+02 -0.51934814449E+01  0.36637370878E+02  0.00000000000E+00 0.  1.
</event>
<event>
12    1  0.1066489E+000  0.2651765E+03  0.7818608E-02  0.1104109E+00
         21   -1    0    0  501  502  0.00000000000E+00  0.00000000000E+00  0.72746243449E+03  0.72746243449E+03  0.00000000000E+00 0. -1.
         21   -1    0    0  502  503 -0.00000000000E+00 -0.00000000000E+00 -0.10092226640E+03  0.10092226640E+03  0.00000000000E+00 0. -1.
         -6    2    1    2    0  503 -0.44093249346E+01  0.20040792332E+03  0.22714061301E+03  0.34896984280E+03  0.17321753730E+03 0.  0.
        -24    2    3    3    0    0 -0.14001945608E+02  0.13795581304E+03  0.56746428112E+02  0.16717723377E+03  0.74163397680E+02 0.  0.
          6    2    1    2  501    0  0.44093249346E+01 -0.20040792332E+03  0.39939955507E+03  0.47941485809E+03  0.17359672719E+03 0.  0.
         24    2    5    5    0    0  0.25230907589E+02 -0.12818067587E+03  0.36699420845E+03  0.39742394355E+03  0.78702970109E+02 0.  0.
          5    1    5    5  501    0 -0.20821582654E+02 -0.72227247451E+02  0.32405346626E+02  0.81990914549E+02  0.47000000000E+01 0. -1.
        -13    1    6    6    0    0 -0.98727396257E+01 -0.93720391138E+02  0.29901287215E+03  0.31351185052E+03  0.00000000000E+00 0.  1.
         14    1    6    6    0    0  0.35103647215E+02 -0.34460284731E+02  0.67981336300E+02  0.83912093030E+02  0.00000000000E+00 0. -1.
         -5    1    3    3    0  503  0.95926206736E+01  0.62452110279E+02  0.17039418490E+03  0.18179260903E+03  0.47000000000E+01 0.  1.
         11    1    4    4    0    0 -0.36109458766E+02  0.32870813344E+02  0.89865399282E+01  0.49650189145E+02  0.00000000000E+00 0. -1.
        -12    1    4    4    0    0  0.22107513157E+02  0.10508499970E+03  0.47759888184E+02  0.11752704463E+03  0.00000000000E+00 0.  1.
</event>
<event>
12    1  0.1066489E+000  0.3083106E+03  0.7818608E-02  0.1081231E+00
         21   -1    0    0  501  502  0.00000000000E+00  0.00000000000E+00  0.76231864874E+02  0.76231864874E+02  0.00000000000E+00 0. -1.
         21   -1    0    0  502  503 -0.00000000000E+00 -0.00000000000E+00 -0.13965449567E+04  0.13965449567E+04  0.00000000000E+00 0. -1.
         -6    2    1    2    0  503  0.21101816295E+03  0.14525607474E+03 -0.41775835030E+03  0.51920848479E+03  0.17154421904E+03 0.  0.
        -24    2    3    3    0    0  0.79479995604E+02  0.13254290266E+03 -0.26922656324E+03  0.32034245958E+03  0.79067428872E+02 0.  0.
          6    2    1    2  501    0 -0.21101816295E+03 -0.14525607474E+03 -0.90255474156E+03  0.95356833682E+03  0.17046852828E+03 0.  0.
         24    2    5    5    0    0 -0.16169284689E+03 -0.17097732761E+03 -0.77945606032E+03  0.81840197645E+03  0.82778148033E+02 0.  0.
          5    1    5    5  501    0 -0.49325316063E+02  0.25721252871E+02 -0.12309868124E+03  0.13516636038E+03  0.47000000000E+01 0. -1.
        -11    1    6    6    0    0 -0.14519312735E+03 -0.10426085332E+03 -0.51402827852E+03  0.54422094859E+03  0.00000000000E+00 0.  1.
         12    1    6    6    0    0 -0.16499719542E+02 -0.66716474287E+02 -0.26542778180E+03  0.27418102786E+03  0.00000000000E+00 0. -1.
         -5    1    3    3    0  503  0.13153816735E+03  0.12713172074E+02 -0.14853178706E+03  0.19886602520E+03  0.47000000000E+01 0.  1.
         13    1    4    4    0    0  0.19110403383E+02  0.93976809111E+02 -0.11122779333E+03  0.14686207875E+03  0.00000000000E+00 0. -1.
        -14    1    4    4    0    0  0.60369592220E+02  0.38566093552E+02 -0.15799876992E+03  0.17348038083E+03  0.00000000000E+00 0.  1.
</event>
<event>
12    1  0.1066489E+000  0.2564939E+03  0.7818608E-02  0.1109654E+00
         21   -1    0    0  501  502  0.00000000000E+00  0.00000000000E+00  0.46138044849E+03  0.46138044849E+03  0.00000000000E+00 0.  1.
         21   -1    0    0  502  503 -0.00000000000E+00 -0.00000000000E+00 -0.16041305505E+03  0.16041305505E+03  0.00000000000E+00 0.  1.
         -6    2    1    2    0  503  0.90884151518E+02 -0.16368578825E+03  0.25743072772E+03  0.36163089595E+03  0.17161980963E+03 0.  0.
        -24    2    3    3    0    0  0.65443609664E+02 -0.17946076712E+03  0.25790711433E+03  0.33132597767E+03  0.82290891815E+02 0.  0.
          6    2    1    2  501    0 -0.90884151518E+02  0.16368578825E+03  0.43536665722E+02  0.26016260759E+03  0.17531735468E+03 0.  0.
         24    2    5    5    0    0 -0.66375790767E+02  0.18036812906E+03  0.22693728763E+00  0.20746741978E+03  0.78129835444E+02 0.  0.
          5    1    5    5  501    0 -0.24508360750E+02 -0.16682340808E+02  0.43309728435E+02  0.52695187812E+02  0.47000000000E+01 0. -1.
        -13    1    6    6    0    0 -0.21109953845E+01 -0.75879140066E+01 -0.38931161811E+01  0.87857324159E+01  0.00000000000E+00 0.  1.
         14    1    6    6    0    0 -0.64264795383E+02  0.18795604307E+03  0.41200534687E+01  0.19868168736E+03  0.00000000000E+00 0. -1.
         -5    1    3    3    0  503  0.25440541854E+02  0.15774978863E+02 -0.47638660556E+00  0.30304918283E+02  0.47000000000E+01 0.  1.
         11    1    4    4    0    0  0.47533399043E+02 -0.33755763097E+02  0.99754002567E+02  0.11554106021E+03  0.00000000000E+00 0. -1.
        -12    1    4    4    0    0  0.17910210621E+02 -0.14570500402E+03  0.15815311176E+03  0.21578491745E+03  0.00000000000E+00 0.  1.
</event>
<event>
12    1  0.1066489E+000  0.2110365E+03  0.7818608E-02  0.1140846E+00
         21   -1    0    0  503  502  0.00000000000E+00  0.00000000000E+00  0.52838311259E+03  0.52838311259E+03  0.00000000000E+00 0.  1.
         21   -1    0    0  501  503 -0.00000000000E+00 -0.00000000000E+00 -0.12382364342E+03  0.12382364342E+03  0.00000000000E+00 0.  1.
          6    2    1    2  501    0  0.79824236764E+02  0.89930440732E+02  0.38684869369E+03  0.44042838365E+03  0.17281740762E+03 0.  0.
         24    2    3    3    0    0 -0.68948626788E+01  0.63440273977E+01  0.98506849628E+02  0.12790638485E+03  0.81047258106E+02 0.  0.
         -6    2    1    2    0  502 -0.79824236764E+02 -0.89930440732E+02  0.17710775486E+02  0.21177837236E+03  0.17342725992E+03 0.  0.
        -24    2    5    5    0    0 -0.90240793066E+02 -0.55507065176E+02 -0.44124762766E+02  0.14009017792E+03  0.80335722092E+02 0.  0.
          5    1    3    3  501    0  0.86719099443E+02  0.83586413334E+02  0.28834184406E+03  0.31252199880E+03  0.47000000000E+01 0. -1.
        -13    1    4    4    0    0  0.41649563152E+01 -0.35167281520E+02  0.62576055293E+02  0.71901649818E+02  0.00000000000E+00 0.  1.
         14    1    4    4    0    0 -0.11059818994E+02  0.41511308918E+02  0.35930794335E+02  0.56004735030E+02  0.00000000000E+00 0. -1.
         -5    1    5    5    0  502  0.10416556302E+02 -0.34423375556E+02  0.61835538252E+02  0.71688194431E+02  0.47000000000E+01 0.  1.
         11    1    6    6    0    0 -0.95653213272E+02 -0.53512022917E+02 -0.15267962578E+02  0.11066248003E+03  0.00000000000E+00 0. -1.
        -12    1    6    6    0    0  0.54124202055E+01 -0.19950422593E+01 -0.28856800188E+02  0.29427697891E+02  0.00000000000E+00 0.  1.
</event>
<event>
12    1  0.1066489E+000  0.1831166E+03  0.7818608E-02  0.1165155E+00
         21   -1    0    0  503  502  0.00000000000E+00  0.00000000000E+00  0.94352859429E+02  0.94352859429E+02  0.00000000000E+00 0.  1.
         21   -1    0    0  501  503 -0.00000000000E+00 -0.00000000000E+00 -0.42498050106E+03  0.42498050106E+03  0.00000000000E+00 0.  1.
          6    2    1    2  501    0 -0.61250352153E+02 -0.54365714845E+01 -0.27295882969E+03  0.32869164582E+03  0.17248337131E+03 0.  0.
         24    2    3    3    0    0 -0.84274285515E+02 -0.48774880693E+02 -0.23234624767E+03  0.26481847171E+03  0.81626588599E+02 0.  0.
         -6    2    1    2    0  502  0.61250352153E+02  0.54365714845E+01 -0.57668811945E+02  0.19064171467E+03  0.17098950130E+03 0.  0.
        -24    2    5    5    0    0  0.21549199807E+02  0.61222098137E+02 -0.67644982864E+02  0.12128884546E+03  0.76958605848E+02 0.  0.
          5    1    3    3  501    0  0.23023933361E+02  0.43338309208E+02 -0.40612582014E+02  0.63873174105E+02  0.47000000000E+01 0. -1.
        -13    1    4    4    0    0  0.13497343036E+02  0.28970438411E+00 -0.93083345055E+01  0.16398392877E+02  0.00000000000E+00 0.  1.
         14    1    4    4    0    0 -0.97771628551E+02 -0.49064585077E+02 -0.22303791317E+03  0.24842007884E+03  0.00000000000E+00 0. -1.
         -5    1    5    5    0  502  0.39701152347E+02 -0.55785526652E+02  0.99761709195E+01  0.69352869211E+02  0.47000000000E+01 0.  1.
         11    1    6    6    0    0  0.18435687680E+02  0.11847195173E+01 -0.57405764856E+02  0.60305057659E+02  0.00000000000E+00 0. -1.
        -12    1    6    6    0    0  0.31135121266E+01  0.60037378620E+02 -0.10239218008E+02  0.60983787802E+02  0.00000000000E+00 0.  1.
</event>
<event>
12    1  0.1066489E+000  0.2110272E+03  0.7818608E-02  0.1141084E+00
         21   -1    0    0  503  502  0.00000000000E+00  0.00000000000E+00  0.36056694543E+03  0.36056694543E+03  0.00000000000E+00 0.  1.
         21   -1    0    0  501  503 -0.00000000000E+00 -0.00000000000E+00 -0.21665161644E+03  0.21665161644E+03  0.00000000000E+00 0.  1.
          6    2    1    2  501    0  0.53518389746E+02  0.10802871026E+03  0.26233993443E+03  0.33668192802E+03  0.17319947799E+03 0.  0.
         24    2    3    3    0    0  0.84409628511E+02  0.11673133223E+03  0.16193482107E+03  0.23116756383E+03  0.80401287190E+02 0.  0.
         -6    2    1    2    0  502 -0.53518389746E+02 -0.10802871026E+03 -0.11842460543E+03  0.24053663386E+03  0.17116969584E+03 0.  0.
        -24    2    5    5    0    0 -0.54092798650E+02  0.22207248741E+01 -0.35189849323E+02  0.10231441236E+03  0.79365930953E+02 0.  0.
          5    1    3    3  501    0 -0.30891238765E+02 -0.87026219776E+01  0.10040511335E+03  0.10551436418E+03  0.47000000000E+01 0. -1.
        -13    1    4    4    0    0 -0.22188094618E+01  0.13183541407E+02 -0.68576454033E+01  0.15025184856E+02  0.00000000000E+00 0.  1.
         14    1    4    4    0    0  0.86628437973E+02  0.10354779083E+03  0.16879246648E+03  0.21614237898E+03  0.00000000000E+00 0. -1.
         -5    1    5    5    0  502  0.57440890413E+00 -0.11024943513E+03 -0.83234756108E+02  0.13822222150E+03  0.47000000000E+01 0.  1.
         11    1    6    6    0    0 -0.16759845534E+02  0.34425803889E+02  0.51195912439E+01  0.38629504401E+02  0.00000000000E+00 0. -1.
        -12    1    6    6    0    0 -0.37332953116E+02 -0.32205079015E+02 -0.40309440567E+02  0.63684907957E+02  0.00000000000E+00 0.  1.
</event>
<event>
12    1  0.1066489E+000  0.2637888E+03  0.7818608E-02  0.1104938E+00
         21   -1    0    0  503  502  0.00000000000E+00  0.00000000000E+00  0.29752739283E+03  0.29752739283E+03  0.00000000000E+00 0. -1.
         21   -1    0    0  501  503 -0.00000000000E+00 -0.00000000000E+00 -0.27354560757E+03  0.27354560757E+03  0.00000000000E+00 0. -1.
          6    2    1    2  501    0  0.10358942949E+03 -0.17081213383E+03 -0.97160325543E+02  0.28079736250E+03  0.17175411192E+03 0.  0.
         24    2    3    3    0    0  0.11021587459E+03 -0.16999611167E+03 -0.37129225219E+02  0.22021354723E+03  0.77905134768E+02 0.  0.
         -6    2    1    2    0  502 -0.10358942949E+03  0.17081213383E+03  0.12114211080E+03  0.29027563791E+03  0.17227007861E+03 0.  0.
        -24    2    5    5    0    0 -0.13356522532E+03  0.97237509210E+02  0.80451913363E+02  0.20089132221E+03  0.81178878803E+02 0.  0.
          5    1    3    3  501    0 -0.66264451019E+01 -0.81602216193E+00 -0.60031100324E+02  0.60583815273E+02  0.47000000000E+01 0. -1.
        -13    1    4    4    0    0  0.68897389041E+02 -0.76285120067E+02 -0.54482139899E+02  0.11633818517E+03  0.00000000000E+00 0.  1.
         14    1    4    4    0    0  0.41318485546E+02 -0.93710991605E+02  0.17352914679E+02  0.10387536206E+03  0.00000000000E+00 0. -1.
         -5    1    5    5    0  502  0.29975795835E+02  0.73574624624E+02  0.40690197441E+02  0.89384315695E+02  0.47000000000E+01 0.  1.
         13    1    6    6    0    0 -0.56171082200E+02  0.11455489929E+02  0.61034875686E+02  0.83735743712E+02  0.00000000000E+00 0. -1.
        -14    1    6    6    0    0 -0.77394143120E+02  0.85782019281E+02  0.19417037677E+02  0.11715557850E+03  0.00000000000E+00 0.  1.
</event>
<event>
12    1  0.1066489E+000  0.2931394E+03  0.7818608E-02  0.1088816E+00
         21   -1    0    0  503  502  0.00000000000E+00  0.00000000000E+00  0.19660982117E+03  0.19660982117E+03  0.00000000000E+00 0.  1.
         21   -1    0    0  501  503 -0.00000000000E+00 -0.00000000000E+00 -0.47814780974E+03  0.47814780974E+03  0.00000000000E+00 0.  1.
          6    2    1    2  501    0 -0.23532194224E+03 -0.23030738366E+02 -0.40408643732E+02  0.29518669255E+03  0.17203340828E+03 0.  0.
         24    2    3    3    0    0 -0.77383788749E+02 -0.56518972587E+01 -0.72472759704E+02  0.13302417537E+03  0.80143219491E+02 0.  0.
         -6    2    1    2    0  502  0.23532194224E+03  0.23030738366E+02 -0.24112934484E+03  0.37957093835E+03  0.17327407449E+03 0.  0.
        -24    2    5    5    0    0  0.11587076242E+03  0.46582524294E+02 -0.20390777234E+03  0.25217075609E+03  0.80098348631E+02 0.  0.
          5    1    3    3  501    0 -0.15793815349E+03 -0.17378841107E+02  0.32064115972E+02  0.16216251718E+03  0.47000000000E+01 0. -1.
        -11    1    4    4    0    0 -0.28720927507E+02  0.36765096410E+02 -0.35566082394E+02  0.58664386196E+02  0.00000000000E+00 0.  1.
         12    1    4    4    0    0 -0.48662861242E+02 -0.42416993668E+02 -0.36906677309E+02  0.74359789175E+02  0.00000000000E+00 0. -1.
         -5    1    5    5    0  502  0.11945117982E+03 -0.23551785929E+02 -0.37221572493E+02  0.12740018226E+03  0.47000000000E+01 0.  1.
         11    1    6    6    0    0  0.43914879312E+02  0.46909173728E+02 -0.14700000508E+03  0.16043063516E+03  0.00000000000E+00 0. -1.
        -12    1    6    6    0    0  0.71955883111E+02 -0.32664943351E+00 -0.56907767265E+02  0.91740120935E+02  0.00000000000E+00 0.  1.
</event>
<event>
12    1  0.1066489E+000  0.2891307E+03  0.7818608E-02  0.1090966E+00
         21   -1    0    0  501  502  0.00000000000E+00  0.00000000000E+00  0.32160922303E+03  0.32160922303E+03  0.00000000000E+00 0. -1.
         21   -1    0    0  502  503 -0.00000000000E+00 -0.00000000000E+00 -0.28329911183E+03  0.28329911183E+03  0.00000000000E+00 0. -1.
         -6    2    1    2    0  503 -0.99872990230E+01 -0.23204437640E+03  0.10801181970E+03  0.30749467797E+03  0.17012373446E+03 0.  0.
        -24    2    3    3    0    0  0.16937013055E+01 -0.68922530102E+02  0.97306691864E+02  0.14353775598E+03  0.79883110419E+02 0.  0.
          6    2    1    2  501    0  0.99872990230E+01  0.23204437640E+03 -0.69701708509E+02  0.29741365689E+03  0.17219818923E+03 0.  0.
         24    2    5    5    0    0 -0.50453429970E+02  0.19578122686E+03 -0.64022057604E+02  0.22654443811E+03  0.79672587463E+02 0.  0.
          5    1    5    5  501    0  0.60440728993E+02  0.36263149540E+02 -0.56796509045E+01  0.70869218778E+02  0.47000000000E+01 0. -1.
        -13    1    6    6    0    0  0.51840371551E+01  0.65462944796E+02 -0.53055495376E+02  0.84422490914E+02  0.00000000000E+00 0.  1.
         14    1    6    6    0    0 -0.55637467125E+02  0.13031828206E+03 -0.10966562228E+02  0.14212194720E+03  0.00000000000E+00 0. -1.
         -5    1    3    3    0  503 -0.11681000328E+02 -0.16312184630E+03  0.10705127835E+02  0.16395692199E+03  0.47000000000E+01 0.  1.
         13    1    4    4    0    0  0.35279508621E+02 -0.32823359470E+02  0.20723400797E+02  0.52454513591E+02  0.00000000000E+00 0. -1.
        -14    1    4    4    0    0 -0.33585807316E+02 -0.36099170631E+02  0.76583291067E+02  0.91083242388E+02  0.00000000000E+00 0.  1.
</event>
<event>
12    1  0.1066489E+000  0.3043810E+03  0.7818608E-02  0.1083404E+00
         21   -1    0    0  501  502  0.00000000000E+00  0.00000000000E+00  0.12338750262E+03  0.12338750262E+03  0.00000000000E+00 0. -1.
         21   -1    0    0  502  503 -0.00000000000E+00 -0.00000000000E+00 -0.74423387396E+03  0.74423387396E+03  0.00000000000E+00 0. -1.
         -6    2    1    2    0  503 -0.24128699708E+03  0.58872974652E+02 -0.31362928069E+03  0.43704816347E+03  0.17596115873E+03 0.  0.
        -24    2    3    3    0    0 -0.87781905700E+02  0.69618264940E+02 -0.85810412709E+02  0.16208852834E+03  0.79730159337E+02 0.  0.
          6    2    1    2  501    0  0.24128699708E+03 -0.58872974652E+02 -0.30721709065E+03  0.43057321312E+03  0.17124692395E+03 0.  0.
         24    2    5    5    0    0  0.43184493145E+02 -0.40947584501E+02 -0.76935058070E+02  0.12624144316E+03  0.80475422865E+02 0.  0.
          5    1    5    5  501    0  0.19810250394E+03 -0.17925390152E+02 -0.23028203258E+03  0.30433176996E+03  0.47000000000E+01 0. -1.
        -13    1    6    6    0    0  0.23866803602E+02  0.83293209804E+01 -0.68023187039E+02  0.72568284237E+02  0.00000000000E+00 0.  1.
         14    1    6    6    0    0  0.19317689542E+02 -0.49276905481E+02 -0.89118710308E+01  0.53673158919E+02  0.00000000000E+00 0. -1.
         -5    1    3    3    0  503 -0.15350509138E+03 -0.10745290288E+02 -0.22781886798E+03  0.27495963513E+03  0.47000000000E+01 0.  1.
         13    1    4    4    0    0 -0.18920875505E+02  0.19016591170E+02 -0.70292062865E+02  0.75236988054E+02  0.00000000000E+00 0. -1.
        -14    1    4    4    0    0 -0.68861030195E+02  0.50601673770E+02 -0.15518349844E+02  0.86851540284E+02  0.00000000000E+00 0.  1.
</event>
<event>
12    1  0.1066489E+000  0.2976494E+03  0.7818608E-02  0.1086573E+00
         21   -1    0    0  501  502  0.00000000000E+00  0.00000000000E+00  0.13534727754E+04  0.13534727754E+04  0.00000000000E+00 0.  1.
         21   -1    0    0  502  503 -0.00000000000E+00 -0.00000000000E+00 -0.12473692343E+03  0.12473692343E+03  0.00000000000E+00 0.  1.
         -6    2    1    2    0  503  0.20428421728E+03 -0.12966902917E+03  0.10307127063E+03  0.31385755756E+03  0.17127983259E+03 0.  0.
        -24    2    3    3    0    0  0.34132714539E+02 -0.51539981208E+02 -0.27326940725E+01  0.98747699656E+02  0.76956017996E+02 0.  0.
          6    2    1    2  501    0 -0.20428421728E+03  0.12966902917E+03  0.11256645813E+04  0.11643521412E+04  0.17334664880E+03 0.  0.
         24    2    5    5    0    0 -0.23303388601E+02  0.61267460181E+02  0.33329509155E+03  0.34869024236E+03  0.78756063062E+02 0.  0.
          5    1    5    5  501    0 -0.18098082868E+03  0.68401568987E+02  0.79236948974E+03  0.81566189887E+03  0.47000000000E+01 0. -1.
        -13    1    6    6    0    0  0.57571211891E+01  0.16759150559E+02  0.24492492039E+03  0.24556512415E+03  0.00000000000E+00 0.  1.
         14    1    6    6    0    0 -0.29060509790E+02  0.44508309621E+02  0.88370171156E+02  0.10312511820E+03  0.00000000000E+00 0. -1.
         -5    1    3    3    0  503  0.17015150274E+03 -0.78129047959E+02  0.10580396471E+03  0.21510985791E+03  0.47000000000E+01 0.  1.
         11    1    4    4    0    0  0.32701321287E+02  0.70605755681E+00  0.23492818940E+02  0.40271422535E+02  0.00000000000E+00 0. -1.
        -12    1    4    4    0    0  0.14313932512E+01 -0.52246038765E+02 -0.26225513013E+02  0.58476277122E+02  0.00000000000E+00 0.  1.
</event>
<event>
12    1  0.1066489E+000  0.1821852E+03  0.7818608E-02  0.1167302E+00
         21   -1    0    0  501  502  0.00000000000E+00  0.00000000000E+00  0.82190022828E+03  0.82190022828E+03  0.00000000000E+00 0. -1.
         21   -1    0    0  502  503 -0.00000000000E+00 -0.00000000000E+00 -0.45187182770E+02  0.45187182770E+02  0.00000000000E+00 0. -1.
         -6    2    1    2    0  503 -0.25873383078E+02  0.26536952089E+02  0.23332553158E+03  0.29602746334E+03  0.17837548483E+03 0.  0.
        -24    2    3    3    0    0  0.34331718586E+02 -0.67528634955E+01  0.52726617296E+02  0.10271185630E+03  0.80903406516E+02 0.  0.
          6    2    1    2  501    0  0.25873383078E+02 -0.26536952089E+02  0.54338751393E+03  0.57105994770E+03  0.17165614408E+03 0.  0.
         24    2    5    5    0    0  0.49902719172E+02 -0.20951595365E+02  0.53614401574E+03  0.54492255172E+03  0.80999574234E+02 0.  0.
          5    1    5    5  501    0 -0.24029336094E+02 -0.55853567238E+01  0.72434981840E+01  0.26137395983E+02  0.47000000000E+01 0. -1.
        -13    1    6    6    0    0 -0.21877699106E+02 -0.12059096259E+02  0.12675026801E+03  0.12918856745E+03  0.00000000000E+00 0.  1.
         14    1    6    6    0    0  0.71780418278E+02 -0.88924991065E+01  0.40939374774E+03  0.41573398427E+03  0.00000000000E+00 0. -1.
         -5    1    3    3    0  503 -0.60205101664E+02  0.33289815584E+02  0.18059891428E+03  0.19331560705E+03  0.47000000000E+01 0.  1.
         13    1    4    4    0    0 -0.25924222443E+02 -0.83963318705E+01  0.10929629992E+02  0.29360185795E+02  0.00000000000E+00 0. -1.
        -14    1    4    4    0    0  0.60255941029E+02  0.16434683750E+01  0.41796987304E+02  0.73351670501E+02  0.00000000000E+00 0.  1.
</event>
<event>
12    1  0.1066489E+000  0.2262648E+03  0.7818608E-02  0.1129367E+00
         21   -1    0    0  501  502  0.00000000000E+00  0.00000000000E+00  0.26517097543E+03  0.26517097543E+03  0.00000000000E+00 0.  1.
         21   -1    0    0  502  503 -0.00000000000E+00 -0.00000000000E+00 -0.30434603205E+03  0.30434603205E+03  0.00000000000E+00 0.  1.
         -6    2    1    2    0  503 -0.19828580973E+02 -0.14632759984E+03 -0.19202077120E+03  0.29646467216E+03  0.17092216407E+03 0.  0.
        -24    2    3    3    0    0  0.51881870716E+02 -0.97163975039E+02 -0.13656536497E+03  0.19323268601E+03  0.80970398780E+02 0.  0.
          6    2    1    2  501    0  0.19828580973E+02  0.14632759984E+03  0.15284571457E+03  0.27305233531E+03  0.17143752873E+03 0.  0.
         24    2    5    5    0    0  0.44377730688E+02  0.12959334584E+03  0.17468923500E+03  0.23587807818E+03  0.79739078712E+02 0.  0.
          5    1    5    5  501    0 -0.24549149715E+02  0.16734253998E+02 -0.21843520427E+02  0.37174257131E+02  0.47000000000E+01 0. -1.
        -13    1    6    6    0    0 -0.66142367307E+01  0.50864903946E+02  0.11163529343E+03  0.12285530237E+03  0.00000000000E+00 0.  1.
         14    1    6    6    0    0  0.50991967419E+02  0.78728441895E+02  0.63053941569E+02  0.11302277581E+03  0.00000000000E+00 0. -1.
         -5    1    3    3    0  503 -0.71710451690E+02 -0.49163624801E+02 -0.55455406226E+02  0.10323198615E+03  0.47000000000E+01 0.  1.
         13    1    4    4    0    0  0.12365732993E+02 -0.70243574564E+02 -0.31839459330E+02  0.78107760756E+02  0.00000000000E+00 0. -1.
        -14    1    4    4    0    0  0.39516137724E+02 -0.26920400475E+02 -0.10472590564E+03  0.11512492525E+03  0.00000000000E+00 0.  1.
</event>
<event>
12    1  0.1066489E+000  0.1713689E+03  0.7818608E-02  0.1177432E+00
         21   -1    0    0  503  502  0.00000000000E+00  0.00000000000E+00  0.90568750861E+02  0.90568750861E+02  0.00000000000E+00 0. -1.
         21   -1    0    0  501  503 -0.00000000000E+00 -0.00000000000E+00 -0.32735984319E+03  0.32735984319E+03  0.00000000000E+00 0. -1.
          6    2    1    2  501    0 -0.10306683736E+02 -0.12368885412E+02 -0.82560174999E+02  0.19021955294E+03  0.17061089873E+03 0.  0.
         24    2    3    3    0    0 -0.69267068159E+02 -0.30747821879E+02 -0.66831228338E+02  0.12631648572E+03  0.75802943220E+02 0.  0.
         -6    2    1    2    0  502  0.10306683736E+02  0.12368885412E+02 -0.15423091733E+03  0.22770904111E+03  0.16674835678E+03 0.  0.
        -24    2    5    5    0    0  0.54957931052E+02  0.48159587056E+02 -0.10189429903E+03  0.15001785869E+03  0.82360122273E+02 0.  0.
          5    1    3    3  501    0  0.58960384424E+02  0.18378936466E+02 -0.15728946661E+02  0.63903067220E+02  0.47000000000E+01 0. -1.
        -11    1    4    4    0    0 -0.40499421266E+02  0.49968920047E+00 -0.72915704016E+02  0.83409548040E+02  0.00000000000E+00 0.  1.
         12    1    4    4    0    0 -0.28767646893E+02 -0.31247511079E+02  0.60844756781E+01  0.42906937675E+02  0.00000000000E+00 0. -1.
         -5    1    5    5    0  502 -0.44651247316E+02 -0.35790701644E+02 -0.52336618298E+02  0.77691182421E+02  0.47000000000E+01 0.  1.
         13    1    6    6    0    0  0.63235363881E+02  0.38919667165E+01 -0.46291600814E+02  0.78465093870E+02  0.00000000000E+00 0. -1.
        -14    1    6    6    0    0 -0.82774328293E+01  0.44267620340E+02 -0.55602698215E+02  0.71552764822E+02  0.00000000000E+00 0.  1.
</event>
<event>
12    1  0.1066489E+000  0.1999617E+03  0.7818608E-02  0.1151332E+00
         21   -1    0    0  503  502  0.00000000000E+00  0.00000000000E+00  0.43529835428E+03  0.43529835428E+03  0.00000000000E+00 0. -1.
         21   -1    0    0  501  503 -0.00000000000E+00 -0.00000000000E+00 -0.90738593644E+02  0.90738593644E+02  0.00000000000E+00 0. -1.
          6    2    1    2  501    0  0.10108544919E+03 -0.82896678815E+01  0.20998175521E+03  0.28500603436E+03  0.16385699701E+03 0.  0.
         24    2    3    3    0    0  0.93973835290E+02  0.44990990338E+02  0.18479822867E+03  0.22546022341E+03  0.76332536249E+02 0.  0.
         -6    2    1    2    0  502 -0.10108544919E+03  0.82896678815E+01  0.13457800543E+03  0.24103091356E+03  0.17233013409E+03 0.  0.
        -24    2    5    5    0    0 -0.11435849615E+03  0.40258040730E+02  0.58409794768E+02  0.15723451177E+03  0.81316739244E+02 0.  0.
          5    1    3    3  501    0  0.71116139038E+01 -0.53280658219E+02  0.25183526535E+02  0.59545810947E+02  0.47000000000E+01 0. -1.
        -11    1    4    4    0    0  0.42203461312E+02  0.46571470660E+02  0.47688728602E+02  0.78893908902E+02  0.00000000000E+00 0.  1.
         12    1    4    4    0    0  0.51770373979E+02 -0.15804803220E+01  0.13710950007E+03  0.14656631451E+03  0.00000000000E+00 0. -1.
         -5    1    5    5    0  502  0.13273046960E+02 -0.31968372848E+02  0.76168210658E+02  0.83796401790E+02  0.47000000000E+01 0.  1.
         11    1    6    6    0    0 -0.27217729374E+02  0.18217210930E+02 -0.19642683468E+02  0.38190399057E+02  0.00000000000E+00 0. -1.
        -12    1    6    6    0    0 -0.87140766780E+02  0.22040829799E+02  0.78052478236E+02  0.11904411271E+03  0.00000000000E+00 0.  1.
</event>
<event>
12    1  0.1066489E+000  0.3640568E+03  0.7818608E-02  0.1057154E+00
         21   -1    0    0  503  502  0.00000000000E+00  0.00000000000E+00  0.15612073189E+03  0.15612073189E+03  0.00000000000E+00 0. -1.
         21   -1    0    0  501  503 -0.00000000000E+00 -0.00000000000E+00 -0.89733557351E+03  0.89733557351E+03  0.00000000000E+00 0.  1.
          6    2    1    2  501    0  0.31929732106E+03 -0.77988269375E+01 -0.24260097540E+03  0.43608029815E+03  0.17117006815E+03 0.  0.
         24    2    3    3    0    0  0.13166711470E+03  0.12324078777E+02 -0.46280200614E+02  0.16373132663E+03  0.84722950496E+02 0.  0.
         -6    2    1    2    0  502 -0.31929732106E+03  0.77988269375E+01 -0.49861386622E+03  0.61737600725E+03  0.17471618643E+03 0.  0.
        -24    2    5    5    0    0 -0.86749424157E+02  0.26234705867E+02 -0.99892312740E+02  0.15540266040E+03  0.77186723805E+02 0.  0.
          5    1    3    3  501    0  0.18763020636E+03 -0.20122905715E+02 -0.19632077478E+03  0.27234897151E+03  0.47000000000E+01 0. -1.
        -11    1    4    4    0    0  0.39423491477E+02 -0.22371600326E+02 -0.46832933874E+02  0.65176866115E+02  0.00000000000E+00 0.  1.
         12    1    4    4    0    0  0.92243623225E+02  0.34695679103E+02  0.55273325965E+00  0.98554460519E+02  0.00000000000E+00 0. -1.
         -5    1    5    5    0  502 -0.23254789691E+03 -0.18435878929E+02 -0.39872155348E+03  0.46197334685E+03  0.47000000000E+01 0.  1.
         13    1    6    6    0    0 -0.66161886445E+00 -0.18049278328E+02 -0.27717389986E+01  0.18272841179E+02  0.00000000000E+00 0. -1.
        -14    1    6    6    0    0 -0.86087805292E+02  0.44283984194E+02 -0.97120573741E+02  0.13712981922E+03  0.00000000000E+00 0.  1.
</event>
<event>
12    1  0.1066489E+000  0.2225964E+03  0.7818608E-02  0.1132094E+00
         21   -1    0    0  503  502  0.00000000000E+00  0.00000000000E+00  0.57049369094E+02  0.57049369094E+02  0.00000000000E+00 0. -1.
         21   -1    0    0  501  503 -0.00000000000E+00 -0.00000000000E+00 -0.20269524863E+04  0.20269524863E+04  0.00000000000E+00 0. -1.
          6    2    1    2  501    0 -0.75337443764E+02  0.11840653955E+03 -0.19694612234E+03  0.29721531898E+03  0.17278116705E+03 0.  0.
         24    2    3    3    0    0 -0.18228075418E+02  0.59485938532E+02 -0.20747725150E+02  0.10279031454E+03  0.79148853732E+02 0.  0.
         -6    2    1    2    0  502  0.75337443764E+02 -0.11840653955E+03 -0.17729569948E+04  0.17867865364E+04  0.17185395559E+03 0.  0.
        -24    2    5    5    0    0  0.35256953385E+02 -0.11455536825E+03 -0.78455862182E+03  0.79755718431E+03  0.78735290847E+02 0.  0.
          5    1    3    3  501    0 -0.57109368346E+02  0.58920601022E+02 -0.17619839720E+03  0.19442500444E+03  0.47000000000E+01 0. -1.
        -11    1    4    4    0    0 -0.42247119342E+02  0.61449358412E+02 -0.24300707544E+02  0.78430651719E+02  0.00000000000E+00 0.  1.
         12    1    4    4    0    0  0.24019043924E+02 -0.19634198803E+01  0.35529823948E+01  0.24359662817E+02  0.00000000000E+00 0. -1.
         -5    1    5    5    0  502  0.40080490378E+02 -0.38511713053E+01 -0.98839837303E+03  0.98922935209E+03  0.47000000000E+01 0.  1.
         13    1    6    6    0    0 -0.48296439346E+01 -0.43290177605E+02 -0.11411226276E+03  0.12214324971E+03  0.00000000000E+00 0. -1.
        -14    1    6    6    0    0  0.40086597320E+02 -0.71265190643E+02 -0.67044635906E+03  0.67541393460E+03  0.00000000000E+00 0.  1.
</event>
<event>
12    1  0.1066489E+000  0.1964518E+03  0.7818608E-02  0.1152982E+00
         21   -1    0    0  503  502  0.00000000000E+00  0.00000000000E+00  0.47227980660E+03  0.47227980660E+03  0.00000000000E+00 0. -1.
         21   -1    0    0  501  503 -0.00000000000E+00 -0.00000000000E+00 -0.81598723205E+02  0.81598723205E+02  0.00000000000E+00 0. -1.
          6    2    1    2  501    0 -0.50204306734E+02  0.80665889779E+02  0.21244532221E+03  0.28935500890E+03  0.17194722463E+03 0.  0.
         24    2    3    3    0    0 -0.40766837932E+02 -0.10637819814E+02  0.49602274184E+02  0.10236468430E+03  0.79012940094E+02 0.  0.
         -6    2    1    2    0  502  0.50204306734E+02 -0.80665889779E+02  0.17823576118E+03  0.26452352090E+03  0.17081348998E+03 0.  0.
        -24    2    5    5    0    0  0.35492390197E+02 -0.44219391975E+02  0.20674608230E+02  0.10206615847E+03  0.82310369276E+02 0.  0.
          5    1    3    3  501    0 -0.94374688019E+01  0.91303709593E+02  0.16284304803E+03  0.18699032460E+03  0.47000000000E+01 0. -1.
        -11    1    4    4    0    0 -0.46285698747E+02 -0.29503581413E+01  0.67629227731E+02  0.82004774039E+02  0.00000000000E+00 0.  1.
         12    1    4    4    0    0  0.55188608147E+01 -0.76874616724E+01 -0.18026953547E+02  0.20359910261E+02  0.00000000000E+00 0. -1.
         -5    1    5    5    0  502  0.14711916537E+02 -0.36446497805E+02  0.15756115295E+03  0.16245736244E+03  0.47000000000E+01 0.  1.
         13    1    6    6    0    0 -0.13307165279E+02 -0.38852821390E+02  0.31542714093E+02  0.51783831358E+02  0.00000000000E+00 0. -1.
        -14    1    6    6    0    0  0.48799555476E+02 -0.53665705844E+01 -0.10868105863E+02  0.50282327109E+02  0.00000000000E+00 0.  1.
</event>
<event>
12    1  0.1066489E+000  0.2482025E+03  0.7818608E-02  0.1115366E+00
         21   -1    0    0  501  502  0.00000000000E+00  0.00000000000E+00  0.10028473882E+04  0.10028473882E+04  0.00000000000E+00 0.  1.
         21   -1    0    0  502  503 -0.00000000000E+00 -0.00000000000E+00 -0.62098375204E+02  0.62098375204E+02  0.00000000000E+00 0. -1.
         -6    2    1    2    0  503  0.16586213225E+03  0.39121082691E+02  0.56232477653E+03  0.61238707458E+03  0.17253425395E+03 0.  0.
        -24    2    3    3    0    0  0.85862146146E+02  0.47435263279E+02  0.16000247755E+03  0.20207689236E+03  0.74912383894E+02 0.  0.
          6    2    1    2  501    0 -0.16586213225E+03 -0.39121082691E+02  0.37842423651E+03  0.45255868887E+03  0.18045431020E+03 0.  0.
         24    2    5    5    0    0 -0.18212712472E+02 -0.24128364309E+02  0.22199405914E+03  0.23687924350E+03  0.76919001861E+02 0.  0.
          5    1    5    5  501    0 -0.14764941978E+03 -0.14992718382E+02  0.15643017737E+03  0.21567944538E+03  0.47000000000E+01 0. -1.
        -13    1    6    6    0    0 -0.45690533310E+02 -0.27810791275E+02  0.12412836809E+03  0.13516255662E+03  0.00000000000E+00 0.  1.
         14    1    6    6    0    0  0.27477820838E+02  0.36824269661E+01  0.97865691046E+02  0.10171668688E+03  0.00000000000E+00 0. -1.
         -5    1    3    3    0  503  0.79999986102E+02 -0.83141805875E+01  0.40232229898E+03  0.41031018222E+03  0.47000000000E+01 0.  1.
         11    1    4    4    0    0  0.85100922313E+01 -0.19308358061E+02  0.23648548081E+02  0.31693661624E+02  0.00000000000E+00 0. -1.
        -12    1    4    4    0    0  0.77352053915E+02  0.66743621340E+02  0.13635392947E+03  0.17038323074E+03  0.00000000000E+00 0.  1.
</event>
<event>
12    1  0.1066489E+000  0.1957529E+03  0.7818608E-02  0.1153416E+00
         21   -1    0    0  503  502  0.00000000000E+00  0.00000000000E+00  0.25873959441E+03  0.25873959441E+03  0.00000000000E+00 0.  1.
         21   -1    0    0  501  503 -0.00000000000E+00 -0.00000000000E+00 -0.15263116949E+03  0.15263116949E+03  0.00000000000E+00 0.  1.
          6    2    1    2  501    0  0.82478729384E+02  0.42834954979E+02  0.89102026835E+02  0.21507758260E+03  0.17228354878E+03 0.  0.
         24    2    3    3    0    0  0.16811428383E+02  0.13454856356E+02  0.11282490854E+03  0.13918127352E+03  0.78602224062E+02 0.  0.
         -6    2    1    2    0  502 -0.82478729384E+02 -0.42834954979E+02  0.17006398092E+02  0.19629318130E+03  0.17205877275E+03 0.  0.
        -24    2    5    5    0    0 -0.79691658170E+02 -0.90855573301E+02 -0.41305840658E+01  0.14354273520E+03  0.77343128467E+02 0.  0.
          5    1    3    3  501    0  0.65667301002E+02  0.29380098623E+02 -0.23722881701E+02  0.75896309081E+02  0.47000000000E+01 0. -1.
        -11    1    4    4    0    0 -0.31251512853E+02  0.66037387463E+00  0.36182040635E+02  0.47814571145E+02  0.00000000000E+00 0.  1.
         12    1    4    4    0    0  0.48062941235E+02  0.12794482481E+02  0.76642867900E+02  0.91366702371E+02  0.00000000000E+00 0. -1.
         -5    1    5    5    0  502 -0.27870712142E+01  0.48020618322E+02  0.21136982158E+02  0.52750446109E+02  0.47000000000E+01 0.  1.
         11    1    6    6    0    0 -0.55344278114E+02 -0.76203318466E+02  0.30268284210E+02  0.98924738536E+02  0.00000000000E+00 0. -1.
        -12    1    6    6    0    0 -0.24347380056E+02 -0.14652254834E+02 -0.34398868276E+02  0.44617996660E+02  0.00000000000E+00 0.  1.
</event>
<event>
12    1  0.1066489E+000  0.1918302E+03  0.7818608E-02  0.1161305E+00
         21   -1    0    0  503  502  0.00000000000E+00  0.00000000000E+00  0.10743730761E+04  0.10743730761E+04  0.00000000000E+00 0.  1.
         21   -1    0    0  501  503 -0.00000000000E+00 -0.00000000000E+00 -0.42661545976E+02  0.42661545976E+02  0.00000000000E+00 0.  1.
          6    2    1    2  501    0  0.35173905005E+02  0.17519564259E+02  0.82792476740E+03  0.84985778466E+03  0.18776233635E+03 0.  0.
         24    2    3    3    0    0  0.77252938267E+02  0.45642917844E+01  0.76399766992E+03  0.77209373180E+03  0.80295963876E+02 0.  0.
         -6    2    1    2    0  502 -0.35173905005E+02 -0.17519564259E+02  0.20378676272E+03  0.26717683740E+03  0.16825658698E+03 0.  0.
        -24    2    5    5    0    0 -0.57740851766E+02 -0.60378197989E+01  0.21644328271E+03  0.23848232503E+03  0.81582249868E+02 0.  0.
          5    1    3    3  501    0 -0.42079033261E+02  0.12955272475E+02  0.63927097482E+02  0.77764052862E+02  0.47000000000E+01 0. -1.
        -13    1    4    4    0    0 -0.14992926553E+02  0.59141016307E+01  0.19506346955E+03  0.19572818294E+03  0.00000000000E+00 0.  1.
         14    1    4    4    0    0  0.92245864819E+02 -0.13498098463E+01  0.56893420037E+03  0.57636554886E+03  0.00000000000E+00 0. -1.
         -5    1    5    5    0  502  0.22566946760E+02 -0.11481744460E+02 -0.12656519991E+02  0.28694512371E+02  0.47000000000E+01 0.  1.
         13    1    6    6    0    0 -0.33594001298E+02  0.30590886835E+02  0.55811924026E+02  0.71967563138E+02  0.00000000000E+00 0. -1.
        -14    1    6    6    0    0 -0.24146850468E+02 -0.36628706634E+02  0.16063135868E+03  0.16651476190E+03  0.00000000000E+00 0.  1.
</event>
<event>
12    1  0.1066489E+000  0.2255827E+03  0.7818608E-02  0.1129922E+00
         21   -1    0    0  501  502  0.00000000000E+00  0.00000000000E+00  0.35354877570E+03  0.35354877570E+03  0.00000000000E+00 0.  1.
         21   -1    0    0  502  503 -0.00000000000E+00 -0.00000000000E+00 -0.20636440262E+03  0.20636440262E+03  0.00000000000E+00 0.  1.
         -6    2    1    2    0  503  0.91678917732E+02 -0.11401177750E+03  0.22823975567E+03  0.32090642769E+03  0.17170859006E+03 0.  0.
        -24    2    3    3    0    0  0.13093048133E+03 -0.92094617426E+02  0.16312841123E+03  0.24164342040E+03  0.78463077747E+02 0.  0.
          6    2    1    2  501    0 -0.91678917732E+02  0.11401177750E+03 -0.81055382590E+02  0.23900675063E+03  0.17073529932E+03 0.  0.
         24    2    5    5    0    0 -0.29487330007E+02  0.11528843736E+03 -0.74859555012E+01  0.14254964075E+03  0.78124478425E+02 0.  0.
          5    1    5    5  501    0 -0.62191587725E+02 -0.12766598517E+01 -0.73569427089E+02  0.96457109880E+02  0.47000000000E+01 0. -1.
        -11    1    6    6    0    0 -0.30638153492E+02  0.28809994636E+02  0.26407272271E+02  0.49659402626E+02  0.00000000000E+00 0.  1.
         12    1    6    6    0    0  0.11508234856E+01  0.86478442720E+02 -0.33893227772E+02  0.92890238125E+02  0.00000000000E+00 0. -1.
         -5    1    3    3    0  503 -0.39251563600E+02 -0.21917160079E+02  0.65111344441E+02  0.79263007298E+02  0.47000000000E+01 0.  1.
         11    1    4    4    0    0  0.12166478786E+03 -0.96647856781E+02  0.16915597886E+03  0.22968864580E+03  0.00000000000E+00 0. -1.
        -12    1    4    4    0    0  0.92656934671E+01  0.45532393545E+01 -0.60275676301E+01  0.11954774594E+02  0.00000000000E+00 0.  1.
</event>
<event>
12    1  0.1066489E+000  0.1956837E+03  0.7818608E-02  0.1154390E+00
         21   -1    0    0  501  502  0.00000000000E+00  0.00000000000E+00  0.64750549820E+02  0.64750549820E+02  0.00000000000E+00 0.  1.
         21   -1    0    0  502  503 -0.00000000000E+00 -0.00000000000E+00 -0.75443352061E+03  0.75443352061E+03  0.00000000000E+00 0.  1.
         -6    2    1    2    0  503  0.82680555526E+02 -0.13787490806E+02 -0.14395365955E+03  0.23943188880E+03  0.17198489501E+03 0.  0.
        -24    2    3    3    0    0  0.20704819447E+02  0.20070829223E+02 -0.14650949025E+02  0.92025448487E+02  0.86153961766E+02 0.  0.
          6    2    1    2  501    0 -0.82680555526E+02  0.13787490806E+02 -0.54572931124E+03  0.57975218163E+03  0.17682177974E+03 0.  0.
         24    2    5    5    0    0 -0.11491188905E+03  0.42928853367E+02 -0.46699282137E+03  0.48969884904E+03  0.81700910906E+02 0.  0.
          5    1    5    5  501    0  0.32231333527E+02 -0.29141362561E+02 -0.78736489868E+02  0.90053332584E+02  0.47000000000E+01 0. -1.
        -11    1    6    6    0    0 -0.31471505153E+02 -0.14009390405E+02 -0.22263480989E+03  0.22528421434E+03  0.00000000000E+00 0.  1.
         12    1    6    6    0    0 -0.83440383900E+02  0.56938243772E+02 -0.24435801149E+03  0.26441463471E+03  0.00000000000E+00 0. -1.
         -5    1    3    3    0  503  0.61975736079E+02 -0.33858320028E+02 -0.12930271052E+03  0.14740644031E+03  0.47000000000E+01 0.  1.
         11    1    4    4    0    0  0.85763434832E+01  0.35234072570E+02 -0.43886084124E+02  0.56929622492E+02  0.00000000000E+00 0. -1.
        -12    1    4    4    0    0  0.12128475964E+02 -0.15163243347E+02  0.29235135099E+02  0.35095825995E+02  0.00000000000E+00 0.  1.
</event>
<event>
12    1  0.1066489E+000  0.2956618E+03  0.7818608E-02  0.1087572E+00
         21   -1    0    0  503  502  0.00000000000E+00  0.00000000000E+00  0.19792931691E+03  0.19792931691E+03  0.00000000000E+00 0. -1.
         21   -1    0    0  501  503 -0.00000000000E+00 -0.00000000000E+00 -0.79716784517E+03  0.79716784517E+03  0.00000000000E+00 0. -1.
          6    2    1    2  501    0 -0.21577554013E+03  0.10398489446E+03  0.33740081453E+02  0.29647150476E+03  0.17142058815E+03 0.  0.
         24    2    3    3    0    0 -0.18355493137E+03  0.14071275278E+03  0.35024901086E+02  0.24737115886E+03  0.80456540545E+02 0.  0.
         -6    2    1    2    0  502  0.21577554013E+03 -0.10398489446E+03 -0.63297860971E+03  0.69862565733E+03  0.17333189761E+03 0.  0.
        -24    2    5    5    0    0  0.88193038181E+02  0.11293959524E+01 -0.36765342491E+03  0.38598232613E+03  0.77679004347E+02 0.  0.
          5    1    3    3  501    0 -0.32220608761E+02 -0.36727858319E+02 -0.12848196331E+01  0.49100345896E+02  0.47000000000E+01 0. -1.
        -13    1    4    4    0    0 -0.16666274846E+03  0.95026829376E+02  0.46335141195E+02  0.19736644937E+03  0.00000000000E+00 0.  1.
         14    1    4    4    0    0 -0.16892182910E+02  0.45685923402E+02 -0.11310240109E+02  0.50004709497E+02  0.00000000000E+00 0. -1.
         -5    1    5    5    0  502  0.12758250195E+03 -0.10511429041E+03 -0.26532518480E+03  0.31264333120E+03  0.47000000000E+01 0.  1.
         13    1    6    6    0    0  0.11491417474E+02 -0.36114201801E+00 -0.11711251120E+01  0.11556583974E+02  0.00000000000E+00 0. -1.
        -14    1    6    6    0    0  0.76701620707E+02  0.14905379704E+01 -0.36648229980E+03  0.37442574216E+03  0.00000000000E+00 0.  1.
</event>
<event>
12    1  0.1066489E+000  0.1958231E+03  0.7818608E-02  0.1154708E+00
         21   -1    0    0  503  502  0.00000000000E+00  0.00000000000E+00  0.57942578855E+03  0.57942578855E+03  0.00000000000E+00 0.  1.
         21   -1    0    0  501  503 -0.00000000000E+00 -0.00000000000E+00 -0.64061111423E+02  0.64061111423E+02  0.00000000000E+00 0.  1.
          6    2    1    2  501    0  0.25187434193E+02 -0.87606669641E+02  0.25528834223E+03  0.31793137554E+03  0.16612912588E+03 0.  0.
         24    2    3    3    0    0 -0.34489473376E+02 -0.58321270993E+02  0.82964465915E+02  0.13317051328E+03  0.79122617374E+02 0.  0.
         -6    2    1    2    0  502 -0.25187434193E+02  0.87606669641E+02  0.26007633490E+03  0.32555552444E+03  0.17331290810E+03 0.  0.
        -24    2    5    5    0    0  0.57356651677E+01 -0.51337431832E+01  0.50258386086E+02  0.94032990140E+02  0.79101483480E+02 0.  0.
          5    1    3    3  501    0  0.59676907569E+02 -0.29285398647E+02  0.17232387632E+03  0.18476086225E+03  0.47000000000E+01 0. -1.
        -13    1    4    4    0    0 -0.18852549683E+02  0.17022349952E+02  0.32081668418E+02  0.40919585481E+02  0.00000000000E+00 0.  1.
         14    1    4    4    0    0 -0.15636923693E+02 -0.75343620945E+02  0.50882797496E+02  0.92250927804E+02  0.00000000000E+00 0. -1.
         -5    1    5    5    0  502 -0.30923099360E+02  0.92740412824E+02  0.20981794881E+03  0.23152253430E+03  0.47000000000E+01 0.  1.
         11    1    6    6    0    0 -0.40780047361E+01  0.14294000414E+02 -0.17443842963E+02  0.22918032808E+02  0.00000000000E+00 0. -1.
        -12    1    6    6    0    0  0.98136699037E+01 -0.19427743598E+02  0.67702229048E+02  0.71114957332E+02  0.00000000000E+00 0.  1.
</event>
<event>
12    1  0.1066489E+000  0.1957974E+03  0.7818608E-02  0.1153594E+00
         21   -1    0    0  501  502  0.00000000000E+00  0.00000000000E+00  0.93955529934E+02  0.93955529934E+02  0.00000000000E+00 0. -1.
         21   -1    0    0  502  503 -0.00000000000E+00 -0.00000000000E+00 -0.74982792303E+03  0.74982792303E+03  0.00000000000E+00 0. -1.
         -6    2    1    2    0  503 -0.57011593978E+01 -0.91818719984E+02 -0.42602047500E+02  0.20037853500E+03  0.17283935397E+03 0.  0.
        -24    2    3    3    0    0  0.94785786126E+01 -0.42763210946E+02  0.41197304039E+02  0.10198499492E+03  0.82372238436E+02 0.  0.
          6    2    1    2  501    0  0.57011593978E+01  0.91818719984E+02 -0.61327034560E+03  0.64340491796E+03  0.17148233468E+03 0.  0.
         24    2    5    5    0    0 -0.62056183275E+02  0.43820732731E+02 -0.30989857549E+03  0.32883952704E+03  0.79542950369E+02 0.  0.
          5    1    5    5  501    0  0.67757342673E+02  0.47997987253E+02 -0.30337177011E+03  0.31456539092E+03  0.47000000000E+01 0. -1.
        -11    1    6    6    0    0  0.18193660209E+01 -0.11372585571E+02 -0.51525185168E+01  0.12617220073E+02  0.00000000000E+00 0.  1.
         12    1    6    6    0    0 -0.63875549296E+02  0.55193318302E+02 -0.30474605697E+03  0.31622230696E+03  0.00000000000E+00 0. -1.
         -5    1    3    3    0  503 -0.15179738010E+02 -0.49055509038E+02 -0.83799351538E+02  0.98393540089E+02  0.47000000000E+01 0.  1.
         11    1    4    4    0    0  0.44864271521E+02 -0.32348913830E+02  0.32261433388E+02  0.64031673173E+02  0.00000000000E+00 0. -1.
        -12    1    4    4    0    0 -0.35385692908E+02 -0.10414297115E+02  0.89358706505E+01  0.37953321742E+02  0.00000000000E+00 0.  1.
</event>
<event>
12    1  0.1066489E+000  0.1787623E+03  0.7818608E-02  0.1169164E+00
         21   -1    0    0  503  502  0.00000000000E+00  0.00000000000E+00  0.32320230505E+02  0.32320230505E+02  0.00000000000E+00 0.  1.
         21   -1    0    0  501  503 -0.00000000000E+00 -0.00000000000E+00 -0.98847619578E+03  0.98847619578E+03  0.00000000000E+00 0.  1.
          6    2    1    2  501    0  0.36183652132E+02 -0.28750842567E+02 -0.44938987192E+03  0.48363954939E+03  0.17268494180E+03 0.  0.
         24    2    3    3    0    0 -0.41314489000E+01 -0.14875181538E+02 -0.42873645223E+03  0.43603182853E+03  0.77913221809E+02 0.  0.
         -6    2    1    2    0  502 -0.36183652132E+02  0.28750842567E+02 -0.50676609336E+03  0.53715687690E+03  0.17201677066E+03 0.  0.
        -24    2    5    5    0    0 -0.76324222975E+02  0.61680413847E+02 -0.34368249981E+03  0.36594364558E+03  0.78531717155E+02 0.  0.
          5    1    3    3  501    0  0.40315101032E+02 -0.13875661028E+02 -0.20653419691E+02  0.47607720856E+02  0.47000000000E+01 0. -1.
        -13    1    4    4    0    0 -0.90469696852E+01  0.42431883898E+00 -0.23689556209E+01  0.93616055084E+01  0.00000000000E+00 0.  1.
         14    1    4    4    0    0  0.49155207852E+01 -0.15299500377E+02 -0.42636749660E+03  0.42667022303E+03  0.00000000000E+00 0. -1.
         -5    1    5    5    0  502  0.40140570844E+02 -0.32929571280E+02 -0.16308359356E+03  0.17121323132E+03  0.47000000000E+01 0.  1.
         13    1    6    6    0    0  0.15422588875E+02  0.15217895128E+02 -0.42809922140E+02  0.47980517019E+02  0.00000000000E+00 0. -1.
        -14    1    6    6    0    0 -0.91746811850E+02  0.46462518719E+02 -0.30087257767E+03  0.31796312856E+03  0.00000000000E+00 0.  1.
</event>
<event>
12    1  0.1066489E+000  0.2471703E+03  0.7818608E-02  0.1115525E+00
         21   -1    0    0  501  502  0.00000000000E+00  0.00000000000E+00  0.79053802581E+02  0.79053802581E+02  0.00000000000E+00 0.  1.
         21   -1    0    0  502  503 -0.00000000000E+00 -0.00000000000E+00 -0.78115244768E+03  0.78115244768E+03  0.00000000000E+00 0.  1.
         -6    2    1    2    0  503 -0.89770861104E+01 -0.17611197521E+03 -0.41165287249E+03  0.47882468448E+03  0.16946673760E+03 0.  0.
        -24    2    3    3    0    0 -0.66137351463E+02 -0.79231259857E+02 -0.19258863476E+03  0.23252324479E+03  0.79529462035E+02 0.  0.
          6    2    1    2  501    0  0.89770861104E+01  0.17611197521E+03 -0.29044577261E+03  0.38138156578E+03  0.17319681292E+03 0.  0.
         24    2    5    5    0    0  0.28702663694E+02  0.23904796945E+02 -0.14499642584E+03  0.16987807644E+03  0.80245343355E+02 0.  0.
          5    1    5    5  501    0 -0.19725577584E+02  0.15220717826E+03 -0.14544934677E+03  0.21150348934E+03  0.47000000000E+01 0. -1.
        -13    1    6    6    0    0 -0.22312472987E+02 -0.40145991830E+00 -0.11919047103E+02  0.25299630525E+02  0.00000000000E+00 0.  1.
         14    1    6    6    0    0  0.51015136681E+02  0.24306256863E+02 -0.13307737873E+03  0.14457844592E+03  0.00000000000E+00 0. -1.
         -5    1    3    3    0  503  0.57160265353E+02 -0.96880715351E+02 -0.21906423773E+03  0.24630143969E+03  0.47000000000E+01 0.  1.
         13    1    4    4    0    0 -0.65043117527E+02 -0.94539457846E+02 -0.17375138974E+03  0.20822550676E+03  0.00000000000E+00 0. -1.
        -14    1    4    4    0    0 -0.10942339363E+01  0.15308197989E+02 -0.18837245017E+02  0.24297738030E+02  0.00000000000E+00 0.  1.
</event>
<event>
12    1  0.1066489E+000  0.2144279E+03  0.7818608E-02  0.1138364E+00
         21   -1    0    0  503  502  0.00000000000E+00  0.00000000000E+00  0.27173341185E+03  0.27173341185E+03  0.00000000000E+00 0. -1.
         21   -1    0    0  501  503 -0.00000000000E+00 -0.00000000000E+00 -0.16824851474E+03  0.16824851474E+03  0.00000000000E+00 0. -1.
          6    2    1    2  501    0 -0.12027145383E+02  0.12575905078E+03  0.46884735591E+02  0.21949377658E+03  0.17326092591E+03 0.  0.
         24    2    3    3    0    0 -0.64031793462E+02  0.74443328822E+02  0.67087859495E+02  0.14354614359E+03  0.80391757461E+02 0.  0.
         -6    2    1    2    0  502  0.12027145383E+02 -0.12575905078E+03  0.56600161518E+02  0.22048815000E+03  0.17161426202E+03 0.  0.
        -24    2    5    5    0    0  0.25419552197E+02 -0.86143978491E+02  0.10208139824E+03  0.15852571456E+03  0.81503690992E+02 0.  0.
          5    1    3    3  501    0  0.52004648079E+02  0.51315721955E+02 -0.20203123904E+02  0.75947632992E+02  0.47000000000E+01 0. -1.
        -11    1    4    4    0    0 -0.33627469977E+02  0.77951227997E+02  0.19727749608E+02  0.87157241741E+02  0.00000000000E+00 0.  1.
         12    1    4    4    0    0 -0.30404323484E+02 -0.35078991751E+01  0.47360109887E+02  0.56388901848E+02  0.00000000000E+00 0. -1.
         -5    1    5    5    0  502 -0.13392406814E+02 -0.39615072286E+02 -0.45481236723E+02  0.61962435446E+02  0.47000000000E+01 0.  1.
         13    1    6    6    0    0 -0.67269227999E+01  0.12323060524E+02  0.14567536926E+01  0.14114936853E+02  0.00000000000E+00 0. -1.
        -14    1    6    6    0    0  0.32146474997E+02 -0.98467039015E+02  0.10062464455E+03  0.14441077771E+03  0.00000000000E+00 0.  1.
</event>
<event>
12    1  0.1066489E+000  0.4491168E+03  0.7818608E-02  0.1027992E+00
         21   -1    0    0  501  502  0.00000000000E+00  0.00000000000E+00  0.37833627359E+03  0.37833627359E+03  0.00000000000E+00 0. -1.
         21   -1    0    0  502  503 -0.00000000000E+00 -0.00000000000E+00 -0.78981215374E+03  0.78981215374E+03  0.00000000000E+00 0.  1.
         -6    2    1    2    0  503 -0.39074012736E+03  0.13933827050E+03  0.12727793156E+03  0.46680353672E+03  0.17208390184E+03 0.  0.
        -24    2    3    3    0    0 -0.24429155702E+03  0.12659726336E+03  0.14220088081E+03  0.31897153263E+03  0.76266088159E+02 0.  0.
          6    2    1    2  501    0  0.39074012736E+03 -0.13933827050E+03 -0.53875381171E+03  0.70134489061E+03  0.17186036538E+03 0.  0.
         24    2    5    5    0    0  0.24722572809E+03 -0.34215415702E+02 -0.24793064535E+03  0.36039415884E+03  0.78250172656E+02 0.  0.
          5    1    5    5  501    0  0.14351439927E+03 -0.10512285479E+03 -0.29082316636E+03  0.34095073176E+03  0.47000000000E+01 0. -1.
        -11    1    6    6    0    0  0.86547322120E+02  0.21615707629E+02 -0.63509123167E+02  0.10950381960E+03  0.00000000000E+00 0.  1.
         12    1    6    6    0    0  0.16067840597E+03 -0.55831123331E+02 -0.18442152219E+03  0.25089033924E+03  0.00000000000E+00 0. -1.
         -5    1    3    3    0  503 -0.14644857034E+03  0.12741007138E+02 -0.14922949248E+02  0.14783200409E+03  0.47000000000E+01 0.  1.
         13    1    4    4    0    0 -0.17271931341E+03  0.92023036282E+02  0.60163724106E+02  0.20474343489E+03  0.00000000000E+00 0. -1.
        -14    1    4    4    0    0 -0.71572243612E+02  0.34574227078E+02  0.82037156707E+02  0.11422809774E+03  0.00000000000E+00 0.  1.
</event>
<event>
12    1  0.1066489E+000  0.2224626E+03  0.7818608E-02  0.1132604E+00
         21   -1    0    0  501  502  0.00000000000E+00  0.00000000000E+00  0.11590126511E+03  0.11590126511E+03  0.00000000000E+00 0. -1.
         21   -1    0    0  502  503 -0.00000000000E+00 -0.00000000000E+00 -0.45422513186E+03  0.45422513186E+03  0.00000000000E+00 0. -1.
         -6    2    1    2    0  503 -0.80500088777E+02 -0.10744375764E+03 -0.93542903912E+02  0.24132942457E+03  0.17738430298E+03 0.  0.
        -24    2    3    3    0    0 -0.82608159475E+02 -0.14367858143E+03 -0.89168587491E+02  0.20446981169E+03  0.79932622412E+02 0.  0.
          6    2    1    2  501    0  0.80500088777E+02  0.10744375764E+03 -0.24478096285E+03  0.32879697240E+03  0.17368161658E+03 0.  0.
         24    2    5    5    0    0  0.68365287019E+02 -0.47656608748E+01 -0.14008427100E+03  0.17477848552E+03  0.78913826590E+02 0.  0.
          5    1    5    5  501    0  0.12134801758E+02  0.11220941851E+03 -0.10469669185E+03  0.15401848688E+03  0.47000000000E+01 0. -1.
        -13    1    6    6    0    0  0.17593539462E+02  0.35427369898E+02 -0.47855238616E+02  0.62086673543E+02  0.00000000000E+00 0.  1.
         14    1    6    6    0    0  0.50771747557E+02 -0.40193030772E+02 -0.92229032384E+02  0.11269181198E+03  0.00000000000E+00 0. -1.
         -5    1    3    3    0  503  0.21080706978E+01  0.36234823792E+02 -0.43743164209E+01  0.36859612877E+02  0.47000000000E+01 0.  1.
         11    1    4    4    0    0  0.12508926748E+02 -0.33019889657E+02 -0.40572979139E+01  0.35542200659E+02  0.00000000000E+00 0. -1.
        -12    1    4    4    0    0 -0.95117086223E+02 -0.11065869177E+03 -0.85111289577E+02  0.16892761103E+03  0.00000000000E+00 0.  1.
</event>
<event>
12    1  0.1066489E+000  0.3704618E+03  0.7818608E-02  0.1054537E+00
         21   -1    0    0  501  502  0.00000000000E+00  0.00000000000E+00  0.86740294621E+03  0.86740294621E+03  0.00000000000E+00 0. -1.
         21   -1    0    0  502  503 -0.00000000000E+00 -0.00000000000E+00 -0.19038077033E+03  0.19038077033E+03  0.00000000000E+00 0. -1.
         -6    2    1    2    0  503 -0.26886288963E+03 -0.18782059447E+03  0.12091256188E+03  0.38969445187E+03  0.17227329762E+03 0.  0.
        -24    2    3    3    0    0 -0.42223497333E+02 -0.68313385379E+02  0.59734914836E+02  0.12623253496E+03  0.76921066577E+02 0.  0.
          6    2    1    2  501    0  0.26886288963E+03  0.18782059447E+03  0.55610961401E+03  0.66808926467E+03  0.17181831579E+03 0.  0.
         24    2    5    5    0    0  0.17536189204E+03  0.14543640028E+03  0.48943770373E+03  0.54558991737E+03  0.78838774721E+02 0.  0.
          5    1    5    5  501    0  0.93500997590E+02  0.42384194192E+02  0.66671910282E+02  0.12249934730E+03  0.47000000000E+01 0. -1.
        -11    1    6    6    0    0  0.59386879646E+02  0.86631525652E+01  0.15290748834E+03  0.16426366511E+03  0.00000000000E+00 0.  1.
         12    1    6    6    0    0  0.11597501239E+03  0.13677324772E+03  0.33653021539E+03  0.38132625226E+03  0.00000000000E+00 0. -1.
         -5    1    3    3    0  503 -0.22663939229E+03 -0.11950720910E+03  0.61177647041E+02  0.26346191691E+03  0.47000000000E+01 0.  1.
         13    1    4    4    0    0  0.11770805358E+02 -0.38365890214E+02 -0.27411789731E+00  0.40131889206E+02  0.00000000000E+00 0. -1.
        -14    1    4    4    0    0 -0.53994302691E+02 -0.29947495165E+02  0.60009032733E+02  0.86100645755E+02  0.00000000000E+00 0.  1.
</event>
<event>
12    1  0.1066489E+000  0.2544840E+03  0.7818608E-02  0.1110549E+00
         21   -1    0    0  501  502  0.00000000000E+00  0.00000000000E+00  0.11524156336E+03  0.11524156336E+03  0.00000000000E+00 0.  1.
         21   -1    0    0  502  503 -0.00000000000E+00 -0.00000000000E+00 -0.80941946042E+03  0.80941946042E+03  0.00000000000E+00 0.  1.
         -6    2    1    2    0  503 -0.18457479137E+03 -0.34438279987E+02 -0.91263672120E+02  0.27035372974E+03  0.17177960471E+03 0.  0.
        -24    2    3    3    0    0 -0.18836372673E+03 -0.34896778576E+02 -0.11954022916E+03  0.24143626218E+03  0.85457144850E+02 0.  0.
          6    2    1    2  501    0  0.18457479137E+03  0.34438279987E+02 -0.60291422494E+03  0.65430729405E+03  0.17134358371E+03 0.  0.
         24    2    5    5    0    0  0.34936223490E+02  0.58564374434E+02 -0.27629846123E+03  0.29420492453E+03  0.74601422758E+02 0.  0.
          5    1    5    5  501    0  0.14963856788E+03 -0.24126094446E+02 -0.32661576371E+03  0.36010236952E+03  0.47000000000E+01 0. -1.
        -13    1    6    6    0    0  0.24606511164E+02  0.60146846964E+02 -0.11135272410E+03  0.12892847923E+03  0.00000000000E+00 0.  1.
         14    1    6    6    0    0  0.10329712326E+02 -0.15824725301E+01 -0.16494573713E+03  0.16527644530E+03  0.00000000000E+00 0. -1.
         -5    1    3    3    0  503  0.37889353573E+01  0.45849858905E+00  0.28276557037E+02  0.28917467558E+02  0.47000000000E+01 0.  1.
         11    1    4    4    0    0 -0.16313973992E+03 -0.10409100532E+02 -0.63685179678E+02  0.17543866799E+03  0.00000000000E+00 0. -1.
        -12    1    4    4    0    0 -0.25223986807E+02 -0.24487678044E+02 -0.55855049478E+02  0.65997594188E+02  0.00000000000E+00 0.  1.
</event>
<event>
12    1  0.1066489E+000  0.2212136E+03  0.7818608E-02  0.1133115E+00
         21   -1    0    0  503  502  0.00000000000E+00  0.00000000000E+00  0.18778439925E+03  0.18778439925E+03  0.00000000000E+00 0.  1.
         21   -1    0    0  501  503 -0.00000000000E+00 -0.00000000000E+00 -0.53109865572E+03  0.53109865572E+03  0.00000000000E+00 0.  1.
          6    2    1    2  501    0 -0.11377968428E+03  0.81140029900E+02  0.85130748940E+02  0.23702889962E+03  0.17148158454E+03 0.  0.
         24    2    3    3    0    0 -0.22476142375E+01  0.34937475697E+02  0.72313317754E+02  0.11553628584E+03  0.83028539929E+02 0.  0.
         -6    2    1    2    0  502  0.11377968428E+03 -0.81140029900E+02 -0.42844500541E+03  0.48185415535E+03  0.17055434136E+03 0.  0.
        -24    2    5    5    0    0  0.13076592570E+03 -0.49980264227E+02 -0.23533810979E+03  0.28545704098E+03  0.80647022209E+02 0.  0.
          5    1    3    3  501    0 -0.11153207004E+03  0.46202554202E+02  0.12817431186E+02  0.12149261378E+03  0.47000000000E+01 0. -1.
        -11    1    4    4    0    0 -0.15178311294E+02  0.59790253524E+02  0.54685410644E+02  0.82436337179E+02  0.00000000000E+00 0.  1.
         12    1    4    4    0    0  0.12930697057E+02 -0.24852777827E+02  0.17627907111E+02  0.33099948659E+02  0.00000000000E+00 0. -1.
         -5    1    5    5    0  502 -0.16986241421E+02 -0.31159765672E+02 -0.19310689563E+03  0.19639711437E+03  0.47000000000E+01 0.  1.
         11    1    6    6    0    0  0.72029260824E+02  0.43635095488E+00 -0.59832817651E+02  0.93639579693E+02  0.00000000000E+00 0. -1.
        -12    1    6    6    0    0  0.58736664873E+02 -0.50416615182E+02 -0.17550529213E+03  0.19181746129E+03  0.00000000000E+00 0.  1.
</event>
<event>
12    1  0.1066489E+000  0.2002145E+03  0.7818608E-02  0.1149783E+00
         21   -1    0    0  501  502  0.00000000000E+00  0.00000000000E+00  0.37989268657E+03  0.37989268657E+03  0.00000000000E+00 0. -1.
         21   -1    0    0  502  503 -0.00000000000E+00 -0.00000000000E+00 -0.25078210089E+03  0.25078210089E+03  0.00000000000E+00 0. -1.
         -6    2    1    2    0  503  0.90956123609E+01 -0.10121852549E+03  0.30508507433E+03  0.36491473955E+03  0.17250491150E+03 0.  0.
        -24    2    3    3    0    0  0.51513808215E+02 -0.11723655810E+03  0.20320579765E+03  0.25330220564E+03  0.80444565949E+02 0.  0.
          6    2    1    2  501    0 -0.90956123609E+01  0.10121852549E+03 -0.17597448866E+03  0.26576004791E+03  0.17127014434E+03 0.  0.
         24    2    5    5    0    0  0.35084188387E+02  0.51595050235E+02 -0.31939459290E+02  0.10707002373E+03  0.80937700973E+02 0.  0.
          5    1    5    5  501    0 -0.44179800748E+02  0.49623475255E+02 -0.14403502937E+03  0.15869002418E+03  0.47000000000E+01 0. -1.
        -13    1    6    6    0    0 -0.32917850118E+01  0.88000544967E+01  0.24666673709E+02  0.26395484455E+02  0.00000000000E+00 0.  1.
         14    1    6    6    0    0  0.38375973399E+02  0.42794995738E+02 -0.56606132999E+02  0.80674539278E+02  0.00000000000E+00 0. -1.
         -5    1    3    3    0  503 -0.42418195855E+02  0.16018032609E+02  0.10187927668E+03  0.11161253391E+03  0.47000000000E+01 0.  1.
         13    1    4    4    0    0  0.22090488382E+02 -0.91054612174E+01  0.93405726749E+02  0.96413323200E+02  0.00000000000E+00 0. -1.
        -14    1    4    4    0    0  0.29423319834E+02 -0.10813109688E+03  0.10980007090E+03  0.15688888244E+03  0.00000000000E+00 0.  1.
</event>
<event>
12    1  0.1066489E+000  0.1941975E+03  0.7818608E-02  0.1158927E+00
         21   -1    0    0  503  502  0.00000000000E+00  0.00000000000E+00  0.32512067937E+04  0.32512067937E+04  0.00000000000E+00 0. -1.
         21   -1    0    0  501  503 -0.00000000000E+00 -0.00000000000E+00 -0.11254221258E+02  0.11254221258E+02  0.00000000000E+00 0. -1.
          6    2    1    2  501    0 -0.33033985475E+02  0.24444913052E+02  0.19561839549E+04  0.19640872181E+04  0.17115530157E+03 0.  0.
         24    2    3    3    0    0  0.44797610280E+02  0.18859314348E+02  0.11947788515E+04  0.11986796289E+04  0.83509575408E+02 0.  0.
         -6    2    1    2    0  502  0.33033985475E+02 -0.24444913052E+02  0.12837686176E+04  0.12983737968E+04  0.18979951210E+03 0.  0.
        -24    2    5    5    0    0 -0.16647667958E+02 -0.68293164186E+02  0.10471702964E+04  0.10526263830E+04  0.80719089306E+02 0.  0.
          5    1    3    3  501    0 -0.77831595755E+02  0.55855987031E+01  0.76140510333E+03  0.76540758919E+03  0.47000000000E+01 0. -1.
        -11    1    4    4    0    0  0.19846854947E+02  0.45924473692E+02  0.93116460553E+03  0.93250762867E+03  0.00000000000E+00 0.  1.
         12    1    4    4    0    0  0.24950755333E+02 -0.27065159343E+02  0.26361424599E+03  0.26617200028E+03  0.00000000000E+00 0. -1.
         -5    1    5    5    0  502  0.49681653433E+02  0.43848251134E+02  0.23659832117E+03  0.24574741381E+03  0.47000000000E+01 0.  1.
         13    1    6    6    0    0  0.51847675026E+01  0.14973394508E+01  0.55749095301E+03  0.55751707286E+03  0.00000000000E+00 0. -1.
        -14    1    6    6    0    0 -0.21832435460E+02 -0.69790503637E+02  0.48967934342E+03  0.49510931016E+03  0.00000000000E+00 0.  1.
</event>
<event>
12    1  0.1066489E+000  0.1854976E+03  0.7818608E-02  0.1163725E+00
         21   -1    0    0  501  502  0.00000000000E+00  0.00000000000E+00  0.77092611496E+02  0.77092611496E+02  0.00000000000E+00 0. -1.
         21   -1    0    0  502  503 -0.00000000000E+00 -0.00000000000E+00 -0.43492714797E+03  0.43492714797E+03  0.00000000000E+00 0. -1.
         -6    2    1    2    0  503 -0.41432904490E+02  0.42633578154E+02 -0.17212831001E+03  0.24953896071E+03  0.17060841200E+03 0.  0.
        -24    2    3    3    0    0 -0.57926391034E+02  0.83847303928E+02 -0.15546177747E+03  0.20188951583E+03  0.78772934398E+02 0.  0.
          6    2    1    2  501    0  0.41432904490E+02 -0.42633578154E+02 -0.18570622646E+03  0.26248079875E+03  0.17571300352E+03 0.  0.
         24    2    5    5    0    0  0.23176127404E+02 -0.23034307739E+02 -0.20868395278E+03  0.22687873116E+03  0.82808539955E+02 0.  0.
          5    1    5    5  501    0  0.18256777086E+02 -0.19599270415E+02  0.22977726319E+02  0.35602067597E+02  0.47000000000E+01 0. -1.
        -13    1    6    6    0    0  0.14231141677E+02 -0.30983734383E+02 -0.23736238219E+02  0.41544267890E+02  0.00000000000E+00 0.  1.
         14    1    6    6    0    0  0.89449857271E+01  0.79494266435E+01 -0.18494771456E+03  0.18533446327E+03  0.00000000000E+00 0. -1.
         -5    1    3    3    0  503  0.16493486544E+02 -0.41213725774E+02 -0.16666532542E+02  0.47649444881E+02  0.47000000000E+01 0.  1.
         11    1    4    4    0    0 -0.64565872119E+02  0.32052172050E+02 -0.11544154402E+03  0.13609865415E+03  0.00000000000E+00 0. -1.
        -12    1    4    4    0    0  0.66394810844E+01  0.51795131878E+02 -0.40020233453E+02  0.65790861683E+02  0.00000000000E+00 0.  1.
</event>
<event>
12    1  0.1066489E+000  0.1805020E+03  0.7818608E-02  0.1167342E+00
         21   -1    0    0  501  502  0.00000000000E+00  0.00000000000E+00  0.38427335832E+03  0.38427335832E+03  0.00000000000E+00 0.  1.
         21   -1    0    0  502  503 -0.00000000000E+00 -0.00000000000E+00 -0.96535690264E+02  0.96535690264E+02  0.00000000000E+00 0.  1.
         -6    2    1    2    0  503  0.50891831100E+02  0.16493160567E+02  0.59798250625E+02  0.19005599353E+03  0.17228884782E+03 0.  0.
        -24    2    3    3    0    0  0.99955054175E+02  0.15761184480E+02  0.26918996005E+02  0.13080338995E+03  0.78393027014E+02 0.  0.
          6    2    1    2  501    0 -0.50891831100E+02 -0.16493160567E+02  0.22793941743E+03  0.29075305505E+03  0.17239187389E+03 0.  0.
         24    2    5    5    0    0 -0.19108487429E+02 -0.48429204048E+02  0.50432884158E+02  0.10755711852E+03  0.79464053774E+02 0.  0.
          5    1    5    5  501    0 -0.31783343671E+02  0.31936043480E+02  0.17750653327E+03  0.18319593653E+03  0.47000000000E+01 0. -1.
        -13    1    6    6    0    0 -0.11195978796E+02  0.61708552060E+00  0.56414335885E+02  0.57517893121E+02  0.00000000000E+00 0.  1.
         14    1    6    6    0    0 -0.79125086333E+01 -0.49046289568E+02 -0.59814517269E+01  0.50039225394E+02  0.00000000000E+00 0. -1.
         -5    1    3    3    0  503 -0.49063223075E+02  0.73197608736E+00  0.32879254620E+02  0.59252603588E+02  0.47000000000E+01 0.  1.
         13    1    4    4    0    0  0.48025298482E+02 -0.23116913802E+02 -0.12699414824E+02  0.54791387415E+02  0.00000000000E+00 0. -1.
        -14    1    4    4    0    0  0.51929755693E+02  0.38878098282E+02  0.39618410829E+02  0.76012002532E+02  0.00000000000E+00 0.  1.
</event>
<event>
12    1  0.1066489E+000  0.2923483E+03  0.7818608E-02  0.1089197E+00
         21   -1    0    0  501  502  0.00000000000E+00  0.00000000000E+00  0.26282433009E+04  0.26282433009E+04  0.00000000000E+00 0. -1.
         21   -1    0    0  502  503 -0.00000000000E+00 -0.00000000000E+00 -0.37133519438E+02  0.37133519438E+02  0.00000000000E+00 0. -1.
         -6    2    1    2    0  503  0.13716730464E+03  0.19207223829E+03  0.17672899953E+04  0.17912220598E+04  0.17162728768E+03 0.  0.
        -24    2    3    3    0    0 -0.15837527902E+01  0.81508431948E+02  0.66413607022E+03  0.67388286170E+03  0.79970361853E+02 0.  0.
          6    2    1    2  501    0 -0.13716730464E+03 -0.19207223829E+03  0.82381978610E+03  0.87415476046E+03  0.17251345192E+03 0.  0.
         24    2    5    5    0    0 -0.63344882857E+02 -0.33842807651E+02  0.19920896352E+03  0.22558165560E+03  0.77749356145E+02 0.  0.
          5    1    5    5  501    0 -0.73822421785E+02 -0.15822943064E+03  0.62461082257E+03  0.64857310486E+03  0.47000000000E+01 0. -1.
        -11    1    6    6    0    0 -0.12653540282E+02 -0.50661035209E+02  0.10571731135E+03  0.11791014582E+03  0.00000000000E+00 0.  1.
         12    1    6    6    0    0 -0.50691342575E+02  0.16818227559E+02  0.93491652178E+02  0.10767150977E+03  0.00000000000E+00 0. -1.
         -5    1    3    3    0  503  0.13875105743E+03  0.11056380634E+03  0.11031539251E+04  0.11173391981E+04  0.47000000000E+01 0.  1.
         11    1    4    4    0    0 -0.26354637450E+02  0.76144006947E+01  0.31309786470E+03  0.31429734153E+03  0.00000000000E+00 0. -1.
        -12    1    4    4    0    0  0.24770884660E+02  0.73894031253E+02  0.35103820552E+03  0.35958552017E+03  0.00000000000E+00 0.  1.
</event>
<event>
12    1  0.1066489E+000  0.1901214E+03  0.7818608E-02  0.1158791E+00
         21   -1    0    0  503  502  0.00000000000E+00  0.00000000000E+00  0.35375154960E+03  0.35375154960E+03  0.00000000000E+00 0.  1.
         21   -1    0    0  501  503 -0.00000000000E+00 -0.00000000000E+00 -0.11669592170E+03  0.11669592170E+03  0.00000000000E+00 0.  1.
          6    2    1    2  501    0  0.27757877309E+02 -0.72039424854E+02  0.32119232117E+02  0.19090305013E+03  0.17161628999E+03 0.  0.
         24    2    3    3    0    0  0.52647513604E+02 -0.89114923077E+02  0.64820799474E+02  0.14615319938E+03  0.80285686400E+02 0.  0.
         -6    2    1    2    0  502 -0.27757877309E+02  0.72039424854E+02  0.20493639578E+03  0.27954442117E+03  0.17374112525E+03 0.  0.
        -24    2    5    5    0    0 -0.21890604767E+02  0.10407712751E+03  0.20787255390E+03  0.24650580281E+03  0.79011803613E+02 0.  0.
          5    1    3    3  501    0 -0.24889636295E+02  0.17075498223E+02 -0.32701567356E+02  0.44749850749E+02  0.47000000000E+01 0. -1.
        -13    1    4    4    0    0 -0.20233485216E+02 -0.32209691230E+02  0.24735007206E+02  0.45372664839E+02  0.00000000000E+00 0.  1.
         14    1    4    4    0    0  0.72880998820E+02 -0.56905231847E+02  0.40085792268E+02  0.10078053454E+03  0.00000000000E+00 0. -1.
         -5    1    5    5    0  502 -0.58672725422E+01 -0.32037702654E+02 -0.29361581117E+01  0.33038618356E+02  0.47000000000E+01 0.  1.
         13    1    6    6    0    0  0.94133153008E+01  0.11351678856E+02 -0.20521830565E+01  0.14889008466E+02  0.00000000000E+00 0. -1.
        -14    1    6    6    0    0 -0.31303920068E+02  0.92725448651E+02  0.20992473695E+03  0.23161679435E+03  0.00000000000E+00 0.  1.
</event>
<event>
12    1  0.1066489E+000  0.2156943E+03  0.7818608E-02  0.1138496E+00
         21   -1    0    0  503  502  0.00000000000E+00  0.00000000000E+00  0.26987456571E+02  0.26987456571E+02  0.00000000000E+00 0. -1.
         21   -1    0    0  501  503 -0.00000000000E+00 -0.00000000000E+00 -0.17101646934E+04  0.17101646934E+04  0.00000000000E+00 0.  1.
          6    2    1    2  501    0  0.10550954086E+03  0.75088889462E+02 -0.96366011511E+03  0.98600042789E+03  0.16366252414E+03 0.  0.
         24    2    3    3    0    0  0.11895593439E+03  0.50676208651E+02 -0.53073830168E+03  0.55215694111E+03  0.80470803936E+02 0.  0.
         -6    2    1    2    0  502 -0.10550954086E+03 -0.75088889462E+02 -0.71951712170E+03  0.75115172207E+03  0.17249178708E+03 0.  0.
        -24    2    5    5    0    0 -0.11478056128E+03 -0.75497495035E+01 -0.38713118464E+03  0.41181414914E+03  0.80552860545E+02 0.  0.
          5    1    3    3  501    0 -0.13446393528E+02  0.24412680811E+02 -0.43292181343E+03  0.43384348678E+03  0.47000000000E+01 0. -1.
        -13    1    4    4    0    0  0.59360363495E+02 -0.14814154859E+02 -0.26815172864E+03  0.27504265398E+03  0.00000000000E+00 0.  1.
         14    1    4    4    0    0  0.59595570894E+02  0.65490363511E+02 -0.26258657305E+03  0.27711428712E+03  0.00000000000E+00 0. -1.
         -5    1    5    5    0  502  0.92710204229E+01 -0.67539139959E+02 -0.33238593706E+03  0.33933757293E+03  0.47000000000E+01 0.  1.
         11    1    6    6    0    0 -0.12506880250E+03 -0.14470711886E+02 -0.32662903817E+03  0.35005447495E+03  0.00000000000E+00 0. -1.
        -12    1    6    6    0    0  0.10288241211E+02  0.69209623829E+01 -0.60502146474E+02  0.61759674186E+02  0.00000000000E+00 0.  1.
</event>
<event>
12    1  0.1066489E+000  0.3082920E+03  0.7818608E-02  0.1081178E+00
         21   -1    0    0  501  502  0.00000000000E+00  0.00000000000E+00  0.18611702011E+03  0.18611702011E+03  0.00000000000E+00 0. -1.
         21   -1    0    0  502  503 -0.00000000000E+00 -0.00000000000E+00 -0.66306165637E+03  0.66306165637E+03  0.00000000000E+00 0.  1.
         -6    2    1    2    0  503  0.90576340344E+02  0.23928365104E+03 -0.34795476009E+02  0.31016121059E+03  0.17183862289E+03 0.  0.
        -24    2    3    3    0    0  0.68184663691E+02  0.12488935397E+03  0.44141424992E+02  0.16930466397E+03  0.80430745019E+02 0.  0.
          6    2    1    2  501    0 -0.90576340344E+02 -0.23928365104E+03 -0.44214916025E+03  0.53901746589E+03  0.17199770214E+03 0.  0.
         24    2    5    5    0    0 -0.77001252713E+02 -0.96011766871E+02 -0.31238170005E+03  0.34518042216E+03  0.80123311329E+02 0.  0.
          5    1    5    5  501    0 -0.13575087631E+02 -0.14327188417E+03 -0.12976746020E+03  0.19383704374E+03  0.47000000000E+01 0. -1.
        -13    1    6    6    0    0 -0.56282812723E+02 -0.10217877708E+03 -0.20702678851E+03  0.23763069805E+03  0.00000000000E+00 0.  1.
         14    1    6    6    0    0 -0.20718439990E+02  0.61670102121E+01 -0.10535491154E+03  0.10754972411E+03  0.00000000000E+00 0. -1.
         -5    1    3    3    0  503  0.22391676653E+02  0.11439429707E+03 -0.78936901001E+02  0.14085654662E+03  0.47000000000E+01 0.  1.
         11    1    4    4    0    0 -0.79936253786E+01  0.54605538129E+02 -0.33607074438E+01  0.55289756697E+02  0.00000000000E+00 0. -1.
        -12    1    4    4    0    0  0.76178289070E+02  0.70283815837E+02  0.47502132436E+02  0.11401490727E+03  0.00000000000E+00 0.  1.
</event>
<event>
12    1  0.1066489E+000  0.2386964E+03  0.7818608E-02  0.1120746E+00
         21   -1    0    0  501  502  0.00000000000E+00  0.00000000000E+00  0.31947522602E+03  0.31947522602E+03  0.00000000000E+00 0.  1.
         21   -1    0    0  502  503 -0.00000000000E+00 -0.00000000000E+00 -0.20564693446E+03  0.20564693446E+03  0.00000000000E+00 0.  1.
         -6    2    1    2    0  503 -0.64177133668E+02 -0.15211761735E+03 -0.39443946407E+02  0.24145270530E+03  0.17171228842E+03 0.  0.
        -24    2    3    3    0    0 -0.20538001274E+02 -0.95479361674E+02 -0.89502811304E+02  0.15404420550E+03  0.78617720741E+02 0.  0.
          6    2    1    2  501    0  0.64177133668E+02  0.15211761735E+03  0.15327223796E+03  0.28366945519E+03  0.17238766453E+03 0.  0.
         24    2    5    5    0    0  0.11261647139E+02  0.15925302771E+03  0.12650826694E+03  0.22375816292E+03  0.92601416515E+02 0.  0.
          5    1    5    5  501    0  0.52915486529E+02 -0.71354103592E+01  0.26763971024E+02  0.59911292262E+02  0.47000000000E+01 0. -1.
        -13    1    6    6    0    0  0.16743861801E+02  0.94665639519E+01  0.53863737450E+02  0.57195060566E+02  0.00000000000E+00 0.  1.
         14    1    6    6    0    0 -0.54822146617E+01  0.14978646376E+03  0.72644529488E+02  0.16656310236E+03  0.00000000000E+00 0. -1.
         -5    1    3    3    0  503 -0.43639132394E+02 -0.56638255677E+02  0.50058864897E+02  0.87408499799E+02  0.47000000000E+01 0.  1.
         13    1    4    4    0    0 -0.28656475727E+02 -0.35942001386E+02  0.32864149011E+00  0.45968783647E+02  0.00000000000E+00 0. -1.
        -14    1    4    4    0    0  0.81184744527E+01 -0.59537360287E+02 -0.89831452795E+02  0.10807542185E+03  0.00000000000E+00 0.  1.
</event>
<event>
12    1  0.1066489E+000  0.2002081E+03  0.7818608E-02  0.1150091E+00
         21   -1    0    0  503  502  0.00000000000E+00  0.00000000000E+00  0.32822280009E+03  0.32822280009E+03  0.00000000000E+00 0. -1.
         21   -1    0    0  501  503 -0.00000000000E+00 -0.00000000000E+00 -0.12261729817E+03  0.12261729817E+03  0.00000000000E+00 0. -1.
          6    2    1    2  501    0 -0.73370194576E+02 -0.70909909603E+02  0.73317531146E+02  0.21087471472E+03  0.16935549652E+03 0.  0.
         24    2    3    3    0    0 -0.15478409344E+02 -0.47341628714E+02  0.10106823102E+03  0.14232463080E+03  0.86952298684E+02 0.  0.
         -6    2    1    2    0  502  0.73370194576E+02  0.70909909603E+02  0.13228797077E+03  0.23996538355E+03  0.17225526801E+03 0.  0.
        -24    2    5    5    0    0  0.55982832516E+02  0.37684600965E+01  0.13991253302E+03  0.17003314098E+03  0.78660493929E+02 0.  0.
          5    1    3    3  501    0 -0.57891785231E+02 -0.23568280889E+02 -0.27750699875E+02  0.68550083916E+02  0.47000000000E+01 0. -1.
        -13    1    4    4    0    0  0.15401260773E+02 -0.52160248421E+01 -0.10347329793E+02  0.19273634385E+02  0.00000000000E+00 0.  1.
         14    1    4    4    0    0 -0.30879670118E+02 -0.42125603872E+02  0.11141556081E+03  0.12305099642E+03  0.00000000000E+00 0. -1.
         -5    1    5    5    0  502  0.17387362060E+02  0.67141449507E+02 -0.76245622518E+01  0.69932242570E+02  0.47000000000E+01 0.  1.
         11    1    6    6    0    0  0.70753763460E+01  0.20528080753E+01 -0.99512381586E+01  0.12381523021E+02  0.00000000000E+00 0. -1.
        -12    1    6    6    0    0  0.48907456170E+02  0.17156520212E+01  0.14986377118E+03  0.15765161796E+03  0.00000000000E+00 0.  1.
</event>
<event>
12    1  0.1066489E+000  0.1732757E+03  0.7818608E-02  0.1174747E+00
         21   -1    0    0  501  502  0.00000000000E+00  0.00000000000E+00  0.30320674347E+02  0.30320674347E+02  0.00000000000E+00 0.  1.
         21   -1    0    0  502  503 -0.00000000000E+00 -0.00000000000E+00 -0.11002821203E+04  0.11002821203E+04  0.00000000000E+00 0.  1.
         -6    2    1    2    0  503 -0.16030294036E+02 -0.89343123828E+00 -0.35278853949E+03  0.39304479013E+03  0.17253024343E+03 0.  0.
        -24    2    3    3    0    0  0.44070820418E+00  0.28142657226E+02 -0.34891418860E+03  0.35911119404E+03  0.80171910922E+02 0.  0.
          6    2    1    2  501    0  0.16030294036E+02  0.89343123828E+00 -0.71717290645E+03  0.73755800451E+03  0.17145571945E+03 0.  0.
         24    2    5    5    0    0 -0.51145429385E+02  0.25784360557E+02 -0.32874985131E+03  0.34255585776E+03  0.77378050831E+02 0.  0.
          5    1    5    5  501    0  0.67175723421E+02 -0.24890929319E+02 -0.38842305514E+03  0.39500214676E+03  0.47000000000E+01 0. -1.
        -11    1    6    6    0    0 -0.17723696808E+02  0.27397677808E+02 -0.28793622214E+03  0.28977927842E+03  0.00000000000E+00 0.  1.
         12    1    6    6    0    0 -0.33421732577E+02 -0.16133172508E+01 -0.40813629167E+02  0.52776579340E+02  0.00000000000E+00 0. -1.
         -5    1    3    3    0  503 -0.16471002240E+02 -0.29036088465E+02 -0.38743508934E+01  0.33933596081E+02  0.47000000000E+01 0.  1.
         13    1    4    4    0    0 -0.38311243092E+02  0.27148037949E+01 -0.17081388900E+03  0.17507857145E+03  0.00000000000E+00 0. -1.
        -14    1    4    4    0    0  0.38751951297E+02  0.25427853432E+02 -0.17810029960E+03  0.18403262259E+03  0.00000000000E+00 0.  1.
</event>
<event>
12    1  0.1066489E+000  0.1785722E+03  0.7818608E-02  0.1169253E+00
         21   -1    0    0  501  502  0.00000000000E+00  0.00000000000E+00  0.32571549677E+02  0.32571549677E+02  0.00000000000E+00 0. -1.
         21   -1    0    0  502  503 -0.00000000000E+00 -0.00000000000E+00 -0.98448628686E+03  0.98448628686E+03  0.00000000000E+00 0. -1.
         -6    2    1    2    0  503  0.41360991626E+02  0.30866827571E+02 -0.51797404552E+03  0.54781103880E+03  0.17069367220E+03 0.  0.
        -24    2    3    3    0    0  0.15453177047E+02  0.72143692188E+02 -0.45594588991E+03  0.46878840599E+03  0.80202257194E+02 0.  0.
          6    2    1    2  501    0 -0.41360991626E+02 -0.30866827571E+02 -0.43394069167E+03  0.46924679774E+03  0.17095186641E+03 0.  0.
         24    2    5    5    0    0  0.24764104221E+02  0.31617682316E+02 -0.21325739744E+03  0.23049996817E+03  0.77708294742E+02 0.  0.
          5    1    5    5  501    0 -0.66125095847E+02 -0.62484509887E+02 -0.22068329423E+03  0.23874682957E+03  0.47000000000E+01 0. -1.
        -11    1    6    6    0    0 -0.78537323435E+01  0.39680959412E+02 -0.52538710529E+02  0.66306679570E+02  0.00000000000E+00 0.  1.
         12    1    6    6    0    0  0.32617836564E+02 -0.80632770956E+01 -0.16071868691E+03  0.16419328860E+03  0.00000000000E+00 0. -1.
         -5    1    3    3    0  503  0.25907814578E+02 -0.41276864617E+02 -0.62028155609E+02  0.79022632815E+02  0.47000000000E+01 0.  1.
         13    1    4    4    0    0  0.32316776642E+02  0.47822100536E+02 -0.13960149591E+03  0.15106258641E+03  0.00000000000E+00 0. -1.
        -14    1    4    4    0    0 -0.16863599595E+02  0.24321591652E+02 -0.31634439400E+03  0.31772581958E+03  0.00000000000E+00 0.  1.
</event>
<event>
12    1  0.1066489E+000  0.1758842E+03  0.7818608E-02  0.1172337E+00
         21   -1    0    0  503  502  0.00000000000E+00  0.00000000000E+00  0.39284034491E+03  0.39284034491E+03  0.00000000000E+00 0.  1.
         21   -1    0    0  501  503 -0.00000000000E+00 -0.00000000000E+00 -0.77883938983E+02  0.77883938983E+02  0.00000000000E+00 0.  1.
          6    2    1    2  501    0 -0.10059839869E+02  0.35794054292E+02  0.16096719830E+03  0.23842337360E+03  0.17190942803E+03 0.  0.
         24    2    3    3    0    0  0.48365134070E+02  0.61769767407E+02  0.10892985837E+03  0.15585104168E+03  0.79177918562E+02 0.  0.
         -6    2    1    2    0  502  0.10059839869E+02 -0.35794054292E+02  0.15398920763E+03  0.23230091030E+03  0.16990768717E+03 0.  0.
        -24    2    5    5    0    0  0.65068210141E+02 -0.29371174483E+02  0.13432614681E+03  0.17334414524E+03  0.83115227926E+02 0.  0.
          5    1    3    3  501    0 -0.58424973939E+02 -0.25975713115E+02  0.52037339931E+02  0.82572331920E+02  0.47000000000E+01 0. -1.
        -11    1    4    4    0    0  0.20558393183E+02 -0.14613769012E+02  0.84355672594E+01  0.26596401448E+02  0.00000000000E+00 0.  1.
         12    1    4    4    0    0  0.27806740887E+02  0.76383536418E+02  0.10049429111E+03  0.12925464023E+03  0.00000000000E+00 0. -1.
         -5    1    5    5    0  502 -0.55008370272E+02 -0.64228798090E+01  0.19663060821E+02  0.58956765056E+02  0.47000000000E+01 0.  1.
         13    1    6    6    0    0 -0.75916558290E+01 -0.58266204296E-01 -0.79052866087E+01  0.10960391852E+02  0.00000000000E+00 0. -1.
        -14    1    6    6    0    0  0.72659865970E+02 -0.29312908279E+02  0.14223143342E+03  0.16238375339E+03  0.00000000000E+00 0.  1.
</event>
<event>
12    1  0.1066489E+000  0.1990402E+03  0.7818608E-02  0.1151721E+00
         21   -1    0    0  503  502  0.00000000000E+00  0.00000000000E+00  0.48777969335E+03  0.48777969335E+03  0.00000000000E+00 0. -1.
         21   -1    0    0  501  503 -0.00000000000E+00 -0.00000000000E+00 -0.88175985082E+02  0.88175985082E+02  0.00000000000E+00 0. -1.
          6    2    1    2  501    0 -0.88078455920E+02 -0.47519039989E+02  0.29507386322E+03  0.35592920029E+03  0.17204981055E+03 0.  0.
         24    2    3    3    0    0 -0.11318283812E+03 -0.17541505560E+02  0.28368012022E+03  0.31493176189E+03  0.74763258199E+02 0.  0.
         -6    2    1    2    0  502  0.88078455920E+02  0.47519039989E+02  0.10452984506E+03  0.22002647814E+03  0.16573861655E+03 0.  0.
        -24    2    5    5    0    0 -0.43018206946E+01 -0.87652113100E+01  0.21286561370E+02  0.83448417199E+02  0.80094856561E+02 0.  0.
          5    1    3    3  501    0  0.25104382201E+02 -0.29977534429E+02  0.11393742993E+02  0.40997438402E+02  0.47000000000E+01 0. -1.
        -13    1    4    4    0    0 -0.36391032327E+02  0.29205633578E+02  0.10540202700E+03  0.11526865820E+03  0.00000000000E+00 0.  1.
         14    1    4    4    0    0 -0.76791805794E+02 -0.46747139137E+02  0.17827809322E+03  0.19966310369E+03  0.00000000000E+00 0. -1.
         -5    1    5    5    0  502  0.92380276615E+02  0.56284251299E+02  0.83243283685E+02  0.13657806094E+03  0.47000000000E+01 0.  1.
         11    1    6    6    0    0  0.12894232408E+00  0.31568967703E+02 -0.89860427137E+01  0.32823243466E+02  0.00000000000E+00 0. -1.
        -12    1    6    6    0    0 -0.44307630187E+01 -0.40334179013E+02  0.30272604083E+02  0.50625173734E+02  0.00000000000E+00 0.  1.
</event>
<event>
12    1  0.1066489E+000  0.2300521E+03  0.7818608E-02  0.1127974E+00
         21   -1    0    0  503  502  0.00000000000E+00  0.00000000000E+00  0.25574187126E+03  0.25574187126E+03  0.00000000000E+00 0.  1.
         21   -1    0    0  501  503 -0.00000000000E+00 -0.00000000000E+00 -0.21183902131E+03  0.21183902131E+03  0.00000000000E+00 0.  1.
          6    2    1    2  501    0  0.14769400058E+03 -0.36453160559E+02  0.76588051397E+02  0.23521845822E+03  0.16223329728E+03 0.  0.
         24    2    3    3    0    0  0.47492400703E+02 -0.45303222034E+02  0.83893649378E+02  0.13425239477E+03  0.81716895711E+02 0.  0.
         -6    2    1    2    0  502 -0.14769400058E+03  0.36453160559E+02 -0.32685201447E+02  0.23236243435E+03  0.17257354311E+03 0.  0.
        -24    2    5    5    0    0 -0.50100051287E+02 -0.22292878074E+02  0.30258583370E+02  0.10213307499E+03  0.80675867436E+02 0.  0.
          5    1    3    3  501    0  0.10020159988E+03  0.88500614751E+01 -0.73055979812E+01  0.10096606345E+03  0.47000000000E+01 0. -1.
        -11    1    4    4    0    0  0.19170032532E+02 -0.12049467956E+02 -0.14301119785E+02  0.26780624571E+02  0.00000000000E+00 0.  1.
         12    1    4    4    0    0  0.28322368172E+02 -0.33253754078E+02  0.98194769163E+02  0.10747177020E+03  0.00000000000E+00 0. -1.
         -5    1    5    5    0  502 -0.97593949296E+02  0.58746038633E+02 -0.62943784817E+02  0.13022935937E+03  0.47000000000E+01 0.  1.
         13    1    6    6    0    0  0.15992050094E+01 -0.37072724331E+02 -0.55648061187E+01  0.37522145636E+02  0.00000000000E+00 0. -1.
        -14    1    6    6    0    0 -0.51699256296E+02  0.14779846256E+02  0.35823389489E+02  0.64610929350E+02  0.00000000000E+00 0.  1.
</event>
<event>
12    1  0.1066489E+000  0.3998273E+03  0.7818608E-02  0.1044067E+00
         21   -1    0    0  503  502  0.00000000000E+00  0.00000000000E+00  0.98008898222E+02  0.98008898222E+02  0.00000000000E+00 0. -1.
         21   -1    0    0  501  503 -0.00000000000E+00 -0.00000000000E+00 -0.22094444213E+04  0.22094444213E+04  0.00000000000E+00 0. -1.
          6    2    1    2  501    0 -0.32149928332E+03 -0.15746436285E+03 -0.45748862155E+03  0.60586516295E+03  0.17210445109E+03 0.  0.
         24    2    3    3    0    0 -0.19849959257E+03 -0.24850387443E+02 -0.20024755933E+03  0.29136485375E+03  0.69099659720E+02 0.  0.
         -6    2    1    2    0  502  0.32149928332E+03  0.15746436285E+03 -0.16539469015E+04  0.17015881565E+04  0.17805922262E+03 0.  0.
        -24    2    5    5    0    0  0.57035148213E+02  0.44593316426E+02 -0.29635285806E+03  0.31386886625E+03  0.73804313669E+02 0.  0.
          5    1    3    3  501    0 -0.12299969074E+03 -0.13261397541E+03 -0.25724106221E+03  0.31450030920E+03  0.47000000000E+01 0. -1.
        -11    1    4    4    0    0 -0.81234323235E+02 -0.44642761378E+02 -0.90151058018E+02  0.12930276361E+03  0.00000000000E+00 0.  1.
         12    1    4    4    0    0 -0.11726526934E+03  0.19792373936E+02 -0.11009650132E+03  0.16206209014E+03  0.00000000000E+00 0. -1.
         -5    1    5    5    0  502  0.26446413510E+03  0.11287104643E+03 -0.13575940434E+04  0.13877192903E+04  0.47000000000E+01 0.  1.
         11    1    6    6    0    0  0.31864980707E+02 -0.16518267354E+02 -0.13011251170E+03  0.13497220400E+03  0.00000000000E+00 0. -1.
        -12    1    6    6    0    0  0.25170167506E+02  0.61111583781E+02 -0.16624034636E+03  0.17889666225E+03  0.00000000000E+00 0.  1.
</event>
<event>
12    1  0.1066489E+000  0.3363947E+03  0.7818608E-02  0.1068416E+00
         21   -1    0    0  503  502  0.00000000000E+00  0.00000000000E+00  0.57127093398E+03  0.57127093398E+03  0.00000000000E+00 0.  1.
         21   -1    0    0  501  503 -0.00000000000E+00 -0.00000000000E+00 -0.28689571762E+03  0.28689571762E+03  0.00000000000E+00 0.  1.
          6    2    1    2  501    0 -0.23356584781E+03 -0.16998101247E+03  0.38156168288E+03  0.50867545219E+03  0.17237995231E+03 0.  0.
         24    2    3    3    0    0 -0.15708500830E+03 -0.36404504645E+02  0.16767229104E+03  0.24511755686E+03  0.77250447932E+02 0.  0.
         -6    2    1    2    0  502  0.23356584781E+03  0.16998101247E+03 -0.97186466513E+02  0.34949119940E+03  0.17103315270E+03 0.  0.
        -24    2    5    5    0    0  0.15316324738E+03  0.14307721582E+03 -0.19951747106E+01  0.22192998090E+03  0.72930553718E+02 0.  0.
          5    1    3    3  501    0 -0.76480839516E+02 -0.13357650782E+03  0.21388939183E+03  0.26355789534E+03  0.47000000000E+01 0. -1.
        -13    1    4    4    0    0 -0.14976527453E+03 -0.52037760531E+02  0.16264944266E+03  0.22713962044E+03  0.00000000000E+00 0.  1.
         14    1    4    4    0    0 -0.73197337704E+01  0.15633255885E+02  0.50228483853E+01  0.17977936421E+02  0.00000000000E+00 0. -1.
         -5    1    5    5    0  502  0.80402600432E+02  0.26903796647E+02 -0.95191291803E+02  0.12756121850E+03  0.47000000000E+01 0.  1.
         13    1    6    6    0    0  0.13558938858E+03  0.13627546314E+03 -0.23117965374E+02  0.19362315067E+03  0.00000000000E+00 0. -1.
        -14    1    6    6    0    0  0.17573858798E+02  0.68017526771E+01  0.21122790663E+02  0.28306830235E+02  0.00000000000E+00 0.  1.
</event>
<event>
12    1  0.1066489E+000  0.3292131E+03  0.7818608E-02  0.1071544E+00
         21   -1    0    0  503  502  0.00000000000E+00  0.00000000000E+00  0.26038757047E+03  0.26038757047E+03  0.00000000000E+00 0.  1.
         21   -1    0    0  501  503 -0.00000000000E+00 -0.00000000000E+00 -0.66978509699E+03  0.66978509699E+03  0.00000000000E+00 0. -1.
          6    2    1    2  501    0 -0.27042456183E+03  0.72991526916E+02  0.81730494849E+02  0.33920659946E+03  0.17298565457E+03 0.  0.
         24    2    3    3    0    0 -0.15436769576E+03  0.17622133279E+02  0.11217126349E+03  0.20698067043E+03  0.78221995004E+02 0.  0.
         -6    2    1    2    0  502  0.27042456183E+03 -0.72991526916E+02 -0.49112802137E+03  0.59096606800E+03  0.17197951482E+03 0.  0.
        -24    2    5    5    0    0  0.10778856583E+03 -0.91443605359E+02 -0.25013299681E+03  0.29960437139E+03  0.84946779678E+02 0.  0.
          5    1    3    3  501    0 -0.11605686607E+03  0.55369393637E+02 -0.30440768639E+02  0.13222592903E+03  0.47000000000E+01 0. -1.
        -11    1    4    4    0    0 -0.15034284283E+03  0.22168959310E+02  0.75278523380E+02  0.16959153643E+03  0.00000000000E+00 0.  1.
         12    1    4    4    0    0 -0.40248529267E+01 -0.45468260308E+01  0.36892740108E+02  0.37389133992E+02  0.00000000000E+00 0. -1.
         -5    1    5    5    0  502  0.16263599599E+03  0.18452078443E+02 -0.24099502456E+03  0.29136169662E+03  0.47000000000E+01 0.  1.
         13    1    6    6    0    0  0.44818768010E+02 -0.57666097460E+02 -0.53913716591E+02  0.90778794874E+02  0.00000000000E+00 0. -1.
        -14    1    6    6    0    0  0.62969797825E+02 -0.33777507899E+02 -0.19621928022E+03  0.20882557652E+03  0.00000000000E+00 0.  1.
</event>
<event>
12    1  0.1066489E+000  0.4362000E+03  0.7818608E-02  0.1031953E+00
         21   -1    0    0  501  502  0.00000000000E+00  0.00000000000E+00  0.89848518371E+03  0.89848518371E+03  0.00000000000E+00 0.  1.
         21   -1    0    0  502  503 -0.00000000000E+00 -0.00000000000E+00 -0.23823427210E+03  0.23823427210E+03  0.00000000000E+00 0.  1.
         -6    2    1    2    0  503 -0.29545119039E+03  0.27074551589E+03  0.52017026619E+03  0.67857860099E+03  0.17116445782E+03 0.  0.
        -24    2    3    3    0    0 -0.85506473106E+02  0.96310991004E+02  0.11319043484E+03  0.18851854252E+03  0.78358167428E+02 0.  0.
          6    2    1    2  501    0  0.29545119039E+03 -0.27074551589E+03  0.14008064543E+03  0.45814085481E+03  0.17226698857E+03 0.  0.
         24    2    5    5    0    0  0.43558816424E+02 -0.58503455326E+02  0.28898214122E+02  0.11046272297E+03  0.77761697592E+02 0.  0.
          5    1    5    5  501    0  0.25189237397E+03 -0.21224206056E+03  0.11118243130E+03  0.34767813185E+03  0.47000000000E+01 0. -1.
        -13    1    6    6    0    0  0.22430140318E+02 -0.26384377268E+02 -0.26096581560E+02  0.43362173927E+02  0.00000000000E+00 0.  1.
         14    1    6    6    0    0  0.21128676106E+02 -0.32119078058E+02  0.54994795682E+02  0.67100549040E+02  0.00000000000E+00 0. -1.
         -5    1    3    3    0  503 -0.20994471728E+03  0.17443452488E+03  0.40697983135E+03  0.49006005847E+03  0.47000000000E+01 0.  1.
         11    1    4    4    0    0 -0.60450214260E+02  0.27389737067E+02  0.89562909170E+02  0.11147170403E+03  0.00000000000E+00 0. -1.
        -12    1    4    4    0    0 -0.25056258847E+02  0.68921253937E+02  0.23627525672E+02  0.77046838488E+02  0.00000000000E+00 0.  1.
</event>
<event>
12    1  0.1066489E+000  0.2343997E+03  0.7818608E-02  0.1123633E+00
         21   -1    0    0  501  502  0.00000000000E+00  0.00000000000E+00  0.30376462474E+03  0.30376462474E+03  0.00000000000E+00 0.  1.
         21   -1    0    0  502  503 -0.00000000000E+00 -0.00000000000E+00 -0.21078707304E+03  0.21078707304E+03  0.00000000000E+00 0.  1.
         -6    2    1    2    0  503  0.15037877127E+03  0.49509022765E+02  0.14381413888E+03  0.27500128209E+03  0.17285334947E+03 0.  0.
        -24    2    3    3    0    0  0.37234565152E+02 -0.28999785173E+02  0.82138188544E+02  0.12403354662E+03  0.80063963724E+02 0.  0.
          6    2    1    2  501    0 -0.15037877127E+03 -0.49509022765E+02 -0.50836587178E+02  0.23955041569E+03  0.17243875689E+03 0.  0.
         24    2    5    5    0    0 -0.15907325071E+03 -0.59386328785E+01 -0.67978060088E+02  0.19169758985E+03  0.82385574279E+02 0.  0.
          5    1    5    5  501    0  0.86944794353E+01 -0.43570389886E+02  0.17141472910E+02  0.47852825842E+02  0.47000000000E+01 0. -1.
        -13    1    6    6    0    0 -0.83401470151E+01 -0.21064509564E+02 -0.26026919804E+02  0.34506117861E+02  0.00000000000E+00 0.  1.
         14    1    6    6    0    0 -0.15073310370E+03  0.15125876685E+02 -0.41951140284E+02  0.15719147199E+03  0.00000000000E+00 0. -1.
         -5    1    3    3    0  503  0.11314420612E+03  0.78508807938E+02  0.61675950339E+02  0.15096773547E+03  0.47000000000E+01 0.  1.
         13    1    4    4    0    0  0.43682542050E+02  0.15121903513E+02  0.54951823874E+02  0.71809048127E+02  0.00000000000E+00 0. -1.
        -14    1    4    4    0    0 -0.64479768986E+01 -0.44121688686E+02  0.27186364670E+02  0.52224498490E+02  0.00000000000E+00 0.  1.
</event>
<event>
12    1  0.1066489E+000  0.1864062E+03  0.7818608E-02  0.1162079E+00
         21   -1    0    0  501  502  0.00000000000E+00  0.00000000000E+00  0.25686920733E+02  0.25686920733E+02  0.00000000000E+00 0. -1.
         21   -1    0    0  502  503 -0.00000000000E+00 -0.00000000000E+00 -0.15131778330E+04  0.15131778330E+04  0.00000000000E+00 0. -1.
         -6    2    1    2    0  503  0.68566812300E+02 -0.18760915042E+00 -0.48770735062E+03  0.52211660460E+03  0.17333737625E+03 0.  0.
        -24    2    3    3    0    0  0.10675742750E+03  0.31822487994E+02 -0.35613026233E+03  0.38134093350E+03  0.78627760712E+02 0.  0.
          6    2    1    2  501    0 -0.68566812300E+02  0.18760915042E+00 -0.99978356161E+03  0.10167481491E+04  0.17177946815E+03 0.  0.
         24    2    5    5    0    0 -0.90796147496E+02  0.38493012721E+02 -0.87580851581E+03  0.88501603734E+03  0.80543016831E+02 0.  0.
          5    1    5    5  501    0  0.22229335196E+02 -0.38305403571E+02 -0.12397504580E+03  0.13173211176E+03  0.47000000000E+01 0. -1.
        -13    1    6    6    0    0 -0.75752968983E+02 -0.60648594564E+01 -0.64526323729E+03  0.64972297191E+03  0.00000000000E+00 0.  1.
         14    1    6    6    0    0 -0.15043178513E+02  0.44557872178E+02 -0.23054527852E+03  0.23529306543E+03  0.00000000000E+00 0. -1.
         -5    1    3    3    0  503 -0.38190615196E+02 -0.32010097144E+02 -0.13157708830E+03  0.14077567110E+03  0.47000000000E+01 0.  1.
         13    1    4    4    0    0  0.55888272469E+02 -0.15544008759E+02 -0.23130479845E+03  0.23846807961E+03  0.00000000000E+00 0. -1.
        -14    1    4    4    0    0  0.50869155027E+02  0.47366496753E+02 -0.12482546388E+03  0.14287285389E+03  0.00000000000E+00 0.  1.
</event>
<event>
12    1  0.1066489E+000  0.1810065E+03  0.7818608E-02  0.1167191E+00
         21   -1    0    0  501  502  0.00000000000E+00  0.00000000000E+00  0.28209216164E+03  0.28209216164E+03  0.00000000000E+00 0. -1.
         21   -1    0    0  502  503 -0.00000000000E+00 -0.00000000000E+00 -0.12031841648E+03  0.12031841648E+03  0.00000000000E+00 0. -1.
         -6    2    1    2    0  503 -0.39183004397E+02  0.36535610694E+02  0.12209842590E+03  0.21710678442E+03  0.17133934619E+03 0.  0.
        -24    2    3    3    0    0 -0.79103807062E+02  0.65357353633E+02  0.96330317583E+02  0.16133538711E+03  0.78870660477E+02 0.  0.
          6    2    1    2  501    0  0.39183004397E+02 -0.36535610694E+02  0.39675319264E+02  0.18530379370E+03  0.17289651910E+03 0.  0.
         24    2    5    5    0    0 -0.11415834157E+02  0.32550042673E+02  0.49585828217E+02  0.98970844302E+02  0.78400555575E+02 0.  0.
          5    1    5    5  501    0  0.50598838553E+02 -0.69085653367E+02 -0.99105089529E+01  0.86332949398E+02  0.47000000000E+01 0. -1.
        -13    1    6    6    0    0  0.16526156971E+02  0.44131844741E+02  0.83939395276E+01  0.47866395365E+02  0.00000000000E+00 0.  1.
         14    1    6    6    0    0 -0.27941991127E+02 -0.11581802069E+02  0.41191888689E+02  0.51104448937E+02  0.00000000000E+00 0. -1.
         -5    1    3    3    0  503  0.39920802665E+02 -0.28821742939E+02  0.25768108312E+02  0.55771397306E+02  0.47000000000E+01 0.  1.
         11    1    4    4    0    0 -0.99884152290E+01  0.53252874365E+02  0.64637990636E+02  0.84342794004E+02  0.00000000000E+00 0. -1.
        -12    1    4    4    0    0 -0.69115391833E+02  0.12104479268E+02  0.31692326947E+02  0.76992593111E+02  0.00000000000E+00 0.  1.
</event>
<event>
12    1  0.1066489E+000  0.1943720E+03  0.7818608E-02  0.1154585E+00
         21   -1    0    0  503  502  0.00000000000E+00  0.00000000000E+00  0.75490549541E+03  0.75490549541E+03  0.00000000000E+00 0.  1.
         21   -1    0    0  501  503 -0.00000000000E+00 -0.00000000000E+00 -0.54114034173E+02  0.54114034173E+02  0.00000000000E+00 0.  1.
          6    2    1    2  501    0  0.24420975301E+02  0.87121035207E+02  0.23938362289E+03  0.30835856414E+03  0.17202914394E+03 0.  0.
         24    2    3    3    0    0  0.51303215635E+02  0.26236310249E+01  0.17793832461E+03  0.20037670993E+03  0.76484476481E+02 0.  0.
         -6    2    1    2    0  502 -0.24420975301E+02 -0.87121035207E+02  0.46140783836E+03  0.50066096544E+03  0.17198183106E+03 0.  0.
        -24    2    5    5    0    0  0.36478247655E+02 -0.45555925342E+01  0.27189271457E+03  0.28510623963E+03  0.77514538384E+02 0.  0.
          5    1    3    3  501    0 -0.26882240334E+02  0.84497404182E+02  0.61445298275E+02  0.10798185421E+03  0.47000000000E+01 0. -1.
        -13    1    4    4    0    0  0.36295586903E+02  0.29925815801E+02  0.49799635910E+02  0.68504947389E+02  0.00000000000E+00 0.  1.
         14    1    4    4    0    0  0.15007628733E+02 -0.27302184776E+02  0.12813868870E+03  0.13187176254E+03  0.00000000000E+00 0. -1.
         -5    1    5    5    0  502 -0.60899222956E+02 -0.82565442673E+02  0.18951512378E+03  0.21555472582E+03  0.47000000000E+01 0.  1.
         11    1    6    6    0    0  0.79967452318E+01 -0.23856947680E+02  0.22776674992E+03  0.22915233854E+03  0.00000000000E+00 0. -1.
        -12    1    6    6    0    0  0.28481502423E+02  0.19301355146E+02  0.44125964649E+02  0.55953901088E+02  0.00000000000E+00 0.  1.
</event>
<event>
12    1  0.1066489E+000  0.2453177E+03  0.7818608E-02  0.1116532E+00
         21   -1    0    0  503  502  0.00000000000E+00  0.00000000000E+00  0.75286973788E+03  0.75286973788E+03  0.00000000000E+00 0. -1.
         21   -1    0    0  501  503 -0.00000000000E+00 -0.00000000000E+00 -0.82432378661E+02  0.82432378661E+02  0.00000000000E+00 0. -1.
          6    2    1    2  501    0  0.13186035065E+03 -0.11361786489E+03  0.41532882656E+03  0.48236792595E+03  0.17287165911E+03 0.  0.
         24    2    3    3    0    0  0.49964532130E+02 -0.31087065793E+02  0.79280543299E+02  0.12674340968E+03  0.79470920606E+02 0.  0.
         -6    2    1    2    0  502 -0.13186035065E+03  0.11361786489E+03  0.25510853266E+03  0.35293419059E+03  0.17083912946E+03 0.  0.
        -24    2    5    5    0    0 -0.51490530024E+02  0.11399378726E+03  0.10346176802E+03  0.18124178944E+03  0.80612595681E+02 0.  0.
          5    1    3    3  501    0  0.81895818523E+02 -0.82530799093E+02  0.33604828326E+03  0.35562451627E+03  0.47000000000E+01 0. -1.
        -13    1    4    4    0    0  0.46665798646E+02 -0.47652866886E+02  0.27266018674E+02  0.72055036327E+02  0.00000000000E+00 0.  1.
         14    1    4    4    0    0  0.32987334844E+01  0.16565801094E+02  0.52014524625E+02  0.54688373357E+02  0.00000000000E+00 0. -1.
         -5    1    5    5    0  502 -0.80369820630E+02 -0.37592236978E+00  0.15164676465E+03  0.17169240115E+03  0.47000000000E+01 0.  1.
         13    1    6    6    0    0  0.35435281743E+01  0.87415905228E+02  0.65577334185E+02  0.10933656222E+03  0.00000000000E+00 0. -1.
        -14    1    6    6    0    0 -0.55034058198E+02  0.26577882028E+02  0.37884433835E+02  0.71905227222E+02  0.00000000000E+00 0.  1.
</event>
<event>
12    1  0.1066489E+000  0.1846598E+03  0.7818608E-02  0.1163636E+00
         21   -1    0    0  501  502  0.00000000000E+00  0.00000000000E+00  0.81813596388E+02  0.81813596388E+02  0.00000000000E+00 0.  1.
         21   -1    0    0  502  503 -0.00000000000E+00 -0.00000000000E+00 -0.47844319612E+03  0.47844319612E+03  0.00000000000E+00 0.  1.
         -6    2    1    2    0  503  0.58320327742E+02  0.34449148961E+02 -0.30148142716E+03  0.35353967844E+03  0.17178838382E+03 0.  0.
        -24    2    3    3    0    0  0.34370639271E+02 -0.14535173791E+01 -0.57807756066E+02  0.10602899784E+03  0.81957050727E+02 0.  0.
          6    2    1    2  501    0 -0.58320327742E+02 -0.34449148961E+02 -0.95148172574E+02  0.20671711407E+03  0.17056021228E+03 0.  0.
         24    2    5    5    0    0  0.21469342453E+01  0.40025554563E+02 -0.52051757570E+02  0.10144526492E+03  0.77298783719E+02 0.  0.
          5    1    5    5  501    0 -0.60467261987E+02 -0.74474703524E+02 -0.43096415004E+02  0.10527184915E+03  0.47000000000E+01 0. -1.
        -13    1    6    6    0    0  0.31869655109E+02 -0.54599251061E+01 -0.14760350053E+02  0.35543686255E+02  0.00000000000E+00 0.  1.
         14    1    6    6    0    0 -0.29722720864E+02  0.45485479669E+02 -0.37291407518E+02  0.65901578668E+02  0.00000000000E+00 0. -1.
         -5    1    3    3    0  503  0.23949688471E+02  0.35902666340E+02 -0.24367367109E+03  0.24751068060E+03  0.47000000000E+01 0.  1.
         11    1    4    4    0    0  0.51443476429E+02  0.25011714903E+02 -0.33943128038E+02  0.66514307412E+02  0.00000000000E+00 0. -1.
        -12    1    4    4    0    0 -0.17072837157E+02 -0.26465232282E+02 -0.23864628028E+02  0.39514690424E+02  0.00000000000E+00 0.  1.
</event>
<event>
12    1  0.1066489E+000  0.2513761E+03  0.7818608E-02  0.1112523E+00
         21   -1    0    0  501  502  0.00000000000E+00  0.00000000000E+00  0.31254929192E+03  0.31254929192E+03  0.00000000000E+00 0. -1.
         21   -1    0    0  502  503 -0.00000000000E+00 -0.00000000000E+00 -0.25781109069E+03  0.25781109069E+03  0.00000000000E+00 0. -1.
         -6    2    1    2    0  503  0.14088510843E+03  0.11745500034E+03 -0.10564704178E+03  0.27217690705E+03  0.17109845239E+03 0.  0.
        -24    2    3    3    0    0  0.52469590260E+02  0.85706548491E+02 -0.12230507440E+03  0.17665283627E+03  0.78415706214E+02 0.  0.
          6    2    1    2  501    0 -0.14088510843E+03 -0.11745500034E+03  0.16038524301E+03  0.29818347557E+03  0.17188853378E+03 0.  0.
         24    2    5    5    0    0 -0.13832065571E+03 -0.10143219021E+03  0.18743057448E+03  0.26629543994E+03  0.79761820908E+02 0.  0.
          5    1    5    5  501    0 -0.25644527178E+01 -0.16022810132E+02 -0.27045331469E+02  0.31888035633E+02  0.47000000000E+01 0. -1.
        -11    1    6    6    0    0 -0.54283233759E+02 -0.21596378381E+02  0.18232894833E+02  0.61200583988E+02  0.00000000000E+00 0.  1.
         12    1    6    6    0    0 -0.84037421950E+02 -0.79835811825E+02  0.16919767965E+03  0.20509485595E+03  0.00000000000E+00 0. -1.
         -5    1    3    3    0  503  0.88415518167E+02  0.31748451848E+02  0.16658032617E+02  0.95524070779E+02  0.47000000000E+01 0.  1.
         11    1    4    4    0    0 -0.23569007952E+01  0.30357043114E+02 -0.84971933158E+02  0.90262586228E+02  0.00000000000E+00 0. -1.
        -12    1    4    4    0    0  0.54826491055E+02  0.55349505377E+02 -0.37333141242E+02  0.86390250040E+02  0.00000000000E+00 0.  1.
</event>
<event>
12    1  0.1066489E+000  0.1968596E+03  0.7818608E-02  0.1153301E+00
         21   -1    0    0  503  502  0.00000000000E+00  0.00000000000E+00  0.95185669471E+02  0.95185669471E+02  0.00000000000E+00 0.  1.
         21   -1    0    0  501  503 -0.00000000000E+00 -0.00000000000E+00 -0.46895954243E+03  0.46895954243E+03  0.00000000000E+00 0.  1.
          6    2    1    2  501    0  0.29399135694E+02  0.82897974776E+02 -0.29765855215E+03  0.35686735059E+03  0.17611731557E+03 0.  0.
         24    2    3    3    0    0  0.31826639541E+02  0.14269437032E+02 -0.50848936492E+02  0.10063923864E+03  0.79536722305E+02 0.  0.
         -6    2    1    2    0  502 -0.29399135694E+02 -0.82897974776E+02 -0.76115320803E+02  0.20727786131E+03  0.17156394238E+03 0.  0.
        -24    2    5    5    0    0  0.42999482890E+02 -0.40653906488E+02 -0.72566264564E+02  0.12324925262E+03  0.80142497319E+02 0.  0.
          5    1    3    3  501    0 -0.24275038463E+01  0.68628537744E+02 -0.24680961566E+03  0.25622811194E+03  0.47000000000E+01 0. -1.
        -13    1    4    4    0    0 -0.26374181055E+02 -0.13530766738E+01 -0.18503681732E+02  0.32246154507E+02  0.00000000000E+00 0.  1.
         14    1    4    4    0    0  0.58200820596E+02  0.15622513706E+02 -0.32345254759E+02  0.68393084138E+02  0.00000000000E+00 0. -1.
         -5    1    5    5    0  502 -0.72398618584E+02 -0.42244068288E+02 -0.35490562382E+01  0.84028608691E+02  0.47000000000E+01 0.  1.
         13    1    6    6    0    0 -0.21615923147E+02 -0.24220207170E+02 -0.29595166277E+02  0.43928810999E+02  0.00000000000E+00 0. -1.
        -14    1    6    6    0    0  0.64615406037E+02 -0.16433699318E+02 -0.42971098287E+02  0.79320441619E+02  0.00000000000E+00 0.  1.
</event>
<event>
12    1  0.1066489E+000  0.2446435E+03  0.7818608E-02  0.1117167E+00
         21   -1    0    0  503  502  0.00000000000E+00  0.00000000000E+00  0.25399958459E+03  0.25399958459E+03  0.00000000000E+00 0.  1.
         21   -1    0    0  501  503 -0.00000000000E+00 -0.00000000000E+00 -0.32784644145E+03  0.32784644145E+03  0.00000000000E+00 0.  1.
          6    2    1    2  501    0  0.14845643984E+03  0.87246210748E+02 -0.19316717903E+03  0.30965530840E+03  0.17006362088E+03 0.  0.
         24    2    3    3    0    0  0.33412789976E+02 -0.99999256711E+00 -0.30401748327E+02  0.91625243489E+02  0.79708872931E+02 0.  0.
         -6    2    1    2    0  502 -0.14845643984E+03 -0.87246210748E+02  0.11932032217E+03  0.27219071764E+03  0.17377926132E+03 0.  0.
        -24    2    5    5    0    0 -0.16900826381E+03 -0.93025480518E+02  0.72814515111E+02  0.22080338926E+03  0.78959798839E+02 0.  0.
          5    1    3    3  501    0  0.11504364986E+03  0.88246203315E+02 -0.16276543070E+03  0.21803006491E+03  0.47000000000E+01 0. -1.
        -13    1    4    4    0    0 -0.41458413802E+01  0.34178844510E+02 -0.71913133784E+01  0.35172381223E+02  0.00000000000E+00 0.  1.
         14    1    4    4    0    0  0.37558631357E+02 -0.35178837077E+02 -0.23210434949E+02  0.56452862266E+02  0.00000000000E+00 0. -1.
         -5    1    5    5    0  502  0.20551823976E+02  0.57792697703E+01  0.46505807060E+02  0.51387328381E+02  0.47000000000E+01 0.  1.
         11    1    6    6    0    0 -0.45545629171E+02  0.81978076031E+01  0.24801090714E+01  0.46343924382E+02  0.00000000000E+00 0. -1.
        -12    1    6    6    0    0 -0.12346263464E+03 -0.10122328812E+03  0.70334406039E+02  0.17445946487E+03  0.00000000000E+00 0.  1.
</event>
<event>
12    1  0.1066489E+000  0.1939198E+03  0.7818608E-02  0.1155222E+00
         21   -1    0    0  503  502  0.00000000000E+00  0.00000000000E+00  0.25471288141E+02  0.25471288141E+02  0.00000000000E+00 0. -1.
         21   -1    0    0  501  503 -0.00000000000E+00 -0.00000000000E+00 -0.18926654297E+04  0.18926654297E+04  0.00000000000E+00 0. -1.
          6    2    1    2  501    0 -0.86785807727E+02  0.18937391601E+02 -0.48129856679E+03  0.51889612710E+03  0.17237888241E+03 0.  0.
         24    2    3    3    0    0 -0.11712566578E+03  0.48697848718E+02 -0.36457555282E+03  0.39458786597E+03  0.81818996597E+02 0.  0.
         -6    2    1    2    0  502  0.86785807727E+02 -0.18937391601E+02 -0.13858955748E+04  0.13992405907E+04  0.17110606474E+03 0.  0.
        -24    2    5    5    0    0  0.10791467360E+02 -0.19243122267E+02 -0.32282203911E+03  0.33344386272E+03  0.80523208635E+02 0.  0.
          5    1    3    3  501    0  0.30339858054E+02 -0.29760457117E+02 -0.11672301397E+03  0.12430826113E+03  0.47000000000E+01 0. -1.
        -13    1    4    4    0    0 -0.82468467829E+02 -0.94617542669E+01 -0.21162989625E+03  0.22732748617E+03  0.00000000000E+00 0.  1.
         14    1    4    4    0    0 -0.34657197952E+02  0.58159602985E+02 -0.15294565657E+03  0.16726037980E+03  0.00000000000E+00 0. -1.
         -5    1    5    5    0  502  0.75994340367E+02  0.30573066629E+00 -0.10630735357E+04  0.10657967280E+04  0.47000000000E+01 0.  1.
         13    1    6    6    0    0 -0.18123921685E+02  0.13935129697E+01 -0.26471296471E+03  0.26533633770E+03  0.00000000000E+00 0. -1.
        -14    1    6    6    0    0  0.28915389044E+02 -0.20636635237E+02 -0.58109074392E+02  0.68107525019E+02  0.00000000000E+00 0.  1.
</event>
<event>
12    1  0.1066489E+000  0.2990826E+03  0.7818608E-02  0.1085928E+00
         21   -1    0    0  501  502  0.00000000000E+00  0.00000000000E+00  0.97233887703E+03  0.97233887703E+03  0.00000000000E+00 0. -1.
         21   -1    0    0  502  503 -0.00000000000E+00 -0.00000000000E+00 -0.96460774474E+02  0.96460774474E+02  0.00000000000E+00 0. -1.
         -6    2    1    2    0  503  0.24251035268E+03  0.13117675142E+02  0.31725647864E+03  0.43600695735E+03  0.17454812822E+03 0.  0.
        -24    2    3    3    0    0  0.43956564913E+02 -0.22003801467E+02  0.13104274845E+03  0.16149872785E+03  0.80580954933E+02 0.  0.
          6    2    1    2  501    0 -0.24251035268E+03 -0.13117675142E+02  0.55862162392E+03  0.63279269415E+03  0.17142091618E+03 0.  0.
         24    2    5    5    0    0 -0.74241389565E+02 -0.70624447102E+01  0.11732981633E+03  0.16044572506E+03  0.80092963739E+02 0.  0.
          5    1    5    5  501    0 -0.16826896311E+03 -0.60552304317E+01  0.44129180760E+03  0.47234696909E+03  0.47000000000E+01 0. -1.
        -13    1    6    6    0    0 -0.27519940999E+02 -0.40859741457E+02  0.37232119826E+02  0.61750274261E+02  0.00000000000E+00 0.  1.
         14    1    6    6    0    0 -0.46721448566E+02  0.33797296747E+02  0.80097696502E+02  0.98695450798E+02  0.00000000000E+00 0. -1.
         -5    1    3    3    0  503  0.19855378776E+03  0.35121476609E+02  0.18621373018E+03  0.27450822950E+03  0.47000000000E+01 0.  1.
         13    1    4    4    0    0  0.66678526367E+01 -0.22330995847E+02  0.12051960119E+03  0.12275222159E+03  0.00000000000E+00 0. -1.
        -14    1    4    4    0    0  0.37288712276E+02  0.32719438013E+00  0.10523147266E+02  0.38746506265E+02  0.00000000000E+00 0.  1.
</event>
<event>
12    1  0.1066489E+000  0.1997123E+03  0.7818608E-02  0.1150218E+00
         21   -1    0    0  503  502  0.00000000000E+00  0.00000000000E+00  0.49312960755E+03  0.49312960755E+03  0.00000000000E+00 0.  1.
         21   -1    0    0  501  503 -0.00000000000E+00 -0.00000000000E+00 -0.81738835497E+02  0.81738835497E+02  0.00000000000E+00 0.  1.
          6    2    1    2  501    0  0.54037664115E+02  0.82614706682E+02  0.16876391420E+03  0.26061889920E+03  0.17232438302E+03 0.  0.
         24    2    3    3    0    0  0.86712764433E+02  0.73850478648E+02  0.69428167574E+02  0.15557531572E+03  0.80065046659E+02 0.  0.
         -6    2    1    2    0  502 -0.54037664115E+02 -0.82614706682E+02  0.24262685786E+03  0.31424954385E+03  0.17360796281E+03 0.  0.
        -24    2    5    5    0    0 -0.30850467672E+02 -0.99359320635E+02  0.25153861390E+03  0.28392566594E+03  0.80734648973E+02 0.  0.
          5    1    3    3  501    0 -0.32675100317E+02  0.87642280340E+01  0.99335746621E+02  0.10504358348E+03  0.47000000000E+01 0. -1.
        -13    1    4    4    0    0 -0.13929358978E+02  0.82882323965E+01  0.19862906058E+02  0.25637021567E+02  0.00000000000E+00 0.  1.
         14    1    4    4    0    0  0.10064212341E+03  0.65562246252E+02  0.49565261516E+02  0.12993829415E+03  0.00000000000E+00 0. -1.
         -5    1    5    5    0  502 -0.23187196444E+02  0.16744613953E+02 -0.89117560442E+01  0.30323877904E+02  0.47000000000E+01 0.  1.
         11    1    6    6    0    0 -0.15251936349E+02 -0.36161094722E+02  0.21282723102E+02  0.44645275635E+02  0.00000000000E+00 0. -1.
        -12    1    6    6    0    0 -0.15598531323E+02 -0.63198225913E+02  0.23025589080E+03  0.23928039031E+03  0.00000000000E+00 0.  1.
</event>
<event>
12    1  0.1066489E+000  0.2063770E+03  0.7818608E-02  0.1144474E+00
         21   -1    0    0  503  502  0.00000000000E+00  0.00000000000E+00  0.10860531095E+03  0.10860531095E+03  0.00000000000E+00 0.  1.
         21   -1    0    0  501  503 -0.00000000000E+00 -0.00000000000E+00 -0.43954534346E+03  0.43954534346E+03  0.00000000000E+00 0.  1.
          6    2    1    2  501    0 -0.77902039355E+02 -0.82463451014E+02 -0.75441834252E+02  0.21973375234E+03  0.17240215507E+03 0.  0.
         24    2    3    3    0    0 -0.24434452337E+02 -0.11583067022E+03 -0.42732428571E+02  0.14857091514E+03  0.78952325798E+02 0.  0.
         -6    2    1    2    0  502  0.77902039355E+02  0.82463451014E+02 -0.25549819826E+03  0.32841690206E+03  0.17236410230E+03 0.  0.
        -24    2    5    5    0    0 -0.97413930103E+01  0.47360748848E+02 -0.60364423792E+02  0.11159243187E+03  0.80442973110E+02 0.  0.
          5    1    3    3  501    0 -0.53467587018E+02  0.33367219204E+02 -0.32709405681E+02  0.71162837205E+02  0.47000000000E+01 0. -1.
        -11    1    4    4    0    0  0.13710283426E+01  0.77853862452E+01  0.91109112211E+01  0.12062365480E+02  0.00000000000E+00 0.  1.
         12    1    4    4    0    0 -0.25805480679E+02 -0.12361605646E+03 -0.51843339792E+02  0.13650854966E+03  0.00000000000E+00 0. -1.
         -5    1    5    5    0  502  0.87643432365E+02  0.35102702166E+02 -0.19513377447E+03  0.21682447019E+03  0.47000000000E+01 0.  1.
         11    1    6    6    0    0 -0.40180455047E+02  0.26931128577E+02 -0.10157176838E+02  0.49425933431E+02  0.00000000000E+00 0. -1.
        -12    1    6    6    0    0  0.30439062037E+02  0.20429620271E+02 -0.50207246953E+02  0.62166498444E+02  0.00000000000E+00 0.  1.
</event>
<event>
12    1  0.1066489E+000  0.2119604E+03  0.7818608E-02  0.1140046E+00
         21   -1    0    0  501  502  0.00000000000E+00  0.00000000000E+00  0.23490028958E+03  0.23490028958E+03  0.00000000000E+00 0. -1.
         21   -1    0    0  502  503 -0.00000000000E+00 -0.00000000000E+00 -0.34088091278E+03  0.34088091278E+03  0.00000000000E+00 0. -1.
         -6    2    1    2    0  503  0.15978565776E+02  0.12319223582E+03  0.13781710992E+03  0.25272620977E+03  0.17159644457E+03 0.  0.
        -24    2    3    3    0    0 -0.24317386756E+02  0.13780478865E+02  0.97547236831E+02  0.12928209680E+03  0.80107179720E+02 0.  0.
          6    2    1    2  501    0 -0.15978565776E+02 -0.12319223582E+03 -0.24379773312E+03  0.32305499259E+03  0.17174269135E+03 0.  0.
         24    2    5    5    0    0 -0.73229410924E+02 -0.77850573882E+02 -0.12800962890E+03  0.18607871488E+03  0.82556432583E+02 0.  0.
          5    1    5    5  501    0  0.57250845148E+02 -0.45341661935E+02 -0.11578810421E+03  0.13697627771E+03  0.47000000000E+01 0. -1.
        -11    1    6    6    0    0 -0.50046744449E+02 -0.42154752349E+02 -0.12772913609E+03  0.14351457062E+03  0.00000000000E+00 0.  1.
         12    1    6    6    0    0 -0.23182666475E+02 -0.35695821533E+02 -0.28049281373E+00  0.42564144253E+02  0.00000000000E+00 0. -1.
         -5    1    3    3    0  503  0.40295952532E+02  0.10941175695E+03  0.40269873087E+02  0.12344411298E+03  0.47000000000E+01 0.  1.
         13    1    4    4    0    0 -0.35061668880E+02  0.24842610188E+02  0.15317886819E+02  0.45619223603E+02  0.00000000000E+00 0. -1.
        -14    1    4    4    0    0  0.10744282124E+02 -0.11062131322E+02  0.82229350012E+02  0.83662873195E+02  0.00000000000E+00 0.  1.
</event>
<event>
12    1  0.1066489E+000  0.1776294E+03  0.7818608E-02  0.1170848E+00
         21   -1    0    0  503  502  0.00000000000E+00  0.00000000000E+00  0.18898417493E+03  0.18898417493E+03  0.00000000000E+00 0.  1.
         21   -1    0    0  501  503 -0.00000000000E+00 -0.00000000000E+00 -0.16472587696E+03  0.16472587696E+03  0.00000000000E+00 0.  1.
          6    2    1    2  501    0 -0.30712894397E+02 -0.35675437496E+02  0.22756091293E+01  0.17764399063E+03  0.17127810802E+03 0.  0.
         24    2    3    3    0    0 -0.79393257303E+02 -0.41956588289E+02 -0.24112632119E+02  0.12171850570E+03  0.78551454453E+02 0.  0.
         -6    2    1    2    0  502  0.30712894397E+02  0.35675437496E+02  0.21982688842E+02  0.17606606126E+03  0.16822604018E+03 0.  0.
        -24    2    5    5    0    0  0.73631151799E+02  0.58522432223E+02  0.26331423169E+02  0.12702563430E+03  0.81214200320E+02 0.  0.
          5    1    3    3  501    0  0.48680362906E+02  0.62811507930E+01  0.26388241248E+02  0.55925484925E+02  0.47000000000E+01 0. -1.
        -13    1    4    4    0    0  0.50709138363E+01 -0.31836445961E+02 -0.16757066683E+02  0.36332805319E+02  0.00000000000E+00 0.  1.
         14    1    4    4    0    0 -0.84464171139E+02 -0.10120142328E+02 -0.73555654356E+01  0.85385700383E+02  0.00000000000E+00 0. -1.
         -5    1    5    5    0  502 -0.42918257403E+02 -0.22846994727E+02 -0.43487343277E+01  0.49040426964E+02  0.47000000000E+01 0.  1.
         11    1    6    6    0    0  0.79112858739E+02  0.15789882153E+02  0.22614215274E+02  0.83782859397E+02  0.00000000000E+00 0. -1.
        -12    1    6    6    0    0 -0.54817069398E+01  0.42732550069E+02  0.37172078948E+01  0.43242774899E+02  0.00000000000E+00 0.  1.
</event>
<event>
12    1  0.1066489E+000  0.2110600E+03  0.7818608E-02  0.1140877E+00
         21   -1    0    0  503  502  0.00000000000E+00  0.00000000000E+00  0.69053724704E+02  0.69053724704E+02  0.00000000000E+00 0.  1.
         21   -1    0    0  501  503 -0.00000000000E+00 -0.00000000000E+00 -0.17841430662E+04  0.17841430662E+04  0.00000000000E+00 0.  1.
          6    2    1    2  501    0  0.11408968186E+03  0.40594611470E+02 -0.15992063361E+04  0.16130738466E+04  0.17286396777E+03 0.  0.
         24    2    3    3    0    0  0.33185591182E+02  0.80554513567E+02 -0.10350101047E+04  0.10416880372E+04  0.79232171499E+02 0.  0.
         -6    2    1    2    0  502 -0.11408968186E+03 -0.40594611470E+02 -0.11588300548E+03  0.24012294433E+03  0.17194702512E+03 0.  0.
        -24    2    5    5    0    0 -0.18178221088E+02  0.51328946393E+01 -0.10537716163E+03  0.13324696070E+03  0.79332288596E+02 0.  0.
          5    1    3    3  501    0  0.80904090680E+02 -0.39959902097E+02 -0.56419623136E+03  0.57138580937E+03  0.47000000000E+01 0. -1.
        -13    1    4    4    0    0  0.23481423656E+02 -0.41120896373E+01 -0.99996137147E+02  0.10279841430E+03  0.00000000000E+00 0.  1.
         14    1    4    4    0    0  0.97041675263E+01  0.84666603204E+02 -0.93501396754E+03  0.93888962294E+03  0.00000000000E+00 0. -1.
         -5    1    5    5    0  502 -0.95911460774E+02 -0.45727506110E+02 -0.10505843855E+02  0.10687598364E+03  0.47000000000E+01 0.  1.
         13    1    6    6    0    0 -0.16866123329E+02  0.41071351926E+02 -0.46790351508E+02  0.64503170925E+02  0.00000000000E+00 0. -1.
        -14    1    6    6    0    0 -0.13120977593E+01 -0.35938457287E+02 -0.58586810119E+02  0.68743789774E+02  0.00000000000E+00 0.  1.
</event>
<event>
12    1  0.1066489E+000  0.5937998E+03  0.7818608E-02  0.9919663E-01
         21   -1    0    0  501  502  0.00000000000E+00  0.00000000000E+00  0.23592348168E+03  0.23592348168E+03  0.00000000000E+00 0.  1.
         21   -1    0    0  502  503 -0.00000000000E+00 -0.00000000000E+00 -0.14882936356E+04  0.14882936356E+04  0.00000000000E+00 0.  1.
         -6    2    1    2    0  503  0.50293301149E+03  0.25908457805E+03 -0.62842539612E+03  0.86459047246E+03  0.18036566731E+03 0.  0.
        -24    2    3    3    0    0  0.46523194690E+03  0.26878571309E+03 -0.53070866573E+03  0.75929977158E+03  0.78726941163E+02 0.  0.
          6    2    1    2  501    0 -0.50293301149E+03 -0.25908457805E+03 -0.62394475779E+03  0.85962664481E+03  0.17200138099E+03 0.  0.
         24    2    5    5    0    0 -0.26295764878E+03 -0.87308256316E+02 -0.37827478624E+03  0.47560697821E+03  0.79628682901E+02 0.  0.
          5    1    5    5  501    0 -0.23997536271E+03 -0.17177632173E+03 -0.24566997155E+03  0.38401966660E+03  0.47000000000E+01 0. -1.
        -11    1    6    6    0    0 -0.23914014091E+03 -0.10012942819E+03 -0.35693441001E+03  0.44115312810E+03  0.00000000000E+00 0.  1.
         12    1    6    6    0    0 -0.23817507877E+02  0.12821171873E+02 -0.21340376226E+02  0.34453850106E+02  0.00000000000E+00 0. -1.
         -5    1    3    3    0  503  0.37701064593E+02 -0.97011350430E+01 -0.97716730399E+02  0.10529070088E+03  0.47000000000E+01 0.  1.
         13    1    4    4    0    0  0.38652538434E+03  0.18658872363E+03 -0.42240810524E+03  0.60220082356E+03  0.00000000000E+00 0. -1.
        -14    1    4    4    0    0  0.78706562560E+02  0.82196989466E+02 -0.10830056049E+03  0.15709894802E+03  0.00000000000E+00 0.  1.
</event>
<event>
12    1  0.1066489E+000  0.2179077E+03  0.7818608E-02  0.1136910E+00
         21   -1    0    0  501  502  0.00000000000E+00  0.00000000000E+00  0.24739205790E+03  0.24739205790E+03  0.00000000000E+00 0. -1.
         21   -1    0    0  502  503 -0.00000000000E+00 -0.00000000000E+00 -0.18652672561E+03  0.18652672561E+03  0.00000000000E+00 0. -1.
         -6    2    1    2    0  503  0.11249345552E+03 -0.72369352206E+02  0.13529860397E+02  0.21832734908E+03  0.17202230541E+03 0.  0.
        -24    2    3    3    0    0  0.13655785342E+02 -0.66845958408E+01 -0.36779327845E+02  0.89344882492E+02  0.79991404387E+02 0.  0.
          6    2    1    2  501    0 -0.11249345552E+03  0.72369352206E+02  0.47335471893E+02  0.21559143443E+03  0.16231734050E+03 0.  0.
         24    2    5    5    0    0 -0.13326536351E+03  0.45503987238E+02  0.84362322589E+01  0.16374106471E+03  0.83124582946E+02 0.  0.
          5    1    5    5  501    0  0.20771907993E+02  0.26865364968E+02  0.38899239634E+02  0.51850369726E+02  0.47000000000E+01 0. -1.
        -11    1    6    6    0    0 -0.99007504639E+02  0.65973806484E+01 -0.24649859621E+02  0.10224298013E+03  0.00000000000E+00 0.  1.
         12    1    6    6    0    0 -0.34257858874E+02  0.38906606589E+02  0.33086091880E+02  0.61498084578E+02  0.00000000000E+00 0. -1.
         -5    1    3    3    0  503  0.98837670178E+02 -0.65684756365E+02  0.50309188242E+02  0.12898246659E+03  0.47000000000E+01 0.  1.
         13    1    4    4    0    0 -0.20315848655E+02  0.25891855488E+02 -0.23502514343E+02  0.40441192708E+02  0.00000000000E+00 0. -1.
        -14    1    4    4    0    0  0.33971633998E+02 -0.32576451329E+02 -0.13276813502E+02  0.48903689784E+02  0.00000000000E+00 0.  1.
</event>
<event>
12    1  0.1066489E+000  0.1881783E+03  0.7818608E-02  0.1160290E+00
         21   -1    0    0  503  502  0.00000000000E+00  0.00000000000E+00  0.58483478648E+03  0.58483478648E+03  0.00000000000E+00 0.  1.
         21   -1    0    0  501  503 -0.00000000000E+00 -0.00000000000E+00 -0.23714078451E+03  0.23714078451E+03  0.00000000000E+00 0.  1.
          6    2    1    2  501    0  0.69609754473E+02 -0.26477194532E+02  0.52866287232E+03  0.56089932471E+03  0.17197982484E+03 0.  0.
         24    2    3    3    0    0  0.75371522408E+01 -0.70104361896E+02  0.37090750086E+03  0.38578454834E+03  0.79283751964E+02 0.  0.
         -6    2    1    2    0  502 -0.69609754473E+02  0.26477194532E+02 -0.18096887034E+03  0.26107624628E+03  0.17281352548E+03 0.  0.
        -24    2    5    5    0    0  0.11120121481E+02  0.34103193548E+02 -0.15114402577E+03  0.17454833121E+03  0.79598482957E+02 0.  0.
          5    1    3    3  501    0  0.62072602232E+02  0.43627167364E+02  0.15775537146E+03  0.17511477637E+03  0.47000000000E+01 0. -1.
        -13    1    4    4    0    0 -0.27526932470E+02 -0.52950081770E+02  0.28838825556E+03  0.29449826674E+03  0.00000000000E+00 0.  1.
         14    1    4    4    0    0  0.35064084711E+02 -0.17154280126E+02  0.82519245301E+02  0.91286281599E+02  0.00000000000E+00 0. -1.
         -5    1    5    5    0  502 -0.80729875955E+02 -0.76259990167E+01 -0.29824844570E+02  0.86527915070E+02  0.47000000000E+01 0.  1.
         13    1    6    6    0    0 -0.31159421719E+02  0.26102039950E+02 -0.98490065334E+02  0.10654820046E+03  0.00000000000E+00 0. -1.
        -14    1    6    6    0    0  0.42279543201E+02  0.80011535980E+01 -0.52653960438E+02  0.68000130749E+02  0.00000000000E+00 0.  1.
</event>
<event>
12    1  0.1066489E+000  0.3630510E+03  0.7818608E-02  0.1057414E+00
         21   -1    0    0  503  502  0.00000000000E+00  0.00000000000E+00  0.25769714364E+03  0.25769714364E+03  0.00000000000E+00 0. -1.
         21   -1    0    0  501  503 -0.00000000000E+00 -0.00000000000E+00 -0.54216654121E+03  0.54216654121E+03  0.00000000000E+00 0. -1.
          6    2    1    2  501    0 -0.50312271573E+02 -0.31569724039E+03 -0.46448204012E+02  0.36601015520E+03  0.17207534918E+03 0.  0.
         24    2    3    3    0    0 -0.57873465888E+02 -0.27160455830E+03  0.14705687125E+02  0.29009424992E+03  0.82583548369E+02 0.  0.
         -6    2    1    2    0  502  0.50312271573E+02  0.31569724039E+03 -0.23802119355E+03  0.43385352965E+03  0.17140222970E+03 0.  0.
        -24    2    5    5    0    0  0.91497307675E+02  0.26081144683E+03 -0.22143657143E+03  0.36310187084E+03  0.80090232410E+02 0.  0.
          5    1    3    3  501    0  0.75611943147E+01 -0.44092682093E+02 -0.61153891138E+02  0.75915905283E+02  0.47000000000E+01 0. -1.
        -11    1    4    4    0    0 -0.63065196101E+02 -0.11366392122E+03  0.22298298704E+02  0.13188601166E+03  0.00000000000E+00 0.  1.
         12    1    4    4    0    0  0.51917302129E+01 -0.15794063708E+03 -0.75926115790E+01  0.15820823826E+03  0.00000000000E+00 0. -1.
         -5    1    5    5    0  502 -0.41185036102E+02  0.54885793560E+02 -0.16584622120E+02  0.70751658810E+02  0.47000000000E+01 0.  1.
         13    1    6    6    0    0  0.42853704907E+02  0.60359450332E+02 -0.24655786948E+02  0.78023144635E+02  0.00000000000E+00 0. -1.
        -14    1    6    6    0    0  0.48643602769E+02  0.20045199650E+03 -0.19678078449E+03  0.28507872620E+03  0.00000000000E+00 0.  1.
</event>
<event>
12    1  0.1066489E+000  0.1745322E+03  0.7818608E-02  0.1173769E+00
         21   -1    0    0  501  502  0.00000000000E+00  0.00000000000E+00  0.24972902231E+03  0.24972902231E+03  0.00000000000E+00 0. -1.
         21   -1    0    0  502  503 -0.00000000000E+00 -0.00000000000E+00 -0.12046728543E+03  0.12046728543E+03  0.00000000000E+00 0. -1.
         -6    2    1    2    0  503 -0.14873072738E+02  0.71499549418E+01  0.61390897923E+02  0.18501443277E+03  0.17375030313E+03 0.  0.
        -24    2    3    3    0    0 -0.18745203380E+02  0.61364454800E+02  0.89127895619E+02  0.12381282796E+03  0.57173906875E+02 0.  0.
          6    2    1    2  501    0  0.14873072738E+02 -0.71499549418E+01  0.67870838965E+02  0.18518187496E+03  0.17150377805E+03 0.  0.
         24    2    5    5    0    0 -0.37033742955E+02 -0.10741678468E+02 -0.13653465707E+02  0.88354604809E+02  0.78314987657E+02 0.  0.
          5    1    5    5  501    0  0.51906815693E+02  0.35917235258E+01  0.81524304672E+02  0.96827270154E+02  0.47000000000E+01 0. -1.
        -13    1    6    6    0    0 -0.11758684407E+01  0.26017591146E+02  0.14482297549E+02  0.29799910368E+02  0.00000000000E+00 0.  1.
         14    1    6    6    0    0 -0.35857874515E+02 -0.36759269613E+02 -0.28135763256E+02  0.58554694442E+02  0.00000000000E+00 0. -1.
         -5    1    3    3    0  503  0.38721306424E+01 -0.54214499859E+02 -0.27736997697E+02  0.61201604814E+02  0.47000000000E+01 0.  1.
         11    1    4    4    0    0  0.61769288367E+01  0.30108946815E+02  0.56416743546E+01  0.31249505879E+02  0.00000000000E+00 0. -1.
        -12    1    4    4    0    0 -0.24922132217E+02  0.31255507985E+02  0.83486221265E+02  0.92563322081E+02  0.00000000000E+00 0.  1.
</event>
<event>
12    1  0.1066489E+000  0.3065629E+03  0.7818608E-02  0.1082158E+00
         21   -1    0    0  503  502  0.00000000000E+00  0.00000000000E+00  0.12359100725E+03  0.12359100725E+03  0.00000000000E+00 0. -1.
         21   -1    0    0  501  503 -0.00000000000E+00 -0.00000000000E+00 -0.75823720504E+03  0.75823720504E+03  0.00000000000E+00 0. -1.
          6    2    1    2  501    0  0.25104957258E+03  0.23216844740E+02 -0.30131125936E+03  0.42895625081E+03  0.17219198679E+03 0.  0.
         24    2    3    3    0    0  0.15956519406E+03  0.31947868821E+02 -0.28163804654E+03  0.33485658239E+03  0.79543849729E+02 0.  0.
         -6    2    1    2    0  502 -0.25104957258E+03 -0.23216844740E+02 -0.33333493843E+03  0.45287196149E+03  0.17440161280E+03 0.  0.
        -24    2    5    5    0    0 -0.13261189198E+03 -0.17196212767E+02 -0.29201046466E+03  0.32719963228E+03  0.62512912788E+02 0.  0.
          5    1    3    3  501    0  0.91484378518E+02 -0.87310240812E+01 -0.19673212823E+02  0.94099668422E+02  0.47000000000E+01 0. -1.
        -13    1    4    4    0    0  0.43141822391E+02 -0.20318643838E+02 -0.42872564908E+02  0.64125821230E+02  0.00000000000E+00 0.  1.
         14    1    4    4    0    0  0.11642337167E+03  0.52266512659E+02 -0.23876548163E+03  0.27073076116E+03  0.00000000000E+00 0. -1.
         -5    1    5    5    0  502 -0.11843768060E+03 -0.60206319731E+01 -0.41324473773E+02  0.12567232921E+03  0.47000000000E+01 0.  1.
         13    1    6    6    0    0 -0.82146389421E+01  0.13777632717E+02 -0.14988915595E+02  0.21953839002E+02  0.00000000000E+00 0. -1.
        -14    1    6    6    0    0 -0.12439725304E+03 -0.30973845483E+02 -0.27702154906E+03  0.30524579327E+03  0.00000000000E+00 0.  1.
</event>
<event>
12    1  0.1066489E+000  0.2646861E+03  0.7818608E-02  0.1104380E+00
         21   -1    0    0  501  502  0.00000000000E+00  0.00000000000E+00  0.55610639767E+03  0.55610639767E+03  0.00000000000E+00 0.  1.
         21   -1    0    0  502  503 -0.00000000000E+00 -0.00000000000E+00 -0.13362742348E+03  0.13362742348E+03  0.00000000000E+00 0.  1.
         -6    2    1    2    0  503 -0.63552965271E+02  0.19056565283E+03  0.12833732031E+03  0.29403438874E+03  0.17213804502E+03 0.  0.
        -24    2    3    3    0    0 -0.78415959471E+02  0.10163005775E+03  0.18813245200E+02  0.15209052062E+03  0.79371638058E+02 0.  0.
          6    2    1    2  501    0  0.63552965271E+02 -0.19056565283E+03  0.29414165388E+03  0.39569943242E+03  0.17234987913E+03 0.  0.
         24    2    5    5    0    0  0.10911768961E+03 -0.12960419510E+03  0.19267834223E+03  0.26877686924E+03  0.80075865899E+02 0.  0.
          5    1    5    5  501    0 -0.45564724343E+02 -0.60961457728E+02  0.10146331165E+03  0.12692256318E+03  0.47000000000E+01 0. -1.
        -13    1    6    6    0    0  0.96029333832E+02 -0.94713067865E+02  0.18776667879E+03  0.23118936793E+03  0.00000000000E+00 0.  1.
         14    1    6    6    0    0  0.13088355782E+02 -0.34891127240E+02  0.49116634426E+01  0.37587501313E+02  0.00000000000E+00 0. -1.
         -5    1    3    3    0  503  0.14862994201E+02  0.88935595081E+02  0.10952407511E+03  0.14194386812E+03  0.47000000000E+01 0.  1.
         13    1    4    4    0    0 -0.43749254230E+02  0.99079384522E+02  0.34894049020E+02  0.11379066895E+03  0.00000000000E+00 0. -1.
        -14    1    4    4    0    0 -0.34666705241E+02  0.25506732298E+01 -0.16080803820E+02  0.38299851667E+02  0.00000000000E+00 0.  1.
</event>
<event>
12    1  0.1066489E+000  0.2573007E+03  0.7818608E-02  0.1108833E+00
         21   -1    0    0  501  502  0.00000000000E+00  0.00000000000E+00  0.21679940963E+03  0.21679940963E+03  0.00000000000E+00 0. -1.
         21   -1    0    0  502  503 -0.00000000000E+00 -0.00000000000E+00 -0.37710160456E+03  0.37710160456E+03  0.00000000000E+00 0.  1.
         -6    2    1    2    0  503  0.12326731822E+03 -0.14666105207E+03 -0.21001539053E+03  0.33184178185E+03  0.17119640179E+03 0.  0.
        -24    2    3    3    0    0  0.62713538959E+02 -0.91810764701E+02 -0.36205802306E+02  0.13972937422E+03  0.76493355364E+02 0.  0.
          6    2    1    2  501    0 -0.12326731822E+03  0.14666105207E+03  0.49713195601E+02  0.26205923235E+03  0.17175372923E+03 0.  0.
         24    2    5    5    0    0 -0.99052554943E+02  0.16867787708E+03  0.12310383075E+02  0.21213773669E+03  0.81161807145E+02 0.  0.
          5    1    5    5  501    0 -0.24214763275E+02 -0.22016825006E+02  0.37402812526E+02  0.49921495658E+02  0.47000000000E+01 0. -1.
        -13    1    6    6    0    0 -0.28942069264E+02  0.12518869859E+03  0.16400646099E+02  0.12953314178E+03  0.00000000000E+00 0.  1.
         14    1    6    6    0    0 -0.70110485679E+02  0.43489178492E+02 -0.40902630244E+01  0.82604594907E+02  0.00000000000E+00 0. -1.
         -5    1    3    3    0  503  0.60553779259E+02 -0.54850287372E+02 -0.17380958822E+03  0.19211240763E+03  0.47000000000E+01 0.  1.
         11    1    4    4    0    0  0.14445984421E+02 -0.76696239882E+02 -0.42323221418E+02  0.88782063217E+02  0.00000000000E+00 0. -1.
        -12    1    4    4    0    0  0.48267554538E+02 -0.15114524820E+02  0.61174191126E+01  0.50947311000E+02  0.00000000000E+00 0.  1.
</event>
<event>
12    1  0.1066489E+000  0.2475427E+03  0.7818608E-02  0.1115736E+00
         21   -1    0    0  503  502  0.00000000000E+00  0.00000000000E+00  0.12041035358E+03  0.12041035358E+03  0.00000000000E+00 0. -1.
         21   -1    0    0  501  503 -0.00000000000E+00 -0.00000000000E+00 -0.51000551901E+03  0.51000551901E+03  0.00000000000E+00 0. -1.
          6    2    1    2  501    0 -0.24696540515E+02  0.17496875759E+03 -0.24119579199E+03  0.34179887701E+03  0.16561122245E+03 0.  0.
         24    2    3    3    0    0  0.36895043971E+02  0.13442043447E+03 -0.21821813886E+03  0.26441830883E+03  0.53551736158E+02 0.  0.
         -6    2    1    2    0  502  0.24696540515E+02 -0.17496875759E+03 -0.14839937344E+03  0.28861699559E+03  0.17335919606E+03 0.  0.
        -24    2    5    5    0    0  0.64579189628E+02 -0.79179697593E+02 -0.35523247900E+02  0.13522442917E+03  0.81140919758E+02 0.  0.
          5    1    3    3  501    0 -0.61591584486E+02  0.40548323125E+02 -0.22977653130E+02  0.77380568175E+02  0.47000000000E+01 0. -1.
        -13    1    4    4    0    0  0.23884064387E+02  0.13410281403E+03 -0.20175911043E+03  0.24343531359E+03  0.00000000000E+00 0.  1.
         14    1    4    4    0    0  0.13010979584E+02  0.31762044471E+00 -0.16459028426E+02  0.20982995239E+02  0.00000000000E+00 0. -1.
         -5    1    5    5    0  502 -0.39882649112E+02 -0.95789060002E+02 -0.11287612554E+03  0.15339256642E+03  0.47000000000E+01 0.  1.
         13    1    6    6    0    0  0.44404981213E+01 -0.12440277983E+02 -0.43089517738E+02  0.45068670701E+02  0.00000000000E+00 0. -1.
        -14    1    6    6    0    0  0.60138691506E+02 -0.66739419610E+02  0.75662698376E+01  0.90155758470E+02  0.00000000000E+00 0.  1.
</event>
<event>
12    1  0.1066489E+000  0.2063165E+03  0.7818608E-02  0.1144807E+00
         21   -1    0    0  501  502  0.00000000000E+00  0.00000000000E+00  0.43798952063E+02  0.43798952063E+02  0.00000000000E+00 0.  1.
         21   -1    0    0  502  503 -0.00000000000E+00 -0.00000000000E+00 -0.10528978556E+04  0.10528978556E+04  0.00000000000E+00 0.  1.
         -6    2    1    2    0  503  0.10697403357E+03  0.38730359866E+02 -0.34785078402E+03  0.40443377856E+03  0.17211341803E+03 0.  0.
        -24    2    3    3    0    0  0.11119062087E+03  0.38750751908E+02 -0.36198023201E+03  0.38895762514E+03  0.79958557068E+02 0.  0.
          6    2    1    2  501    0 -0.10697403357E+03 -0.38730359866E+02 -0.66124811950E+03  0.69226302908E+03  0.17039818444E+03 0.  0.
         24    2    5    5    0    0  0.23710197206E+01  0.21174414032E+02 -0.35253761362E+03  0.35929277657E+03  0.65989034977E+02 0.  0.
          5    1    5    5  501    0 -0.10934505329E+03 -0.59904773897E+02 -0.30871050588E+03  0.33297025251E+03  0.47000000000E+01 0. -1.
        -11    1    6    6    0    0  0.31938605390E+02 -0.16628852969E+01 -0.16141788147E+03  0.16455568103E+03  0.00000000000E+00 0.  1.
         12    1    6    6    0    0 -0.29567585669E+02  0.22837299329E+02 -0.19111973215E+03  0.19473709554E+03  0.00000000000E+00 0. -1.
         -5    1    3    3    0  503 -0.42165872938E+01 -0.20392042400E-01  0.14129447989E+02  0.15476153421E+02  0.47000000000E+01 0.  1.
         11    1    4    4    0    0  0.25756934405E+02 -0.22527153783E+02 -0.58393760738E+02  0.67681043288E+02  0.00000000000E+00 0. -1.
        -12    1    4    4    0    0  0.85433686461E+02  0.61277905692E+02 -0.30358647127E+03  0.32127658185E+03  0.00000000000E+00 0.  1.
</event>
<event>
12    1  0.1066489E+000  0.1887697E+03  0.7818608E-02  0.1162628E+00
         21   -1    0    0  501  502  0.00000000000E+00  0.00000000000E+00  0.68723020175E+02  0.68723020175E+02  0.00000000000E+00 0.  1.
         21   -1    0    0  502  503 -0.00000000000E+00 -0.00000000000E+00 -0.49745148438E+03  0.49745148438E+03  0.00000000000E+00 0.  1.
         -6    2    1    2    0  503  0.32838417254E+02 -0.61337342019E+01 -0.26891533373E+03  0.32855660786E+03  0.18579021372E+03 0.  0.
        -24    2    3    3    0    0  0.82738958939E+02 -0.42493457230E+02 -0.20282517407E+03  0.23799120209E+03  0.82766731249E+02 0.  0.
          6    2    1    2  501    0 -0.32838417254E+02  0.61337342019E+01 -0.15981313048E+03  0.23761789669E+03  0.17264426956E+03 0.  0.
         24    2    5    5    0    0 -0.35846482573E+01 -0.40829913981E+02 -0.15834886086E+03  0.18206970737E+03  0.79969275519E+02 0.  0.
          5    1    5    5  501    0 -0.29253768997E+02  0.46963648183E+02 -0.14642696108E+01  0.55548189319E+02  0.47000000000E+01 0. -1.
        -11    1    6    6    0    0 -0.29309906592E+02 -0.45666804801E+02 -0.13987320331E+03  0.15003013261E+03  0.00000000000E+00 0.  1.
         12    1    6    6    0    0  0.25725258335E+02  0.48368908202E+01 -0.18475657553E+02  0.32039574766E+02  0.00000000000E+00 0. -1.
         -5    1    3    3    0  503 -0.49900541685E+02  0.36359723028E+02 -0.66090159656E+02  0.90565405771E+02  0.47000000000E+01 0.  1.
         11    1    4    4    0    0  0.73718409993E+02 -0.49322626716E+02 -0.20756697006E+03  0.22572366410E+03  0.00000000000E+00 0. -1.
        -12    1    4    4    0    0  0.90205489463E+01  0.68291694861E+01  0.47417959825E+01  0.12267537989E+02  0.00000000000E+00 0.  1.
</event>
<event>
12    1  0.1066489E+000  0.1797024E+03  0.7818608E-02  0.1168292E+00
         21   -1    0    0  501  502  0.00000000000E+00  0.00000000000E+00  0.27708740870E+03  0.27708740870E+03  0.00000000000E+00 0.  1.
         21   -1    0    0  502  503 -0.00000000000E+00 -0.00000000000E+00 -0.14059988476E+03  0.14059988476E+03  0.00000000000E+00 0.  1.
         -6    2    1    2    0  503 -0.54707538773E+02 -0.30942574102E+01 -0.19225642944E+02  0.17990681411E+03  0.17027726563E+03 0.  0.
        -24    2    3    3    0    0 -0.65788066313E+02 -0.31963142739E+01 -0.71227312501E+02  0.12653030108E+03  0.81229926457E+02 0.  0.
          6    2    1    2  501    0  0.54707538773E+02  0.30942574102E+01  0.15571316688E+03  0.23778047936E+03  0.17114460785E+03 0.  0.
         24    2    5    5    0    0  0.21156087342E+02 -0.15439621749E+02  0.83553549853E+01  0.85446572110E+02  0.80903292745E+02 0.  0.
          5    1    5    5  501    0  0.33551451431E+02  0.18533879159E+02  0.14735781190E+03  0.15233390725E+03  0.47000000000E+01 0. -1.
        -11    1    6    6    0    0 -0.10610336922E+02 -0.28519082335E+02  0.31677157237E+02  0.43924476064E+02  0.00000000000E+00 0.  1.
         12    1    6    6    0    0  0.31766424264E+02  0.13079460586E+02 -0.23321802252E+02  0.41522096046E+02  0.00000000000E+00 0. -1.
         -5    1    3    3    0  503  0.11080527540E+02  0.10205686371E+00  0.52001669556E+02  0.53376513026E+02  0.47000000000E+01 0.  1.
         13    1    4    4    0    0 -0.55709288374E+02 -0.38154345998E+02 -0.39305464802E+02  0.78129370233E+02  0.00000000000E+00 0. -1.
        -14    1    4    4    0    0 -0.10078777939E+02  0.34958031724E+02 -0.31921847698E+02  0.48400930851E+02  0.00000000000E+00 0.  1.
</event>
<event>
12    1  0.1066489E+000  0.1964680E+03  0.7818608E-02  0.1152841E+00
         21   -1    0    0  501  502  0.00000000000E+00  0.00000000000E+00  0.11930905319E+04  0.11930905319E+04  0.00000000000E+00 0.  1.
         21   -1    0    0  502  503 -0.00000000000E+00 -0.00000000000E+00 -0.32816500577E+02  0.32816500577E+02  0.00000000000E+00 0.  1.
         -6    2    1    2    0  503  0.51937976364E+02  0.78286920118E+02  0.65864272827E+03  0.68732081447E+03  0.17254930675E+03 0.  0.
        -24    2    3    3    0    0  0.87504915166E+02  0.10815266380E+03  0.52955712728E+03  0.55005409541E+03  0.52674927189E+02 0.  0.
          6    2    1    2  501    0 -0.51937976364E+02 -0.78286920118E+02  0.50163130308E+03  0.53858621803E+03  0.17208938018E+03 0.  0.
         24    2    5    5    0    0 -0.25324147131E+02  0.20355332191E+02  0.15920786655E+03  0.18121457711E+03  0.80224224579E+02 0.  0.
          5    1    5    5  501    0 -0.26613829233E+02 -0.98642252309E+02  0.34242343653E+03  0.35737164092E+03  0.47000000000E+01 0. -1.
        -13    1    6    6    0    0  0.14666897213E+02 -0.12791541167E+02  0.10242771238E+03  0.10426014418E+03  0.00000000000E+00 0.  1.
         14    1    6    6    0    0 -0.39991044345E+02  0.33146873358E+02  0.56780154166E+02  0.76954432935E+02  0.00000000000E+00 0. -1.
         -5    1    3    3    0  503 -0.35566938802E+02 -0.29865743682E+02  0.12908560099E+03  0.13726671907E+03  0.47000000000E+01 0.  1.
         13    1    4    4    0    0  0.15031305161E+02  0.36000798460E+02  0.79917848805E+02  0.88931772625E+02  0.00000000000E+00 0. -1.
        -14    1    4    4    0    0  0.72473610006E+02  0.72151865340E+02  0.44963927848E+03  0.46112232278E+03  0.00000000000E+00 0.  1.
</event>
<event>
12    1  0.1066489E+000  0.3308907E+03  0.7818608E-02  0.1070857E+00
         21   -1    0    0  501  502  0.00000000000E+00  0.00000000000E+00  0.13780623749E+03  0.13780623749E+03  0.00000000000E+00 0. -1.
         21   -1    0    0  502  503 -0.00000000000E+00 -0.00000000000E+00 -0.80941935859E+03  0.80941935859E+03  0.00000000000E+00 0. -1.
         -6    2    1    2    0  503  0.27616063483E+03  0.54743629730E+02 -0.26693280797E+03  0.42513733777E+03  0.17385934192E+03 0.  0.
        -24    2    3    3    0    0  0.17256881037E+03  0.35082313715E+02 -0.25353316439E+03  0.31874432161E+03  0.79423636662E+02 0.  0.
          6    2    1    2  501    0 -0.27616063483E+03 -0.54743629730E+02 -0.40468031313E+03  0.52208825830E+03  0.17189657472E+03 0.  0.
         24    2    5    5    0    0 -0.29012113999E+03 -0.61994709285E+02 -0.35312589295E+03  0.46798260149E+03  0.79348592802E+02 0.  0.
          5    1    5    5  501    0  0.13960505159E+02  0.72510795558E+01 -0.51554420181E+02  0.54105656813E+02  0.47000000000E+01 0. -1.
        -11    1    6    6    0    0 -0.15971664418E+03 -0.16153959031E+02 -0.24305843187E+03  0.29128638507E+03  0.00000000000E+00 0.  1.
         12    1    6    6    0    0 -0.13040449581E+03 -0.45840750255E+02 -0.11006746107E+03  0.17669621642E+03  0.00000000000E+00 0. -1.
         -5    1    3    3    0  503  0.10359182445E+03  0.19661316014E+02 -0.13399643583E+02  0.10639301617E+03  0.47000000000E+01 0.  1.
         13    1    4    4    0    0  0.10039798103E+03  0.59008686345E+02 -0.16637880791E+03  0.20308541892E+03  0.00000000000E+00 0. -1.
        -14    1    4    4    0    0  0.72170829348E+02 -0.23926372629E+02 -0.87154356482E+02  0.11565890268E+03  0.00000000000E+00 0.  1.
</event>
<event>
12    1  0.1066489E+000  0.2656653E+03  0.7818608E-02  0.1104363E+00
         21   -1    0    0  503  502  0.00000000000E+00  0.00000000000E+00  0.15089914733E+03  0.15089914733E+03  0.00000000000E+00 0. -1.
         21   -1    0    0  501  503 -0.00000000000E+00 -0.00000000000E+00 -0.47435252360E+03  0.47435252360E+03  0.00000000000E+00 0. -1.
          6    2    1    2  501    0  0.18562034062E+03 -0.73009451613E+02 -0.10782249091E+03  0.28308984137E+03  0.16949595235E+03 0.  0.
         24    2    3    3    0    0  0.27228280140E+02 -0.36726097708E+02 -0.73807296786E+01  0.92000427760E+02  0.79494767407E+02 0.  0.
         -6    2    1    2    0  502 -0.18562034062E+03  0.73009451613E+02 -0.21563088537E+03  0.34216182957E+03  0.17547862552E+03 0.  0.
        -24    2    5    5    0    0 -0.13670855652E+03  0.37570837384E+02 -0.22841290141E+03  0.28024472420E+03  0.79144517606E+02 0.  0.
          5    1    3    3  501    0  0.15839206048E+03 -0.36283353904E+02 -0.10044176123E+03  0.19108941361E+03  0.47000000000E+01 0. -1.
        -13    1    4    4    0    0  0.29614329046E+02 -0.22561679222E+02 -0.41036338226E+02  0.55407751346E+02  0.00000000000E+00 0.  1.
         14    1    4    4    0    0 -0.23860489057E+01 -0.14164418486E+02  0.33655608547E+02  0.36592676414E+02  0.00000000000E+00 0. -1.
         -5    1    5    5    0  502 -0.48911784106E+02  0.35438614229E+02  0.12782016043E+02  0.61917105367E+02  0.47000000000E+01 0.  1.
         11    1    6    6    0    0 -0.59532201190E+02 -0.18630850905E+02 -0.12372469781E+03  0.13856042881E+03  0.00000000000E+00 0. -1.
        -12    1    6    6    0    0 -0.77176355326E+02  0.56201688288E+02 -0.10468820359E+03  0.14168429539E+03  0.00000000000E+00 0.  1.
</event>
<event>
12    1  0.1066489E+000  0.1948617E+03  0.7818608E-02  0.1155427E+00
         21   -1    0    0  503  502  0.00000000000E+00  0.00000000000E+00  0.15330581079E+03  0.15330581079E+03  0.00000000000E+00 0.  1.
         21   -1    0    0  501  503 -0.00000000000E+00 -0.00000000000E+00 -0.32872912044E+03  0.32872912044E+03  0.00000000000E+00 0.  1.
          6    2    1    2  501    0 -0.69733391109E+02 -0.60306975589E+02 -0.21359428512E+03  0.28912557783E+03  0.17167237395E+03 0.  0.
         24    2    3    3    0    0 -0.77242086083E+01  0.28191281164E+02 -0.74119232067E+02  0.11262498127E+03  0.79600968027E+02 0.  0.
         -6    2    1    2    0  502  0.69733391109E+02  0.60306975589E+02  0.38170975475E+02  0.19290935340E+03  0.16509790465E+03 0.  0.
        -24    2    5    5    0    0  0.58055885620E+01 -0.13819656427E+02  0.53627585653E+02  0.93699886562E+02  0.75359558361E+02 0.  0.
          5    1    3    3  501    0 -0.62009182500E+02 -0.88498256753E+02 -0.13947505305E+03  0.17650059656E+03  0.47000000000E+01 0. -1.
        -11    1    4    4    0    0  0.24734882915E+02 -0.48584514609E+00  0.22361449789E+01  0.24840507698E+02  0.00000000000E+00 0.  1.
         12    1    4    4    0    0 -0.32459091523E+02  0.28677126310E+02 -0.76355377046E+02  0.87784473569E+02  0.00000000000E+00 0. -1.
         -5    1    5    5    0  502  0.63927802547E+02  0.74126632016E+02 -0.15456610179E+02  0.99209466840E+02  0.47000000000E+01 0.  1.
         13    1    6    6    0    0  0.54701026635E+01 -0.42058613855E+01  0.72335385875E+02  0.72663741596E+02  0.00000000000E+00 0. -1.
        -14    1    6    6    0    0  0.33548589856E+00 -0.96137950413E+01 -0.18707800221E+02  0.21036144965E+02  0.00000000000E+00 0.  1.
</event>
<event>
12    1  0.1066489E+000  0.1780845E+03  0.7818608E-02  0.1169690E+00
         21   -1    0    0  503  502  0.00000000000E+00  0.00000000000E+00  0.34753734449E+02  0.34753734449E+02  0.00000000000E+00 0. -1.
         21   -1    0    0  501  503 -0.00000000000E+00 -0.00000000000E+00 -0.15517546829E+04  0.15517546829E+04  0.00000000000E+00 0. -1.
          6    2    1    2  501    0 -0.41532798101E+02  0.22182477378E+02 -0.24930987339E+03  0.30638131106E+03  0.17174707910E+03 0.  0.
         24    2    3    3    0    0 -0.74800643880E+02 -0.40650252608E+01 -0.87566335559E+02  0.13911283529E+03  0.77928538189E+02 0.  0.
         -6    2    1    2    0  502  0.41532798101E+02 -0.22182477378E+02 -0.12676910750E+04  0.12801271062E+04  0.17166161723E+03 0.  0.
        -24    2    5    5    0    0  0.77765665780E+02 -0.47531983231E+01 -0.54243517738E+03  0.55374235452E+03  0.79527239769E+02 0.  0.
          5    1    3    3  501    0  0.33267845779E+02  0.26247502639E+02 -0.16174353783E+03  0.16726847577E+03  0.47000000000E+01 0. -1.
        -13    1    4    4    0    0 -0.56300932370E+02  0.55303180263E+01 -0.99965667778E+02  0.11486302337E+03  0.00000000000E+00 0.  1.
         14    1    4    4    0    0 -0.18499711510E+02 -0.95953432871E+01  0.12399332220E+02  0.24249811922E+02  0.00000000000E+00 0. -1.
         -5    1    5    5    0  502 -0.36232867678E+02 -0.17429279055E+02 -0.72525589764E+03  0.72638475172E+03  0.47000000000E+01 0.  1.
         13    1    6    6    0    0 -0.80816778983E+01  0.41774137724E+01 -0.72250859224E+01  0.11617494139E+02  0.00000000000E+00 0. -1.
        -14    1    6    6    0    0  0.85847343678E+02 -0.89306120955E+01 -0.53521009146E+03  0.54212486038E+03  0.00000000000E+00 0.  1.
</event>
<event>
12    1  0.1066489E+000  0.5643335E+03  0.7818608E-02  0.9982462E-01
         21   -1    0    0  501  502  0.00000000000E+00  0.00000000000E+00  0.15313452274E+04  0.15313452274E+04  0.00000000000E+00 0.  1.
         21   -1    0    0  502  503 -0.00000000000E+00 -0.00000000000E+00 -0.24921367053E+03  0.24921367053E+03  0.00000000000E+00 0.  1.
         -6    2    1    2    0  503  0.13411786510E+03 -0.52021098204E+03  0.10035827327E+04  0.11512244919E+04  0.17185011418E+03 0.  0.
        -24    2    3    3    0    0  0.63563091484E+02 -0.29441883288E+03  0.70051041471E+03  0.76673133116E+03  0.80245730821E+02 0.  0.
          6    2    1    2  501    0 -0.13411786510E+03  0.52021098204E+03  0.27854882419E+03  0.62933440607E+03  0.17281573896E+03 0.  0.
         24    2    5    5    0    0 -0.60893363712E+02  0.16609673531E+03  0.15024523565E+03  0.24561233455E+03  0.80347127033E+02 0.  0.
          5    1    5    5  501    0 -0.73224501388E+02  0.35411424673E+03  0.12830358854E+03  0.38372207152E+03  0.47000000000E+01 0. -1.
        -11    1    6    6    0    0 -0.37112838833E+01  0.71431145835E+01  0.46890359849E+02  0.47576292003E+02  0.00000000000E+00 0.  1.
         12    1    6    6    0    0 -0.57182079829E+02  0.15895362072E+03  0.10335487580E+03  0.19803604254E+03  0.00000000000E+00 0. -1.
         -5    1    3    3    0  503  0.70554773616E+02 -0.22579214916E+03  0.30307231798E+03  0.38449316070E+03  0.47000000000E+01 0.  1.
         11    1    4    4    0    0  0.47784482394E+02 -0.19819825045E+03  0.37384091362E+03  0.42582030475E+03  0.00000000000E+00 0. -1.
        -12    1    4    4    0    0  0.15778609090E+02 -0.96220582426E+02  0.32666950109E+03  0.34091102641E+03  0.00000000000E+00 0.  1.
</event>
<event>
12    1  0.1066489E+000  0.1881786E+03  0.7818608E-02  0.1160520E+00
         21   -1    0    0  501  502  0.00000000000E+00  0.00000000000E+00  0.33470378472E+02  0.33470378472E+02  0.00000000000E+00 0. -1.
         21   -1    0    0  502  503 -0.00000000000E+00 -0.00000000000E+00 -0.10481434262E+04  0.10481434262E+04  0.00000000000E+00 0. -1.
         -6    2    1    2    0  503  0.60453135363E+02 -0.34945715976E+02 -0.50901576864E+03  0.54207653161E+03  0.17284133985E+03 0.  0.
        -24    2    3    3    0    0  0.45431626659E+02 -0.27107679151E+02 -0.51436324343E+03  0.52369811950E+03  0.83013945887E+02 0.  0.
          6    2    1    2  501    0 -0.60453135363E+02  0.34945715976E+02 -0.50565727905E+03  0.53953727302E+03  0.17474381386E+03 0.  0.
         24    2    5    5    0    0  0.27733202839E+02  0.34492719927E+02 -0.17146656200E+03  0.19387477750E+03  0.78916216316E+02 0.  0.
          5    1    5    5  501    0 -0.88186338201E+02  0.45299604970E+00 -0.33419071705E+03  0.34566249552E+03  0.47000000000E+01 0. -1.
        -13    1    6    6    0    0 -0.19341476583E+02  0.29638853204E+02 -0.11434165896E+03  0.11969364774E+03  0.00000000000E+00 0.  1.
         14    1    6    6    0    0  0.47074679421E+02  0.48538667223E+01 -0.57124903049E+02  0.74181129765E+02  0.00000000000E+00 0. -1.
         -5    1    3    3    0  503  0.15021508704E+02 -0.78380368256E+01  0.53474747887E+01  0.18378412108E+02  0.47000000000E+01 0.  1.
         11    1    4    4    0    0 -0.22748857427E+02 -0.74450212855E+01 -0.19991668280E+03  0.20134452790E+03  0.00000000000E+00 0. -1.
        -12    1    4    4    0    0  0.68180484087E+02 -0.19662657865E+02 -0.31444656063E+03  0.32235359160E+03  0.00000000000E+00 0.  1.
</event>
<event>
12    1  0.1066489E+000  0.1756534E+03  0.7818608E-02  0.1175450E+00
         21   -1    0    0  503  502  0.00000000000E+00  0.00000000000E+00  0.28093414260E+03  0.28093414260E+03  0.00000000000E+00 0.  1.
         21   -1    0    0  501  503 -0.00000000000E+00 -0.00000000000E+00 -0.10203010348E+03  0.10203010348E+03  0.00000000000E+00 0.  1.
          6    2    1    2  501    0 -0.50026915576E+01 -0.35096037752E+02  0.85356179708E+02  0.19529413203E+03  0.17203883807E+03 0.  0.
         24    2    3    3    0    0 -0.12530002183E+02 -0.23418665607E+02  0.12662092474E+03  0.15150040408E+03  0.78829429781E+02 0.  0.
         -6    2    1    2    0  502  0.50026915576E+01  0.35096037752E+02  0.93547859408E+02  0.18767011405E+03  0.15878321989E+03 0.  0.
        -24    2    5    5    0    0 -0.26088902490E+02 -0.23177291643E+02  0.58159043348E+02  0.11259064654E+03  0.89868580071E+02 0.  0.
          5    1    3    3  501    0  0.75273106250E+01 -0.11677372145E+02 -0.41264745034E+02  0.43793727954E+02  0.47000000000E+01 0. -1.
        -13    1    4    4    0    0 -0.28805822057E+02 -0.17150904979E+02  0.12073527426E+02  0.35632835847E+02  0.00000000000E+00 0.  1.
         14    1    4    4    0    0  0.16275819874E+02 -0.62677606284E+01  0.11454739732E+03  0.11586756823E+03  0.00000000000E+00 0. -1.
         -5    1    5    5    0  502  0.31091594048E+02  0.58273329395E+02  0.35388816061E+02  0.75079467509E+02  0.47000000000E+01 0.  1.
         11    1    6    6    0    0 -0.57595403280E+02 -0.16541855521E+01  0.41209097191E+02  0.70838947621E+02  0.00000000000E+00 0. -1.
        -12    1    6    6    0    0  0.31506500789E+02 -0.21523106091E+02  0.16949946156E+02  0.41751698918E+02  0.00000000000E+00 0.  1.
</event>
<event>
12    1  0.1066489E+000  0.2697549E+03  0.7818608E-02  0.1101476E+00
         21   -1    0    0  501  502  0.00000000000E+00  0.00000000000E+00  0.13564375686E+03  0.13564375686E+03  0.00000000000E+00 0. -1.
         21   -1    0    0  502  503 -0.00000000000E+00 -0.00000000000E+00 -0.77509908049E+03  0.77509908049E+03  0.00000000000E+00 0. -1.
         -6    2    1    2    0  503 -0.54725598746E+02  0.20146823961E+03 -0.66803695150E+02  0.27790369593E+03  0.17083146020E+03 0.  0.
        -24    2    3    3    0    0 -0.46730558484E+02  0.30261117981E+02 -0.47882809111E+02  0.10540474204E+03  0.75616902063E+02 0.  0.
          6    2    1    2  501    0  0.54725598746E+02 -0.20146823961E+03 -0.57265162848E+03  0.63283914143E+03  0.17020913192E+03 0.  0.
         24    2    5    5    0    0 -0.29297999359E+02 -0.13229377230E+03 -0.38437089973E+03  0.41531490189E+03  0.79909099712E+02 0.  0.
          5    1    5    5  501    0  0.84023598105E+02 -0.69174467308E+02 -0.18828072875E+03  0.21752423953E+03  0.47000000000E+01 0. -1.
        -11    1    6    6    0    0  0.21885107830E+02 -0.66072290206E+02 -0.12901309744E+03  0.14659087553E+03  0.00000000000E+00 0.  1.
         12    1    6    6    0    0 -0.51183107189E+02 -0.66221482096E+02 -0.25535780229E+03  0.26872402636E+03  0.00000000000E+00 0. -1.
         -5    1    3    3    0  503 -0.79950402623E+01  0.17120712163E+03 -0.18920886039E+02  0.17249895389E+03  0.47000000000E+01 0.  1.
         13    1    4    4    0    0  0.65112015124E+01  0.22260672440E+02 -0.46018628947E+02  0.51532974810E+02  0.00000000000E+00 0. -1.
        -14    1    4    4    0    0 -0.53241759996E+02  0.80004455412E+01 -0.18641801638E+01  0.53871767226E+02  0.00000000000E+00 0.  1.
</event>
<event>
12    1  0.1066489E+000  0.2310950E+03  0.7818608E-02  0.1125973E+00
         21   -1    0    0  501  502  0.00000000000E+00  0.00000000000E+00  0.75117572759E+02  0.75117572759E+02  0.00000000000E+00 0.  1.
         21   -1    0    0  502  503 -0.00000000000E+00 -0.00000000000E+00 -0.74441547313E+03  0.74441547313E+03  0.00000000000E+00 0.  1.
         -6    2    1    2    0  503 -0.15286461168E+03 -0.17263879682E+02 -0.24507487882E+03  0.33644912634E+03  0.17167028671E+03 0.  0.
        -24    2    3    3    0    0 -0.11551462332E+03  0.45117241675E+02 -0.11264305881E+03  0.18529786805E+03  0.79168475470E+02 0.  0.
          6    2    1    2  501    0  0.15286461168E+03  0.17263879682E+02 -0.42422302155E+03  0.48308391955E+03  0.17245077636E+03 0.  0.
         24    2    5    5    0    0  0.69900637197E+02 -0.56795369473E+02 -0.21202528390E+03  0.24346388009E+03  0.78791667194E+02 0.  0.
          5    1    5    5  501    0  0.82963974485E+02  0.74059249155E+02 -0.21219773765E+03  0.23962003946E+03  0.47000000000E+01 0. -1.
        -11    1    6    6    0    0 -0.13930496099E+02  0.56727442957E+01 -0.29696702131E+02  0.33288629694E+02  0.00000000000E+00 0.  1.
         12    1    6    6    0    0  0.83831133296E+02 -0.62468113769E+02 -0.18232858177E+03  0.21017525040E+03  0.00000000000E+00 0. -1.
         -5    1    3    3    0  503 -0.37349988361E+02 -0.62381121357E+02 -0.13243182000E+03  0.15115125829E+03  0.47000000000E+01 0.  1.
         13    1    4    4    0    0 -0.33569386948E+02 -0.17882776717E+02 -0.93463161998E+01  0.39166964009E+02  0.00000000000E+00 0. -1.
        -14    1    4    4    0    0 -0.81945236373E+02  0.63000018392E+02 -0.10329674261E+03  0.14613090404E+03  0.00000000000E+00 0.  1.
</event>
<event>
12    1  0.1066489E+000  0.1768940E+03  0.7818608E-02  0.1172134E+00
         21   -1    0    0  503  502  0.00000000000E+00  0.00000000000E+00  0.24824516020E+03  0.24824516020E+03  0.00000000000E+00 0. -1.
         21   -1    0    0  501  503 -0.00000000000E+00 -0.00000000000E+00 -0.23153109379E+03  0.23153109379E+03  0.00000000000E+00 0. -1.
          6    2    1    2  501    0  0.96590157833E+01 -0.28534870722E+02 -0.15624759648E+03  0.23601867289E+03  0.17430997422E+03 0.  0.
         24    2    3    3    0    0  0.24818521798E+02  0.43880657960E+02 -0.12384949784E+03  0.15511412288E+03  0.78614386937E+02 0.  0.
         -6    2    1    2    0  502 -0.96590157833E+01  0.28534870722E+02  0.17296166290E+03  0.24375758110E+03  0.16909904222E+03 0.  0.
        -24    2    5    5    0    0 -0.56727152489E+02  0.16521686559E+02  0.16784855178E+03  0.19468661217E+03  0.78986104259E+02 0.  0.
          5    1    3    3  501    0 -0.15159506014E+02 -0.72415528682E+02 -0.32398098634E+02  0.80904550008E+02  0.47000000000E+01 0. -1.
        -11    1    4    4    0    0  0.20159117859E+02  0.25001175739E+02 -0.13062991501E+03  0.13451997442E+03  0.00000000000E+00 0.  1.
         12    1    4    4    0    0  0.46594039385E+01  0.18879482221E+02  0.67804171667E+01  0.20594148464E+02  0.00000000000E+00 0. -1.
         -5    1    5    5    0  502  0.47068136706E+02  0.12013184163E+02  0.51131111143E+01  0.49070968932E+02  0.47000000000E+01 0.  1.
         11    1    6    6    0    0 -0.57292074804E+02  0.37490723723E+02  0.84596138930E+02  0.10883217779E+03  0.00000000000E+00 0. -1.
        -12    1    6    6    0    0  0.56492231542E+00 -0.20969037163E+02  0.83252412852E+02  0.85854434379E+02  0.00000000000E+00 0.  1.
</event>
<event>
12    1  0.1066489E+000  0.2575439E+03  0.7818608E-02  0.1109624E+00
         21   -1    0    0  503  502  0.00000000000E+00  0.00000000000E+00  0.75199400530E+02  0.75199400530E+02  0.00000000000E+00 0.  1.
         21   -1    0    0  501  503 -0.00000000000E+00 -0.00000000000E+00 -0.87078257434E+03  0.87078257434E+03  0.00000000000E+00 0.  1.
          6    2    1    2  501    0 -0.15803346103E+03  0.10658979082E+03 -0.35026896171E+03  0.43476107251E+03  0.17318454412E+03 0.  0.
         24    2    3    3    0    0 -0.18830702069E+03  0.10136030097E+03 -0.28107808931E+03  0.35891054316E+03  0.63862673357E+02 0.  0.
         -6    2    1    2    0  502  0.15803346103E+03 -0.10658979082E+03 -0.44531421210E+03  0.51122090235E+03  0.16342002692E+03 0.  0.
        -24    2    5    5    0    0  0.32701625050E+02 -0.80970850623E+02 -0.16320021340E+03  0.20142290774E+03  0.79443081371E+02 0.  0.
          5    1    3    3  501    0  0.30273559664E+02  0.52294898540E+01 -0.69190872404E+02  0.75850529351E+02  0.47000000000E+01 0. -1.
        -13    1    4    4    0    0 -0.18495063983E+03  0.81456334583E+02 -0.24525616919E+03  0.31779311217E+03  0.00000000000E+00 0.  1.
         14    1    4    4    0    0 -0.33563808639E+01  0.19903966386E+02 -0.35821920114E+02  0.41117430988E+02  0.00000000000E+00 0. -1.
         -5    1    5    5    0  502  0.12533183598E+03 -0.25618940200E+02 -0.28211399869E+03  0.30979799461E+03  0.47000000000E+01 0.  1.
         13    1    6    6    0    0 -0.20964425519E+02 -0.16290887300E+02 -0.13598740700E+02  0.29829949631E+02  0.00000000000E+00 0. -1.
        -14    1    6    6    0    0  0.53666050569E+02 -0.64679963323E+02 -0.14960147270E+03  0.17159295811E+03  0.00000000000E+00 0.  1.
</event>
<event>
12    1  0.1066489E+000  0.2265346E+03  0.7818608E-02  0.1129427E+00
         21   -1    0    0  501  502  0.00000000000E+00  0.00000000000E+00  0.73572084524E+02  0.73572084524E+02  0.00000000000E+00 0.  1.
         21   -1    0    0  502  503 -0.00000000000E+00 -0.00000000000E+00 -0.71334010137E+03  0.71334010137E+03  0.00000000000E+00 0.  1.
         -6    2    1    2    0  503 -0.12865755858E+03 -0.73676795891E+02 -0.25058388316E+03  0.33659870522E+03  0.16889454764E+03 0.  0.
        -24    2    3    3    0    0 -0.11125390457E+03 -0.11135553204E+03 -0.16715875925E+03  0.24330124742E+03  0.80473352149E+02 0.  0.
          6    2    1    2  501    0  0.12865755858E+03  0.73676795891E+02 -0.38918413368E+03  0.45031348067E+03  0.17128018956E+03 0.  0.
         24    2    5    5    0    0  0.10167394973E+03 -0.49694250121E+01 -0.30649552848E+03  0.33295574280E+03  0.80979815054E+02 0.  0.
          5    1    5    5  501    0  0.26983608845E+02  0.78646220903E+02 -0.82688605202E+02  0.11735773787E+03  0.47000000000E+01 0. -1.
        -13    1    6    6    0    0  0.84761561178E+02 -0.23276405711E+02 -0.14510359405E+03  0.16965071860E+03  0.00000000000E+00 0.  1.
         14    1    6    6    0    0  0.16912388554E+02  0.18306980699E+02 -0.16139193443E+03  0.16330502420E+03  0.00000000000E+00 0. -1.
         -5    1    3    3    0  503 -0.17403654006E+02  0.37678736150E+02 -0.83425123917E+02  0.93297457796E+02  0.47000000000E+01 0.  1.
         13    1    4    4    0    0 -0.90053349782E+02 -0.95089208197E+02 -0.17195920661E+03  0.21615164135E+03  0.00000000000E+00 0. -1.
        -14    1    4    4    0    0 -0.21200554789E+02 -0.16266323845E+02  0.48004473625E+01  0.27149606069E+02  0.00000000000E+00 0.  1.
</event>
<event>
12    1  0.1066489E+000  0.1800539E+03  0.7818608E-02  0.1169314E+00
         21   -1    0    0  501  502  0.00000000000E+00  0.00000000000E+00  0.31435615260E+03  0.31435615260E+03  0.00000000000E+00 0. -1.
         21   -1    0    0  502  503 -0.00000000000E+00 -0.00000000000E+00 -0.29032191951E+03  0.29032191951E+03  0.00000000000E+00 0. -1.
         -6    2    1    2    0  503  0.30268510030E+02  0.41387483118E+02  0.25702512635E+03  0.31022235291E+03  0.16597254657E+03 0.  0.
        -24    2    3    3    0    0 -0.26970793999E+02  0.20455691145E+02  0.66215297826E+02  0.10986028440E+03  0.80863820043E+02 0.  0.
          6    2    1    2  501    0 -0.30268510030E+02 -0.41387483118E+02 -0.23299089325E+03  0.29445571920E+03  0.17259868995E+03 0.  0.
         24    2    5    5    0    0 -0.22200681448E+02  0.11582439761E+02 -0.22432224117E+03  0.23997509772E+03  0.81489609617E+02 0.  0.
          5    1    5    5  501    0 -0.80678285815E+01 -0.52969922878E+02 -0.86686520797E+01  0.54480621478E+02  0.47000000000E+01 0. -1.
        -11    1    6    6    0    0  0.16222483163E+02 -0.24194228134E+02 -0.11598662722E+03  0.11958857524E+03  0.00000000000E+00 0.  1.
         12    1    6    6    0    0 -0.38423164612E+02  0.35776667895E+02 -0.10833561395E+03  0.12038652248E+03  0.00000000000E+00 0. -1.
         -5    1    3    3    0  503  0.57239304029E+02  0.20931791973E+02  0.19080982852E+03  0.20036206852E+03  0.47000000000E+01 0.  1.
         13    1    4    4    0    0 -0.48084370193E+02  0.85810165848E+01  0.69985719889E+02  0.85344838690E+02  0.00000000000E+00 0. -1.
        -14    1    4    4    0    0  0.21113576194E+02  0.11874674560E+02 -0.37704220631E+01  0.24515445706E+02  0.00000000000E+00 0.  1.
</event>
<event>
12    1  0.1066489E+000  0.2066847E+03  0.7818608E-02  0.1144544E+00
         21   -1    0    0  503  502  0.00000000000E+00  0.00000000000E+00  0.76923408438E+03  0.76923408438E+03  0.00000000000E+00 0. -1.
         21   -1    0    0  501  503 -0.00000000000E+00 -0.00000000000E+00 -0.68547052229E+02  0.68547052229E+02  0.00000000000E+00 0. -1.
          6    2    1    2  501    0  0.87592952797E+02 -0.72950092327E+02  0.53475335941E+03  0.57272916892E+03  0.17047962982E+03 0.  0.
         24    2    3    3    0    0 -0.17371913231E+01 -0.22200191311E+02  0.13588354069E+03  0.16081334088E+03  0.83070618442E+02 0.  0.
         -6    2    1    2    0  502 -0.87592952797E+02  0.72950092327E+02  0.16593367274E+03  0.26505196768E+03  0.17240742581E+03 0.  0.
        -24    2    5    5    0    0 -0.30555837429E+02 -0.28709452843E+02  0.66745814955E+02  0.11192386188E+03  0.79461029201E+02 0.  0.
          5    1    3    3  501    0  0.89330144120E+02 -0.50749901017E+02  0.39886981872E+03  0.41191582804E+03  0.47000000000E+01 0. -1.
        -13    1    4    4    0    0  0.24716386980E+02 -0.30774421103E+02  0.25525284328E+02  0.47005371178E+02  0.00000000000E+00 0.  1.
         14    1    4    4    0    0 -0.26453578304E+02  0.85742297928E+01  0.11035825636E+03  0.11380796970E+03  0.00000000000E+00 0. -1.
         -5    1    5    5    0  502 -0.57037115368E+02  0.10165954517E+03  0.99187857782E+02  0.15312810580E+03  0.47000000000E+01 0.  1.
         13    1    6    6    0    0  0.26636409215E+02 -0.20214376179E+01  0.18819781300E+02  0.32676729856E+02  0.00000000000E+00 0. -1.
        -14    1    6    6    0    0 -0.57192246644E+02 -0.26688015225E+02  0.47926033656E+02  0.79247132029E+02  0.00000000000E+00 0.  1.
</event>
<event>
12    1  0.1066489E+000  0.2244852E+03  0.7818608E-02  0.1131496E+00
         21   -1    0    0  503  502  0.00000000000E+00  0.00000000000E+00  0.96685775429E+03  0.96685775429E+03  0.00000000000E+00 0. -1.
         21   -1    0    0  501  503 -0.00000000000E+00 -0.00000000000E+00 -0.55833603540E+02  0.55833603540E+02  0.00000000000E+00 0. -1.
          6    2    1    2  501    0  0.10058651050E+03  0.10414411996E+03  0.60171112131E+03  0.64050274598E+03  0.16499651599E+03 0.  0.
         24    2    3    3    0    0  0.91469403336E+02  0.13844728223E+02  0.41151647887E+03  0.42971092023E+03  0.82142159332E+02 0.  0.
         -6    2    1    2    0  502 -0.10058651050E+03 -0.10414411996E+03  0.30931302944E+03  0.38218861185E+03  0.17155156959E+03 0.  0.
        -24    2    5    5    0    0 -0.58629796334E+02 -0.12592624088E+03  0.16407420683E+03  0.22937751196E+03  0.79992665186E+02 0.  0.
          5    1    3    3  501    0  0.91171071676E+01  0.90299391734E+02  0.19019464244E+03  0.21079182576E+03  0.47000000000E+01 0. -1.
        -13    1    4    4    0    0  0.77495488976E+02  0.36917170373E+02  0.21746474219E+03  0.23379337539E+03  0.00000000000E+00 0.  1.
         14    1    4    4    0    0  0.13973914360E+02 -0.23072442150E+02  0.19405173667E+03  0.19591754484E+03  0.00000000000E+00 0. -1.
         -5    1    5    5    0  502 -0.41956714169E+02  0.21782120928E+02  0.14523882261E+03  0.15281109989E+03  0.47000000000E+01 0.  1.
         13    1    6    6    0    0  0.13060005229E+02 -0.75094705503E+00  0.28755222273E+02  0.31590987101E+02  0.00000000000E+00 0. -1.
        -14    1    6    6    0    0 -0.71689801563E+02 -0.12517529383E+03  0.13531898456E+03  0.19778652486E+03  0.00000000000E+00 0.  1.
</event>
<event>
12    1  0.1066489E+000  0.1735574E+03  0.7818608E-02  0.1174656E+00
         21   -1    0    0  503  502  0.00000000000E+00  0.00000000000E+00  0.10068963518E+03  0.10068963518E+03  0.00000000000E+00 0. -1.
         21   -1    0    0  501  503 -0.00000000000E+00 -0.00000000000E+00 -0.43367277327E+03  0.43367277327E+03  0.00000000000E+00 0. -1.
          6    2    1    2  501    0 -0.56766398916E+01 -0.11415312260E+02 -0.31762921852E+03  0.36195370202E+03  0.17308849861E+03 0.  0.
         24    2    3    3    0    0 -0.70823143884E+02 -0.22501009929E+01 -0.18292961483E+03  0.21197323224E+03  0.80302095493E+02 0.  0.
         -6    2    1    2    0  502  0.56766398916E+01  0.11415312260E+02 -0.15353919559E+02  0.17240870643E+03  0.17124977551E+03 0.  0.
        -24    2    5    5    0    0 -0.17094046803E+02  0.49685586495E+02 -0.56408155873E+02  0.11165791728E+03  0.80775902977E+02 0.  0.
          5    1    3    3  501    0  0.65146503993E+02 -0.91652112669E+01 -0.13469960370E+03  0.14998046978E+03  0.47000000000E+01 0. -1.
        -13    1    4    4    0    0 -0.43226888929E+02 -0.37016388850E+02 -0.13574394007E+03  0.14719101276E+03  0.00000000000E+00 0.  1.
         14    1    4    4    0    0 -0.27596254955E+02  0.34766287857E+02 -0.47185674755E+02  0.64782219482E+02  0.00000000000E+00 0. -1.
         -5    1    5    5    0  502  0.22770686695E+02 -0.38270274235E+02  0.41054236314E+02  0.60750789146E+02  0.47000000000E+01 0.  1.
         11    1    6    6    0    0 -0.49242157370E+02  0.31976118500E+02 -0.42177456497E+02  0.72292461940E+02  0.00000000000E+00 0. -1.
        -12    1    6    6    0    0  0.32148110567E+02  0.17709467995E+02 -0.14230699375E+02  0.39365455343E+02  0.00000000000E+00 0.  1.
</event>
<event>
12    1  0.1066489E+000  0.1775748E+03  0.7818608E-02  0.1170454E+00
         21   -1    0    0  503  502  0.00000000000E+00  0.00000000000E+00  0.44714747649E+03  0.44714747649E+03  0.00000000000E+00 0.  1.
         21   -1    0    0  501  503 -0.00000000000E+00 -0.00000000000E+00 -0.86262732906E+02  0.86262732906E+02  0.00000000000E+00 0.  1.
          6    2    1    2  501    0  0.41215192601E+01  0.42815173226E+02  0.64397812320E+02  0.18781315871E+03  0.17110399871E+03 0.  0.
         24    2    3    3    0    0 -0.29601819570E+02  0.51604027473E+02 -0.12147475999E+02  0.10357671349E+03  0.83912639277E+02 0.  0.
         -6    2    1    2    0  502 -0.41215192601E+01 -0.42815173226E+02  0.29648693126E+03  0.34559705068E+03  0.17228666533E+03 0.  0.
        -24    2    5    5    0    0  0.57642960323E+02 -0.41531594507E+02  0.13878026713E+03  0.17615685349E+03  0.81998111377E+02 0.  0.
          5    1    3    3  501    0  0.33723338830E+02 -0.87888542469E+01  0.76545288319E+02  0.84236445228E+02  0.47000000000E+01 0. -1.
        -11    1    4    4    0    0 -0.58296941860E+01 -0.21320540593E+02  0.92284736384E+01  0.23952359199E+02  0.00000000000E+00 0.  1.
         12    1    4    4    0    0 -0.23772125384E+02  0.72924568066E+02 -0.21375949637E+02  0.79624354288E+02  0.00000000000E+00 0. -1.
         -5    1    5    5    0  502 -0.61764479583E+02 -0.12835787189E+01  0.15770666413E+03  0.16944019719E+03  0.47000000000E+01 0.  1.
         13    1    6    6    0    0  0.12200745734E+02 -0.18656838675E+02 -0.56763893452E+01  0.23003417611E+02  0.00000000000E+00 0. -1.
        -14    1    6    6    0    0  0.45442214589E+02 -0.22874755832E+02  0.14445665648E+03  0.15315343588E+03  0.00000000000E+00 0.  1.
</event>
<event>
12    1  0.1066489E+000  0.1825012E+03  0.7818608E-02  0.1165498E+00
         21   -1    0    0  503  502  0.00000000000E+00  0.00000000000E+00  0.50027102354E+03  0.50027102354E+03  0.00000000000E+00 0.  1.
         21   -1    0    0  501  503 -0.00000000000E+00 -0.00000000000E+00 -0.72465447967E+02  0.72465447967E+02  0.00000000000E+00 0.  1.
          6    2    1    2  501    0  0.29426588480E+02  0.50091320354E+02  0.29631404473E+03  0.34779930557E+03  0.17258991675E+03 0.  0.
         24    2    3    3    0    0  0.74521694817E+02 -0.46272387214E+01  0.20117041374E+03  0.22904708520E+03  0.80113279421E+02 0.  0.
         -6    2    1    2    0  502 -0.29426588480E+02 -0.50091320354E+02  0.13149153084E+03  0.22493716594E+03  0.17300763409E+03 0.  0.
        -24    2    5    5    0    0  0.33279718145E+02 -0.37638076201E+02  0.12977938497E+03  0.16081084043E+03  0.80580848948E+02 0.  0.
          5    1    3    3  501    0 -0.45095106336E+02  0.54718559075E+02  0.95143630995E+02  0.11875222037E+03  0.47000000000E+01 0. -1.
        -13    1    4    4    0    0  0.44422727852E+02 -0.42145595270E+02  0.11912455073E+03  0.13394136231E+03  0.00000000000E+00 0.  1.
         14    1    4    4    0    0  0.30098966965E+02  0.37518356548E+02  0.82045863007E+02  0.95105722893E+02  0.00000000000E+00 0. -1.
         -5    1    5    5    0  502 -0.62706306625E+02 -0.12453244153E+02  0.17121458787E+01  0.64126325515E+02  0.47000000000E+01 0.  1.
         13    1    6    6    0    0 -0.90026798329E+01 -0.49629292352E+02  0.78081949282E+02  0.92956472110E+02  0.00000000000E+00 0. -1.
        -14    1    6    6    0    0  0.42282397978E+02  0.11991216151E+02  0.51697435684E+02  0.67854368318E+02  0.00000000000E+00 0.  1.
</event>
<event>
12    1  0.1066489E+000  0.2081401E+03  0.7818608E-02  0.1143387E+00
         21   -1    0    0  503  502  0.00000000000E+00  0.00000000000E+00  0.27060847114E+03  0.27060847114E+03  0.00000000000E+00 0.  1.
         21   -1    0    0  501  503 -0.00000000000E+00 -0.00000000000E+00 -0.29153349900E+03  0.29153349900E+03  0.00000000000E+00 0.  1.
          6    2    1    2  501    0  0.11384722514E+03 -0.98948920698E+01  0.17921687831E+03  0.27338757310E+03  0.17193887313E+03 0.  0.
         24    2    3    3    0    0  0.41206748323E+02  0.15127162163E+01  0.17818902584E+03  0.19969958982E+03  0.80176759903E+02 0.  0.
         -6    2    1    2    0  502 -0.11384722514E+03  0.98948920698E+01 -0.20014190616E+03  0.28875439704E+03  0.17396327097E+03 0.  0.
        -24    2    5    5    0    0 -0.57706028251E+02  0.43247060768E+02 -0.19480907049E+03  0.22306779048E+03  0.81291889168E+02 0.  0.
          5    1    3    3  501    0  0.72640476815E+02 -0.11407608286E+02  0.10278524687E+01  0.73687983276E+02  0.47000000000E+01 0. -1.
        -13    1    4    4    0    0  0.18936441103E+02 -0.28412340314E+02  0.25757880902E+02  0.42770530886E+02  0.00000000000E+00 0.  1.
         14    1    4    4    0    0  0.22270307220E+02  0.29925056530E+02  0.15243114494E+03  0.15692905894E+03  0.00000000000E+00 0. -1.
         -5    1    5    5    0  502 -0.56141196886E+02 -0.33352168698E+02 -0.53328356784E+01  0.65686606558E+02  0.47000000000E+01 0.  1.
         13    1    6    6    0    0 -0.69367874166E+02  0.50197080705E+02 -0.12227572215E+03  0.14927491787E+03  0.00000000000E+00 0. -1.
        -14    1    6    6    0    0  0.11661845915E+02 -0.69500199367E+01 -0.72533348338E+02  0.73792872613E+02  0.00000000000E+00 0.  1.
</event>
<event>
12    1  0.1066489E+000  0.3039052E+03  0.7818608E-02  0.1083372E+00
         21   -1    0    0  503  502  0.00000000000E+00  0.00000000000E+00  0.10608930384E+03  0.10608930384E+03  0.00000000000E+00 0. -1.
         21   -1    0    0  501  503 -0.00000000000E+00 -0.00000000000E+00 -0.11260069553E+04  0.11260069553E+04  0.00000000000E+00 0. -1.
          6    2    1    2  501    0  0.10439006836E+03 -0.22718957140E+03 -0.21529493235E+03  0.37199386935E+03  0.17179971831E+03 0.  0.
         24    2    3    3    0    0  0.15738620635E+02 -0.33831371646E+02 -0.40601853442E+02  0.96700871955E+02  0.79437284992E+02 0.  0.
         -6    2    1    2    0  502 -0.10439006836E+03  0.22718957140E+03 -0.80462271907E+03  0.86010238975E+03  0.17275998694E+03 0.  0.
        -24    2    5    5    0    0 -0.10923882627E+03  0.10296345086E+03 -0.56482085758E+03  0.58994935488E+03  0.80517369468E+02 0.  0.
          5    1    3    3  501    0  0.88651447724E+02 -0.19335819975E+03 -0.17469307891E+03  0.27529299739E+03  0.47000000000E+01 0. -1.
        -11    1    4    4    0    0  0.39871192983E+02 -0.37133267880E+02 -0.66117603804E+01  0.54884487687E+02  0.00000000000E+00 0.  1.
         12    1    4    4    0    0 -0.24132572348E+02  0.33018962341E+01 -0.33990093062E+02  0.41816384268E+02  0.00000000000E+00 0. -1.
         -5    1    5    5    0  502  0.48487579090E+01  0.12422612054E+03 -0.23980186149E+03  0.27015303487E+03  0.47000000000E+01 0.  1.
         11    1    6    6    0    0 -0.94941659220E+02  0.58851344443E+02 -0.28139087367E+03  0.30275109114E+03  0.00000000000E+00 0. -1.
        -12    1    6    6    0    0 -0.14297167048E+02  0.44112106416E+02 -0.28342998391E+03  0.28719826374E+03  0.00000000000E+00 0.  1.
</event>
<event>
12    1  0.1066489E+000  0.1765970E+03  0.7818608E-02  0.1171329E+00
         21   -1    0    0  501  502  0.00000000000E+00  0.00000000000E+00  0.13864592606E+02  0.13864592606E+02  0.00000000000E+00 0.  1.
         21   -1    0    0  502  503 -0.00000000000E+00 -0.00000000000E+00 -0.22657230905E+04  0.22657230905E+04  0.00000000000E+00 0.  1.
         -6    2    1    2    0  503  0.19863764500E+02 -0.35552350749E+02 -0.10059544510E+04  0.10213377746E+04  0.17183699726E+03 0.  0.
        -24    2    3    3    0    0 -0.35354484337E+02 -0.56214952856E+02 -0.39383052742E+03  0.40636315243E+03  0.74956432959E+02 0.  0.
          6    2    1    2  501    0 -0.19863764500E+02  0.35552350749E+02 -0.12459040469E+04  0.12582499084E+04  0.17104794449E+03 0.  0.
         24    2    5    5    0    0  0.15199409703E+02 -0.29864253610E+02 -0.56269231391E+03  0.57100241273E+03  0.91094563580E+02 0.  0.
          5    1    5    5  501    0 -0.35063174203E+02  0.65416604359E+02 -0.68321173295E+03  0.68724749570E+03  0.47000000000E+01 0. -1.
        -13    1    6    6    0    0 -0.95156463829E+01 -0.31033890012E+02 -0.52445142783E+03  0.52545499332E+03  0.00000000000E+00 0.  1.
         14    1    6    6    0    0  0.24715056086E+02  0.11696364020E+01 -0.38240886079E+02  0.45547419408E+02  0.00000000000E+00 0. -1.
         -5    1    3    3    0  503  0.55218248837E+02  0.20662602107E+02 -0.61212392359E+03  0.61497462221E+03  0.47000000000E+01 0.  1.
         13    1    4    4    0    0  0.19559100090E+02 -0.35526655110E+02 -0.18841644735E+03  0.19273157306E+03  0.00000000000E+00 0. -1.
        -14    1    4    4    0    0 -0.54913584427E+02 -0.20688297745E+02 -0.20541408006E+03  0.21363157938E+03  0.00000000000E+00 0.  1.
</event>
<event>
12    1  0.1066489E+000  0.1950271E+03  0.7818608E-02  0.1154104E+00
         21   -1    0    0  501  502  0.00000000000E+00  0.00000000000E+00  0.14812089271E+03  0.14812089271E+03  0.00000000000E+00 0. -1.
         21   -1    0    0  502  503 -0.00000000000E+00 -0.00000000000E+00 -0.34339037064E+03  0.34339037064E+03  0.00000000000E+00 0. -1.
         -6    2    1    2    0  503  0.89081299041E+02 -0.89544950434E+01  0.26299386498E+02  0.19633615174E+03  0.17274422112E+03 0.  0.
        -24    2    3    3    0    0  0.92389335887E+02 -0.62927517906E+02  0.34606925123E+01  0.13744874861E+03  0.79903192721E+02 0.  0.
          6    2    1    2  501    0 -0.89081299041E+02  0.89544950434E+01 -0.22156886443E+03  0.29517511160E+03  0.17326258685E+03 0.  0.
         24    2    5    5    0    0  0.19883332233E+02 -0.10957049768E+02 -0.11608087856E+03  0.14214058723E+03  0.78827484618E+02 0.  0.
          5    1    5    5  501    0 -0.10896463127E+03  0.19911544812E+02 -0.10548798587E+03  0.15303452437E+03  0.47000000000E+01 0. -1.
        -11    1    6    6    0    0 -0.20764273631E+02  0.16620770187E+02 -0.17038252927E+02  0.31586502241E+02  0.00000000000E+00 0.  1.
         12    1    6    6    0    0  0.40647605864E+02 -0.27577819955E+02 -0.99042625635E+02  0.11055408499E+03  0.00000000000E+00 0. -1.
         -5    1    3    3    0  503 -0.33080368457E+01  0.53973022862E+02  0.22838693986E+02  0.58887403132E+02  0.47000000000E+01 0.  1.
         13    1    4    4    0    0 -0.38749395309E+01 -0.20613535193E+01  0.21669776935E+02  0.22109807034E+02  0.00000000000E+00 0. -1.
        -14    1    4    4    0    0  0.96264275418E+02 -0.60866164386E+02 -0.18209084422E+02  0.11533894158E+03  0.00000000000E+00 0.  1.
</event>
<event>
12    1  0.1066489E+000  0.1782424E+03  0.7818608E-02  0.1169780E+00
         21   -1    0    0  501  502  0.00000000000E+00  0.00000000000E+00  0.13564735853E+03  0.13564735853E+03  0.00000000000E+00 0.  1.
         21   -1    0    0  502  503 -0.00000000000E+00 -0.00000000000E+00 -0.23402619016E+03  0.23402619016E+03  0.00000000000E+00 0.  1.
         -6    2    1    2    0  503 -0.20908856255E+02 -0.39018165705E+02 -0.62721898809E+02  0.18895605004E+03  0.17265791245E+03 0.  0.
        -24    2    3    3    0    0 -0.46641040253E+02  0.31415262846E+02 -0.11917847805E+02  0.98257898189E+02  0.79688606994E+02 0.  0.
          6    2    1    2  501    0  0.20908856255E+02  0.39018165705E+02 -0.35656932814E+02  0.18071749865E+03  0.17154532910E+03 0.  0.
         24    2    5    5    0    0 -0.25842676641E+02 -0.21443871150E+02 -0.54572357535E+02  0.10184261658E+03  0.79158655868E+02 0.  0.
          5    1    5    5  501    0  0.46751532897E+02  0.60462036855E+02  0.18915424721E+02  0.78874882068E+02  0.47000000000E+01 0. -1.
        -13    1    6    6    0    0  0.27485522959E+02 -0.70882484479E+01 -0.77109554430E+01  0.29413535528E+02  0.00000000000E+00 0.  1.
         14    1    6    6    0    0 -0.53328199601E+02 -0.14355622702E+02 -0.46861402092E+02  0.72429081051E+02  0.00000000000E+00 0. -1.
         -5    1    3    3    0  503  0.25732183998E+02 -0.70433428551E+02 -0.50804051004E+02  0.90698151851E+02  0.47000000000E+01 0.  1.
         13    1    4    4    0    0  0.17463477118E+02 -0.10306737472E+02 -0.75814666709E+01  0.21649030169E+02  0.00000000000E+00 0. -1.
        -14    1    4    4    0    0 -0.64104517371E+02  0.41722000318E+02 -0.43363811341E+01  0.76608868020E+02  0.00000000000E+00 0.  1.
</event>
<event>
12    1  0.1066489E+000  0.2141624E+03  0.7818608E-02  0.1138687E+00
         21   -1    0    0  503  502  0.00000000000E+00  0.00000000000E+00  0.72651627007E+02  0.72651627007E+02  0.00000000000E+00 0.  1.
         21   -1    0    0  501  503 -0.00000000000E+00 -0.00000000000E+00 -0.68940916781E+03  0.68940916781E+03  0.00000000000E+00 0.  1.
          6    2    1    2  501    0  0.12470513091E+03  0.21614386957E+02 -0.19119660760E+03  0.28564960318E+03  0.17035551544E+03 0.  0.
         24    2    3    3    0    0  0.10994900036E+03  0.34506154582E+02 -0.56239138133E+02  0.14919613263E+03  0.76270491984E+02 0.  0.
         -6    2    1    2    0  502 -0.12470513091E+03 -0.21614386957E+02 -0.42556093320E+03  0.47641119163E+03  0.17276273976E+03 0.  0.
        -24    2    5    5    0    0 -0.87678620390E+02 -0.73745129818E+02 -0.35888338228E+03  0.38390950176E+03  0.73914401973E+02 0.  0.
          5    1    3    3  501    0  0.14756130549E+02 -0.12891767625E+02 -0.13495746947E+03  0.13645347056E+03  0.47000000000E+01 0. -1.
        -13    1    4    4    0    0  0.37682813382E+02  0.45894654869E+02 -0.46438222410E+02  0.75384496221E+02  0.00000000000E+00 0.  1.
         14    1    4    4    0    0  0.72266186983E+02 -0.11388500287E+02 -0.98009157237E+01  0.73811636405E+02  0.00000000000E+00 0. -1.
         -5    1    5    5    0  502 -0.37026510524E+02  0.52130742861E+02 -0.66677550917E+02  0.92501689872E+02  0.47000000000E+01 0.  1.
         13    1    6    6    0    0 -0.97233338488E+02 -0.71197445471E+02 -0.28593241607E+03  0.31029138711E+03  0.00000000000E+00 0. -1.
        -14    1    6    6    0    0  0.95547180987E+01 -0.25476843467E+01 -0.72950966212E+02  0.73618114651E+02  0.00000000000E+00 0.  1.
</event>
<event>
12    1  0.1066489E+000  0.2012821E+03  0.7818608E-02  0.1149169E+00
         21   -1    0    0  501  502  0.00000000000E+00  0.00000000000E+00  0.43516990266E+03  0.43516990266E+03  0.00000000000E+00 0.  1.
         21   -1    0    0  502  503 -0.00000000000E+00 -0.00000000000E+00 -0.92255073388E+02  0.92255073388E+02  0.00000000000E+00 0.  1.
         -6    2    1    2    0  503  0.27475984314E+02  0.98430823413E+02  0.15630591362E+03  0.25294845191E+03  0.17061015205E+03 0.  0.
        -24    2    3    3    0    0  0.84743600484E+01  0.13241155405E+03  0.14556198764E+03  0.21228798309E+03  0.79203920953E+02 0.  0.
          6    2    1    2  501    0 -0.27475984314E+02 -0.98430823413E+02  0.18660891566E+03  0.27447652414E+03  0.17340968308E+03 0.  0.
         24    2    5    5    0    0  0.30904666920E+02 -0.10888879756E+03  0.14589134210E+03  0.20238158355E+03  0.82838113147E+02 0.  0.
          5    1    5    5  501    0 -0.58380651234E+02  0.10457974143E+02  0.40717573555E+02  0.72094940585E+02  0.47000000000E+01 0. -1.
        -13    1    6    6    0    0  0.52932511495E+02 -0.38979127207E+02  0.82400475432E+02  0.10540901993E+03  0.00000000000E+00 0.  1.
         14    1    6    6    0    0 -0.22027844575E+02 -0.69909670349E+02  0.63490866671E+02  0.96972563623E+02  0.00000000000E+00 0. -1.
         -5    1    3    3    0  503  0.19001624266E+02 -0.33980730640E+02  0.10743925981E+02  0.40660468825E+02  0.47000000000E+01 0.  1.
         13    1    4    4    0    0 -0.80398492528E+01  0.89311415443E+02  0.42235278899E+02  0.99121071867E+02  0.00000000000E+00 0. -1.
        -14    1    4    4    0    0  0.16514209301E+02  0.43100138611E+02  0.10332670874E+03  0.11316691122E+03  0.00000000000E+00 0.  1.
</event>
<event>
12    1  0.1066489E+000  0.2126815E+03  0.7818608E-02  0.1139605E+00
         21   -1    0    0  501  502  0.00000000000E+00  0.00000000000E+00  0.17214377047E+04  0.17214377047E+04  0.00000000000E+00 0.  1.
         21   -1    0    0  502  503 -0.00000000000E+00 -0.00000000000E+00 -0.59571236614E+02  0.59571236614E+02  0.00000000000E+00 0.  1.
         -6    2    1    2    0  503 -0.92369975601E+02  0.83030161964E+02  0.14969515567E+04  0.15118800511E+04  0.17172974626E+03 0.  0.
        -24    2    3    3    0    0 -0.51426886556E+02  0.12055865922E+03  0.11799261681E+04  0.11899920090E+04  0.81707431609E+02 0.  0.
          6    2    1    2  501    0  0.92369975601E+02 -0.83030161964E+02  0.16491491142E+03  0.26912889021E+03  0.17264765086E+03 0.  0.
         24    2    5    5    0    0  0.94741688606E+01 -0.83385434730E+02  0.14183749578E+03  0.18295175805E+03  0.79439158890E+02 0.  0.
          5    1    5    5  501    0  0.82895806740E+02  0.35527276553E+00  0.23077415646E+02  0.86177132157E+02  0.47000000000E+01 0. -1.
        -13    1    6    6    0    0 -0.27683229886E+02 -0.16211664947E+02  0.73416843353E+02  0.80119986178E+02  0.00000000000E+00 0.  1.
         14    1    6    6    0    0  0.37157398747E+02 -0.67173769783E+02  0.68420652425E+02  0.10283177187E+03  0.00000000000E+00 0. -1.
         -5    1    3    3    0  503 -0.40943089045E+02 -0.37528497259E+02  0.31702538853E+03  0.32188804206E+03  0.47000000000E+01 0.  1.
         13    1    4    4    0    0 -0.34625525308E+02  0.23632142703E+02  0.62574083876E+03  0.62714352620E+03  0.00000000000E+00 0. -1.
        -14    1    4    4    0    0 -0.16801361248E+02  0.96926516521E+02  0.55418532937E+03  0.56284848284E+03  0.00000000000E+00 0.  1.
</event>
<event>
12    1  0.1066489E+000  0.2615720E+03  0.7818608E-02  0.1106510E+00
         21   -1    0    0  501  502  0.00000000000E+00  0.00000000000E+00  0.18795547499E+03  0.18795547499E+03  0.00000000000E+00 0. -1.
         21   -1    0    0  502  503 -0.00000000000E+00 -0.00000000000E+00 -0.37875109194E+03  0.37875109194E+03  0.00000000000E+00 0. -1.
         -6    2    1    2    0  503  0.19668319875E+03 -0.15862968726E+02 -0.34702245951E+02  0.26386392417E+03  0.17170908583E+03 0.  0.
        -24    2    3    3    0    0  0.18535881347E+03  0.37914868719E+02 -0.17863695127E+02  0.20619309709E+03  0.80006591503E+02 0.  0.
          6    2    1    2  501    0 -0.19668319875E+03  0.15862968726E+02 -0.15609337100E+03  0.30284264275E+03  0.16856040861E+03 0.  0.
         24    2    5    5    0    0 -0.15387508046E+03  0.26638245768E+02 -0.41613054632E+02  0.18005634701E+03  0.79382020994E+02 0.  0.
          5    1    5    5  501    0 -0.42808118288E+02 -0.10775277042E+02 -0.11448031637E+03  0.12278629574E+03  0.47000000000E+01 0. -1.
        -13    1    6    6    0    0 -0.12129364327E+03 -0.68122146590E+01 -0.52119987345E+02  0.13219321937E+03  0.00000000000E+00 0.  1.
         14    1    6    6    0    0 -0.32581437191E+02  0.33450460427E+02  0.10506932713E+02  0.47863127638E+02  0.00000000000E+00 0. -1.
         -5    1    3    3    0  503  0.11324385281E+02 -0.53777837446E+02 -0.16838550824E+02  0.57670827081E+02  0.47000000000E+01 0.  1.
         11    1    4    4    0    0  0.18076021388E+03  0.14348286786E+02 -0.13943145426E+02  0.18186406891E+03  0.00000000000E+00 0. -1.
        -12    1    4    4    0    0  0.45985995852E+01  0.23566581934E+02 -0.39205497007E+01  0.24329028179E+02  0.00000000000E+00 0.  1.
</event>
<event>
12    1  0.1066489E+000  0.1757341E+03  0.7818608E-02  0.1173160E+00
         21   -1    0    0  501  502  0.00000000000E+00  0.00000000000E+00  0.10038417693E+03  0.10038417693E+03  0.00000000000E+00 0.  1.
         21   -1    0    0  502  503 -0.00000000000E+00 -0.00000000000E+00 -0.30527484485E+03  0.30527484485E+03  0.00000000000E+00 0.  1.
         -6    2    1    2    0  503 -0.51985928466E+01  0.26501357053E+02 -0.76257053575E+02  0.19156622351E+03  0.17364657347E+03 0.  0.
        -24    2    3    3    0    0  0.62144658759E+01 -0.56280993794E+02 -0.17549444696E+02  0.89331939334E+02  0.66828455971E+02 0.  0.
          6    2    1    2  501    0  0.51985928466E+01 -0.26501357053E+02 -0.12863361435E+03  0.21409279827E+03  0.16899636752E+03 0.  0.
         24    2    5    5    0    0 -0.33040690840E+02 -0.70713142623E+02 -0.75482049957E+02  0.13494670805E+03  0.80131381840E+02 0.  0.
          5    1    5    5  501    0  0.38239283686E+02  0.44211785570E+02 -0.53151564392E+02  0.79146090222E+02  0.47000000000E+01 0. -1.
        -13    1    6    6    0    0 -0.85770930452E+01  0.12253976972E+02 -0.37695824235E+02  0.40554921298E+02  0.00000000000E+00 0.  1.
         14    1    6    6    0    0 -0.24463597795E+02 -0.82967119595E+02 -0.37786225723E+02  0.94391786748E+02  0.00000000000E+00 0. -1.
         -5    1    3    3    0  503 -0.11413058722E+02  0.82782350847E+02 -0.58707608879E+02  0.10223428418E+03  0.47000000000E+01 0.  1.
         11    1    4    4    0    0  0.14849848748E+02 -0.37750639466E+02 -0.41370621748E+02  0.57940979727E+02  0.00000000000E+00 0. -1.
        -12    1    4    4    0    0 -0.86353828722E+01 -0.18530354328E+02  0.23821177052E+02  0.31390959607E+02  0.00000000000E+00 0.  1.
</event>
<event>
12    1  0.1066489E+000  0.1859997E+03  0.7818608E-02  0.1162431E+00
         21   -1    0    0  501  502  0.00000000000E+00  0.00000000000E+00  0.57677053559E+03  0.57677053559E+03  0.00000000000E+00 0.  1.
         21   -1    0    0  502  503 -0.00000000000E+00 -0.00000000000E+00 -0.67830495817E+02  0.67830495817E+02  0.00000000000E+00 0.  1.
         -6    2    1    2    0  503  0.38707588775E+01  0.67883142041E+02  0.36626650497E+03  0.41018339381E+03  0.17168622585E+03 0.  0.
        -24    2    3    3    0    0 -0.23950461025E+01  0.58049866272E+02  0.37939624984E+03  0.39200555497E+03  0.79695153686E+02 0.  0.
          6    2    1    2  501    0 -0.38707588775E+01 -0.67883142041E+02  0.14267353481E+03  0.23441763760E+03  0.17312650732E+03 0.  0.
         24    2    5    5    0    0 -0.18354771794E+02  0.71964003474E+01  0.13441298875E+03  0.15736537653E+03  0.79424960563E+02 0.  0.
          5    1    5    5  501    0  0.14484012917E+02 -0.75079542388E+02  0.82605460617E+01  0.77052261074E+02  0.47000000000E+01 0. -1.
        -11    1    6    6    0    0 -0.31647422589E+02 -0.86165028306E+01  0.13263604887E+03  0.13663134683E+03  0.00000000000E+00 0.  1.
         12    1    6    6    0    0  0.13292650794E+02  0.15812903178E+02  0.17769398760E+01  0.20734029695E+02  0.00000000000E+00 0. -1.
         -5    1    3    3    0  503  0.62658049800E+01  0.98332757693E+01 -0.13129744868E+02  0.18177838834E+02  0.47000000000E+01 0.  1.
         13    1    4    4    0    0 -0.21240778305E+02  0.60149153305E+01  0.25158912775E+02  0.33471193009E+02  0.00000000000E+00 0. -1.
        -14    1    4    4    0    0  0.18845732202E+02  0.52034950941E+02  0.35423733706E+03  0.35853436196E+03  0.00000000000E+00 0.  1.
</event>
<event>
12    1  0.1066489E+000  0.4749324E+03  0.7818608E-02  0.1020539E+00
         21   -1    0    0  503  502  0.00000000000E+00  0.00000000000E+00  0.35134311991E+03  0.35134311991E+03  0.00000000000E+00 0. -1.
         21   -1    0    0  501  503 -0.00000000000E+00 -0.00000000000E+00 -0.75880709602E+03  0.75880709602E+03  0.00000000000E+00 0.  1.
          6    2    1    2  501    0 -0.27059971688E+03  0.35086390305E+03 -0.42156158142E+03  0.63503932677E+03  0.17097103374E+03 0.  0.
         24    2    3    3    0    0 -0.65257316639E+02  0.16242258710E+03 -0.21093530863E+03  0.28566682115E+03  0.80450072127E+02 0.  0.
         -6    2    1    2    0  502  0.27059971688E+03 -0.35086390305E+03  0.14097605310E+02  0.47511088916E+03  0.17088571996E+03 0.  0.
        -24    2    5    5    0    0  0.20021751425E+03 -0.30178536781E+03 -0.40919595810E+02  0.37307491762E+03  0.79680735459E+02 0.  0.
          5    1    3    3  501    0 -0.20534240024E+03  0.18844131595E+03 -0.21062627280E+03  0.34937250562E+03  0.47000000000E+01 0. -1.
        -11    1    4    4    0    0 -0.75044836817E+02  0.10212454733E+03 -0.17037108213E+03  0.21233807083E+03  0.00000000000E+00 0.  1.
         12    1    4    4    0    0  0.97875201776E+01  0.60298039772E+02 -0.40564226499E+02  0.73328750317E+02  0.00000000000E+00 0. -1.
         -5    1    5    5    0  502  0.70382202628E+02 -0.49078535243E+02  0.55017201120E+02  0.10203597154E+03  0.47000000000E+01 0.  1.
         11    1    6    6    0    0  0.64713587814E+02 -0.69368925699E+02 -0.42703726347E+02  0.10403607328E+03  0.00000000000E+00 0. -1.
        -12    1    6    6    0    0  0.13550392644E+03 -0.23241644211E+03  0.17841305366E+01  0.26903884434E+03  0.00000000000E+00 0.  1.
</event>
<event>
12    1  0.1066489E+000  0.2778732E+03  0.7818608E-02  0.1096894E+00
         21   -1    0    0  501  502  0.00000000000E+00  0.00000000000E+00  0.87994040399E+02  0.87994040399E+02  0.00000000000E+00 0.  1.
         21   -1    0    0  502  503 -0.00000000000E+00 -0.00000000000E+00 -0.11164808335E+04  0.11164808335E+04  0.00000000000E+00 0.  1.
         -6    2    1    2    0  503  0.91463167709E+02  0.19823407053E+03 -0.23530587132E+03  0.36411865074E+03  0.17190486023E+03 0.  0.
        -24    2    3    3    0    0  0.67697764141E+02  0.17390610607E+03 -0.25423510239E+03  0.32491342085E+03  0.78146802672E+02 0.  0.
          6    2    1    2  501    0 -0.91463167709E+02 -0.19823407053E+03 -0.79318092178E+03  0.84035622316E+03  0.17146530074E+03 0.  0.
         24    2    5    5    0    0  0.11597854942E+02 -0.12993432542E+03 -0.43644941566E+03  0.46277724198E+03  0.81591936482E+02 0.  0.
          5    1    5    5  501    0 -0.10306102265E+03 -0.68299745112E+02 -0.35673150612E+03  0.37757898118E+03  0.47000000000E+01 0. -1.
        -11    1    6    6    0    0  0.42811359816E+01 -0.88238063314E+02 -0.15707205341E+03  0.18021074859E+03  0.00000000000E+00 0.  1.
         12    1    6    6    0    0  0.73167189599E+01 -0.41696262105E+02 -0.27937736225E+03  0.28256649339E+03  0.00000000000E+00 0. -1.
         -5    1    3    3    0  503  0.23765403569E+02  0.24327964461E+02  0.18929231066E+02  0.39205229885E+02  0.47000000000E+01 0.  1.
         13    1    4    4    0    0  0.51898206763E+02  0.55518896796E+02 -0.14179227924E+03  0.16087517589E+03  0.00000000000E+00 0. -1.
        -14    1    4    4    0    0  0.15799557378E+02  0.11838720927E+03 -0.11244282315E+03  0.16403824496E+03  0.00000000000E+00 0.  1.
</event>
<event>
12    1  0.1066489E+000  0.3353569E+03  0.7818608E-02  0.1068895E+00
         21   -1    0    0  501  502  0.00000000000E+00  0.00000000000E+00  0.15337962034E+03  0.15337962034E+03  0.00000000000E+00 0.  1.
         21   -1    0    0  502  503 -0.00000000000E+00 -0.00000000000E+00 -0.77120700126E+03  0.77120700126E+03  0.00000000000E+00 0.  1.
         -6    2    1    2    0  503  0.27763059452E+03 -0.73860747800E+02 -0.20396941438E+03  0.39251470468E+03  0.17300322051E+03 0.  0.
        -24    2    3    3    0    0  0.13781187382E+03 -0.10087739715E+03 -0.83278690631E+02  0.20578625265E+03  0.79020754499E+02 0.  0.
          6    2    1    2  501    0 -0.27763059452E+03  0.73860747800E+02 -0.41385796654E+03  0.53207191692E+03  0.17113722920E+03 0.  0.
         24    2    5    5    0    0 -0.12473966981E+03  0.94193344340E+02 -0.17624532672E+03  0.24875071061E+03  0.79888231263E+02 0.  0.
          5    1    5    5  501    0 -0.15289092472E+03 -0.20332596540E+02 -0.23761263982E+03  0.28332120631E+03  0.47000000000E+01 0. -1.
        -13    1    6    6    0    0 -0.17603524485E+02 -0.13598538289E+02 -0.33735005631E+02  0.40408599614E+02  0.00000000000E+00 0.  1.
         14    1    6    6    0    0 -0.10713614532E+03  0.10779188263E+03 -0.14251032109E+03  0.20834211099E+03  0.00000000000E+00 0. -1.
         -5    1    3    3    0  503  0.13981872070E+03  0.27016649354E+02 -0.12069072375E+03  0.18672845204E+03  0.47000000000E+01 0.  1.
         11    1    4    4    0    0  0.60055628979E+02 -0.54711455851E+02 -0.81883378919E+02  0.11534691030E+03  0.00000000000E+00 0. -1.
        -12    1    4    4    0    0  0.77756244843E+02 -0.46165941303E+02 -0.13953117128E+01  0.90439342342E+02  0.00000000000E+00 0.  1.
</event>
<event>
12    1  0.1066489E+000  0.1870116E+03  0.7818608E-02  0.1161749E+00
         21   -1    0    0  501  502  0.00000000000E+00  0.00000000000E+00  0.82093929980E+03  0.82093929980E+03  0.00000000000E+00 0. -1.
         21   -1    0    0  502  503 -0.00000000000E+00 -0.00000000000E+00 -0.47315053682E+02  0.47315053682E+02  0.00000000000E+00 0. -1.
         -6    2    1    2    0  503  0.67515105719E+02  0.31981997279E+02  0.52939425334E+03  0.56064806141E+03  0.16878043618E+03 0.  0.
        -24    2    3    3    0    0  0.80822303461E+02 -0.30435571258E+02  0.38721866737E+03  0.40473455455E+03  0.80082423496E+02 0.  0.
          6    2    1    2  501    0 -0.67515105719E+02 -0.31981997279E+02  0.24422999277E+03  0.30760629207E+03  0.17144154660E+03 0.  0.
         24    2    5    5    0    0  0.28655444601E+02 -0.14475033850E+02  0.14670991757E+03  0.16944868792E+03  0.78475453574E+02 0.  0.
          5    1    5    5  501    0 -0.96170550320E+02 -0.17506963430E+02  0.97520075195E+02  0.13815760415E+03  0.47000000000E+01 0. -1.
        -13    1    6    6    0    0 -0.82880085170E+01 -0.34306859931E+02  0.33251711246E+02  0.48490494164E+02  0.00000000000E+00 0.  1.
         14    1    6    6    0    0  0.36943453118E+02  0.19831826081E+02  0.11345820633E+03  0.12095819376E+03  0.00000000000E+00 0. -1.
         -5    1    3    3    0  503 -0.13307197742E+02  0.62417568537E+02  0.14217558598E+03  0.15591350686E+03  0.47000000000E+01 0.  1.
         13    1    4    4    0    0  0.18212120111E+02 -0.47853251200E+02  0.20415435539E+03  0.21047711465E+03  0.00000000000E+00 0. -1.
        -14    1    4    4    0    0  0.62610183350E+02  0.17417679941E+02  0.18306431198E+03  0.19425743989E+03  0.00000000000E+00 0.  1.
</event>
<event>
12    1  0.1066489E+000  0.3078753E+03  0.7818608E-02  0.1081571E+00
         21   -1    0    0  501  502  0.00000000000E+00  0.00000000000E+00  0.11583630056E+03  0.11583630056E+03  0.00000000000E+00 0. -1.
         21   -1    0    0  502  503 -0.00000000000E+00 -0.00000000000E+00 -0.20117070941E+04  0.20117070941E+04  0.00000000000E+00 0.  1.
         -6    2    1    2    0  503  0.11893721337E+03 -0.22345387016E+03 -0.17698328574E+04  0.17964118580E+04  0.17524134082E+03 0.  0.
        -24    2    3    3    0    0  0.14114098035E+02 -0.82705901835E+02 -0.43863846724E+03  0.45369130981E+03  0.79953897251E+02 0.  0.
          6    2    1    2  501    0 -0.11893721337E+03  0.22345387016E+03 -0.12603793607E+03  0.33113153661E+03  0.17229289131E+03 0.  0.
         24    2    5    5    0    0 -0.12410087644E+02  0.13577562061E+03 -0.25417713223E+02  0.16030407042E+03  0.80388465719E+02 0.  0.
          5    1    5    5  501    0 -0.10652712572E+03  0.87678249553E+02 -0.10062022285E+03  0.17082746619E+03  0.47000000000E+01 0. -1.
        -11    1    6    6    0    0  0.19867965257E+02  0.35915329583E+01 -0.12213893970E+02  0.23596914170E+02  0.00000000000E+00 0.  1.
         12    1    6    6    0    0 -0.32278052901E+02  0.13218408765E+03 -0.13203819253E+02  0.13670715625E+03  0.00000000000E+00 0. -1.
         -5    1    3    3    0  503  0.10482311533E+03 -0.14074796832E+03 -0.13311943902E+04  0.13427205482E+04  0.47000000000E+01 0.  1.
         11    1    4    4    0    0  0.31106068660E+02 -0.72245748522E+02 -0.41660549178E+03  0.42396600273E+03  0.00000000000E+00 0. -1.
        -12    1    4    4    0    0 -0.16991970626E+02 -0.10460153313E+02 -0.22032975459E+02  0.29725307074E+02  0.00000000000E+00 0.  1.
</event>
<event>
12    1  0.1066489E+000  0.1781497E+03  0.7818608E-02  0.1169620E+00
         21   -1    0    0  503  502  0.00000000000E+00  0.00000000000E+00  0.16191545166E+02  0.16191545166E+02  0.00000000000E+00 0. -1.
         21   -1    0    0  501  503 -0.00000000000E+00 -0.00000000000E+00 -0.22412353623E+04  0.22412353623E+04  0.00000000000E+00 0. -1.
          6    2    1    2  501    0 -0.76301648707E+01  0.47786284512E+02 -0.71218070918E+03  0.73411075610E+03  0.17139279829E+03 0.  0.
         24    2    3    3    0    0  0.16186233756E+01  0.67089378153E+02 -0.70358806339E+03  0.71057199934E+03  0.73299377284E+02 0.  0.
         -6    2    1    2    0  502  0.76301648707E+01 -0.47786284512E+02 -0.15128631080E+04  0.15233161514E+04  0.17145134928E+03 0.  0.
        -24    2    5    5    0    0 -0.57910010781E+01 -0.96408486262E+02 -0.94785560327E+03  0.95604212891E+03  0.79108632110E+02 0.  0.
          5    1    3    3  501    0 -0.92487882464E+01 -0.19303093641E+02 -0.85926457885E+01  0.23538756760E+02  0.47000000000E+01 0. -1.
        -11    1    4    4    0    0 -0.15377701381E+02 -0.83374547536E+01 -0.23479294765E+03  0.23544365593E+03  0.00000000000E+00 0.  1.
         12    1    4    4    0    0  0.16996324757E+02  0.75426832907E+02 -0.46879511574E+03  0.47512834342E+03  0.00000000000E+00 0. -1.
         -5    1    5    5    0  502  0.13421165949E+02  0.48622201750E+02 -0.56500750473E+03  0.56727402250E+03  0.47000000000E+01 0.  1.
         13    1    6    6    0    0  0.35680062486E+02 -0.59235898490E+02 -0.52688908121E+03  0.53140762361E+03  0.00000000000E+00 0. -1.
        -14    1    6    6    0    0 -0.41471063564E+02 -0.37172587772E+02 -0.42096652206E+03  0.42463450530E+03  0.00000000000E+00 0.  1.
</event>
<event>
12    1  0.1066489E+000  0.2426496E+03  0.7818608E-02  0.1118385E+00
         21   -1    0    0  501  502  0.00000000000E+00  0.00000000000E+00  0.25912827629E+03  0.25912827629E+03  0.00000000000E+00 0.  1.
         21   -1    0    0  502  503 -0.00000000000E+00 -0.00000000000E+00 -0.23890099838E+03  0.23890099838E+03  0.00000000000E+00 0.  1.
         -6    2    1    2    0  503 -0.16449500702E+03  0.33836114047E+02  0.69647282521E+02  0.25244714851E+03  0.17514373777E+03 0.  0.
        -24    2    3    3    0    0 -0.34099600672E+02  0.60013847410E+02  0.51496681402E+02  0.11813493745E+03  0.80867240607E+02 0.  0.
          6    2    1    2  501    0  0.16449500702E+03 -0.33836114047E+02 -0.49420004606E+02  0.24558212616E+03  0.17223458970E+03 0.  0.
         24    2    5    5    0    0  0.14170058817E+03 -0.17912132777E+01 -0.92695876120E+02  0.18691908626E+03  0.79145146560E+02 0.  0.
          5    1    5    5  501    0  0.22794418845E+02 -0.32044900769E+02  0.43275871514E+02  0.58663039907E+02  0.47000000000E+01 0. -1.
        -13    1    6    6    0    0  0.84474755362E+01 -0.23224128003E+02 -0.30646370368E+01  0.24902047398E+02  0.00000000000E+00 0.  1.
         14    1    6    6    0    0  0.13325311264E+03  0.21432914726E+02 -0.89631239083E+02  0.16201703886E+03  0.00000000000E+00 0. -1.
         -5    1    3    3    0  503 -0.13039540634E+03 -0.26177733362E+02  0.18150601119E+02  0.13431221106E+03  0.47000000000E+01 0.  1.
         11    1    4    4    0    0 -0.26070788862E+02 -0.55151747780E+01 -0.94610882355E+01  0.28277471162E+02  0.00000000000E+00 0. -1.
        -12    1    4    4    0    0 -0.80288118098E+01  0.65529022188E+02  0.60957769638E+02  0.89857466285E+02  0.00000000000E+00 0.  1.
</event>
<event>
12    1  0.1066489E+000  0.2437426E+03  0.7818608E-02  0.1117411E+00
         21   -1    0    0  503  502  0.00000000000E+00  0.00000000000E+00  0.46471889636E+02  0.46471889636E+02  0.00000000000E+00 0. -1.
         21   -1    0    0  501  503 -0.00000000000E+00 -0.00000000000E+00 -0.13422199109E+04  0.13422199109E+04  0.00000000000E+00 0. -1.
          6    2    1    2  501    0 -0.16288139086E+03 -0.56467420104E+02 -0.80319264233E+03  0.83936218205E+03  0.17231231804E+03 0.  0.
         24    2    3    3    0    0 -0.48337479214E+02 -0.49267850109E+02 -0.20227354453E+03  0.22756320069E+03  0.78144676969E+02 0.  0.
         -6    2    1    2    0  502  0.16288139086E+03  0.56467420104E+02 -0.49255537893E+03  0.54932961848E+03  0.17156139251E+03 0.  0.
        -24    2    5    5    0    0  0.10656730824E+03 -0.10567011331E+02 -0.40011010721E+03  0.42192039917E+03  0.80377064122E+02 0.  0.
          5    1    3    3  501    0 -0.11454391165E+03 -0.71995699943E+01 -0.60091909779E+03  0.61179898136E+03  0.47000000000E+01 0. -1.
        -13    1    4    4    0    0  0.20289427340E+02 -0.26542774253E+01 -0.52524662542E+02  0.56369727919E+02  0.00000000000E+00 0.  1.
         14    1    4    4    0    0 -0.68626906554E+02 -0.46613572684E+02 -0.14974888199E+03  0.17119347277E+03  0.00000000000E+00 0. -1.
         -5    1    5    5    0  502  0.56314082623E+02  0.67034431435E+02 -0.92445271728E+02  0.12740921931E+03  0.47000000000E+01 0.  1.
         11    1    6    6    0    0  0.89696086444E+02 -0.38017788830E+02 -0.24827938272E+03  0.26670844020E+03  0.00000000000E+00 0. -1.
        -12    1    6    6    0    0  0.16871221797E+02  0.27450777499E+02 -0.15183072449E+03  0.15521195897E+03  0.00000000000E+00 0.  1.
</event>
<event>
12    1  0.1066489E+000  0.2837235E+03  0.7818608E-02  0.1093683E+00
         21   -1    0    0  501  502  0.00000000000E+00  0.00000000000E+00  0.59527890296E+03  0.59527890296E+03  0.00000000000E+00 0.  1.
         21   -1    0    0  502  503 -0.00000000000E+00 -0.00000000000E+00 -0.13900486031E+03  0.13900486031E+03  0.00000000000E+00 0. -1.
         -6    2    1    2    0  503  0.10131974386E+03  0.20154269189E+03  0.16735143721E+03  0.32940180507E+03  0.17208689228E+03 0.  0.
        -24    2    3    3    0    0  0.49305015341E+02  0.13670551292E+03  0.28865462768E+02  0.16781638841E+03  0.78801925593E+02 0.  0.
          6    2    1    2  501    0 -0.10131974386E+03 -0.20154269189E+03  0.28892260545E+03  0.40488195821E+03  0.17195342680E+03 0.  0.
         24    2    5    5    0    0 -0.11763249495E+03 -0.10144807649E+03  0.13906751811E+03  0.22387456862E+03  0.81553245134E+02 0.  0.
          5    1    5    5  501    0  0.16312751093E+02 -0.10009461541E+03  0.14985508734E+03  0.18100738958E+03  0.47000000000E+01 0. -1.
        -11    1    6    6    0    0 -0.10014194563E+02 -0.33529569876E+02 -0.50404301656E+00  0.34996717105E+02  0.00000000000E+00 0.  1.
         12    1    6    6    0    0 -0.10761830039E+03 -0.67918506609E+02  0.13957156113E+03  0.18887785152E+03  0.00000000000E+00 0. -1.
         -5    1    3    3    0  503  0.52014728516E+02  0.64837178972E+02  0.13848597444E+03  0.16158541666E+03  0.47000000000E+01 0.  1.
         13    1    4    4    0    0  0.52097145053E+01  0.12418873630E+02  0.33242298885E+02  0.35866697403E+02  0.00000000000E+00 0. -1.
        -14    1    4    4    0    0  0.44095300836E+02  0.12428663929E+03 -0.43768361170E+01  0.13194969101E+03  0.00000000000E+00 0.  1.
</event>
<event>
12    1  0.1066489E+000  0.2035175E+03  0.7818608E-02  0.1146897E+00
         21   -1    0    0  501  502  0.00000000000E+00  0.00000000000E+00  0.83596810090E+03  0.83596810090E+03  0.00000000000E+00 0. -1.
         21   -1    0    0  502  503 -0.00000000000E+00 -0.00000000000E+00 -0.11634908474E+03  0.11634908474E+03  0.00000000000E+00 0. -1.
         -6    2    1    2    0  503  0.10761123643E+03  0.13998459639E+02 -0.11159579803E+01  0.20352051491E+03  0.17217206379E+03 0.  0.
        -24    2    3    3    0    0  0.59942024250E+02 -0.17559643396E+02  0.61086427992E+02  0.11890671889E+03  0.80658965802E+02 0.  0.
          6    2    1    2  501    0 -0.10761123643E+03 -0.13998459639E+02  0.72073497414E+03  0.74879667072E+03  0.17164328144E+03 0.  0.
         24    2    5    5    0    0 -0.60053913436E+02  0.50611258135E+02  0.27304238527E+03  0.29394849965E+03  0.75402946383E+02 0.  0.
          5    1    5    5  501    0 -0.47557322990E+02 -0.64609717774E+02  0.44769258887E+03  0.45484817107E+03  0.47000000000E+01 0. -1.
        -13    1    6    6    0    0  0.77260846564E+01  0.18569993485E+02  0.14605604420E+02  0.24856804352E+02  0.00000000000E+00 0.  1.
         14    1    6    6    0    0 -0.67779998093E+02  0.32041264651E+02  0.25843678085E+03  0.26909169530E+03  0.00000000000E+00 0. -1.
         -5    1    3    3    0  503  0.47669212176E+02  0.31558103035E+02 -0.62202385972E+02  0.84613796022E+02  0.47000000000E+01 0.  1.
         11    1    4    4    0    0 -0.77472815399E+01 -0.30321268176E+02  0.90460792860E+01  0.32576544100E+02  0.00000000000E+00 0. -1.
        -12    1    4    4    0    0  0.67689305790E+02  0.12761624779E+02  0.52040348706E+02  0.86330174787E+02  0.00000000000E+00 0.  1.
</event>
<event>
12    1  0.1066489E+000  0.2396075E+03  0.7818608E-02  0.1120224E+00
         21   -1    0    0  501  502  0.00000000000E+00  0.00000000000E+00  0.25658365156E+03  0.25658365156E+03  0.00000000000E+00 0.  1.
         21   -1    0    0  502  503 -0.00000000000E+00 -0.00000000000E+00 -0.22628774904E+03  0.22628774904E+03  0.00000000000E+00 0.  1.
         -6    2    1    2    0  503 -0.14979880807E+03 -0.75366436111E+02  0.45100025416E+02  0.24381504482E+03  0.17114900291E+03 0.  0.
        -24    2    3    3    0    0 -0.93897039545E+02  0.22912739349E+02  0.37968932622E+02  0.13042745053E+03  0.78917883579E+02 0.  0.
          6    2    1    2  501    0  0.14979880807E+03  0.75366436111E+02 -0.14804122897E+02  0.23905635579E+03  0.16973213190E+03 0.  0.
         24    2    5    5    0    0  0.23734915769E+01  0.35018203008E+02  0.12297235660E+02  0.83754142372E+02  0.75044162700E+02 0.  0.
          5    1    5    5  501    0  0.14742531649E+03  0.40348233103E+02 -0.27101358557E+02  0.15530221342E+03  0.47000000000E+01 0. -1.
        -13    1    6    6    0    0  0.53912346603E+01  0.44931946648E+02 -0.20263722515E+02  0.49583905563E+02  0.00000000000E+00 0.  1.
         14    1    6    6    0    0 -0.30177430834E+01 -0.99137436405E+01  0.32560958175E+02  0.34170236808E+02  0.00000000000E+00 0. -1.
         -5    1    3    3    0  503 -0.55901768520E+02 -0.98279175460E+02  0.71310927935E+01  0.11338759428E+03  0.47000000000E+01 0.  1.
         13    1    4    4    0    0 -0.86140728640E+02 -0.25385458790E+01  0.51689484356E+02  0.10049115453E+03  0.00000000000E+00 0. -1.
        -14    1    4    4    0    0 -0.77563109055E+01  0.25451285227E+02 -0.13720551734E+02  0.29936296005E+02  0.00000000000E+00 0.  1.
</event>
<event>
12    1  0.1066489E+000  0.1891000E+03  0.7818608E-02  0.1160653E+00
         21   -1    0    0  503  502  0.00000000000E+00  0.00000000000E+00  0.22639122450E+03  0.22639122450E+03  0.00000000000E+00 0. -1.
         21   -1    0    0  501  503 -0.00000000000E+00 -0.00000000000E+00 -0.15838673197E+03  0.15838673197E+03  0.00000000000E+00 0. -1.
          6    2    1    2  501    0 -0.18909931986E+02 -0.72104713019E+02  0.69985634033E+02  0.20163534462E+03  0.17378765222E+03 0.  0.
         24    2    3    3    0    0 -0.41544868970E+02 -0.28944063783E+02  0.10457109806E+03  0.14169015018E+03  0.81100241313E+02 0.  0.
         -6    2    1    2    0  502  0.18909931986E+02  0.72104713019E+02 -0.19811414980E+01  0.18314261184E+03  0.16727407505E+03 0.  0.
        -24    2    5    5    0    0 -0.35597276978E+02 -0.14351185520E+02  0.10532324463E+02  0.80068196728E+02  0.69475633243E+02 0.  0.
          5    1    3    3  501    0  0.22634936984E+02 -0.43160649236E+02 -0.34585464032E+02  0.59945194445E+02  0.47000000000E+01 0. -1.
        -13    1    4    4    0    0 -0.93327982322E+01  0.73445677806E+01  0.90348470849E+02  0.91125682348E+02  0.00000000000E+00 0.  1.
         14    1    4    4    0    0 -0.32212070738E+02 -0.36288631564E+02  0.14222627216E+02  0.50564467830E+02  0.00000000000E+00 0. -1.
         -5    1    5    5    0  502  0.54507208964E+02  0.86455898539E+02 -0.12513465961E+02  0.10307441512E+03  0.47000000000E+01 0.  1.
         13    1    6    6    0    0 -0.47824686049E+02 -0.62669934258E+01  0.29161376371E+02  0.56363655614E+02  0.00000000000E+00 0. -1.
        -14    1    6    6    0    0  0.12227409071E+02 -0.80841920945E+01 -0.18629051908E+02  0.23704541114E+02  0.00000000000E+00 0.  1.
</event>
<event>
12    1  0.1066489E+000  0.4056042E+03  0.7818608E-02  0.1041866E+00
         21   -1    0    0  503  502  0.00000000000E+00  0.00000000000E+00  0.10130766459E+04  0.10130766459E+04  0.00000000000E+00 0.  1.
         21   -1    0    0  501  503 -0.00000000000E+00 -0.00000000000E+00 -0.17796004362E+03  0.17796004362E+03  0.00000000000E+00 0.  1.
          6    2    1    2  501    0  0.11855105405E+01 -0.36748020669E+03  0.24121594430E+03  0.47191091106E+03  0.17167314424E+03 0.  0.
         24    2    3    3    0    0  0.24017376412E+02 -0.32969959126E+03  0.25539189437E+03  0.42530923125E+03  0.79901612207E+02 0.  0.
         -6    2    1    2    0  502 -0.11855105405E+01  0.36748020669E+03  0.59390065800E+03  0.71912577848E+03  0.17140824354E+03 0.  0.
        -24    2    5    5    0    0 -0.57233124554E+02  0.17998424199E+03  0.35560454102E+03  0.41073770935E+03  0.81122859741E+02 0.  0.
          5    1    3    3  501    0 -0.22831865871E+02 -0.37780615423E+02 -0.14175950064E+02  0.46601679810E+02  0.47000000000E+01 0. -1.
        -11    1    4    4    0    0  0.21869512686E+02 -0.48476343358E+02  0.72211129897E+02  0.89680983110E+02  0.00000000000E+00 0.  1.
         12    1    4    4    0    0  0.21478637255E+01 -0.28122324791E+03  0.18318076447E+03  0.33562824814E+03  0.00000000000E+00 0. -1.
         -5    1    5    5    0  502  0.56047614013E+02  0.18749596470E+03  0.23829611698E+03  0.30838806913E+03  0.47000000000E+01 0.  1.
         13    1    6    6    0    0 -0.53843864977E+02  0.18710173173E+03  0.32254486049E+03  0.37675112056E+03  0.00000000000E+00 0. -1.
        -14    1    6    6    0    0 -0.33892595764E+01 -0.71174897401E+01  0.33059680532E+02  0.33986588790E+02  0.00000000000E+00 0.  1.
</event>
<event>
12    1  0.1066489E+000  0.1979964E+03  0.7818608E-02  0.1153349E+00
         21   -1    0    0  503  502  0.00000000000E+00  0.00000000000E+00  0.60524723992E+03  0.60524723992E+03  0.00000000000E+00 0. -1.
         21   -1    0    0  501  503 -0.00000000000E+00 -0.00000000000E+00 -0.13707926025E+03  0.13707926025E+03  0.00000000000E+00 0. -1.
          6    2    1    2  501    0  0.83707446656E+02  0.16925627887E+02  0.50644948971E+03  0.54066326114E+03  0.16891495735E+03 0.  0.
         24    2    3    3    0    0  0.10036247470E+03 -0.32070248740E+02  0.41269466021E+03  0.43347163861E+03  0.80496283991E+02 0.  0.
         -6    2    1    2    0  502 -0.83707446656E+02 -0.16925627887E+02 -0.38281510044E+02  0.20166323903E+03  0.17863139270E+03 0.  0.
        -24    2    5    5    0    0 -0.20738606329E+02  0.21313961651E+02  0.40662653522E+02  0.93581732649E+02  0.78865166838E+02 0.  0.
          5    1    3    3  501    0 -0.16655028042E+02  0.48995876627E+02  0.93754829501E+02  0.10719162253E+03  0.47000000000E+01 0. -1.
        -11    1    4    4    0    0  0.11189512537E+03 -0.16993381914E+02  0.34015299285E+03  0.35848759065E+03  0.00000000000E+00 0.  1.
         12    1    4    4    0    0 -0.11532650672E+02 -0.15076866825E+02  0.72541667362E+02  0.74984047960E+02  0.00000000000E+00 0. -1.
         -5    1    5    5    0  502 -0.62968840327E+02 -0.38239589538E+02 -0.78944163565E+02  0.10808150638E+03  0.47000000000E+01 0.  1.
         11    1    6    6    0    0 -0.45267358424E+01  0.78912810851E+01  0.62554884470E+02  0.63212951407E+02  0.00000000000E+00 0. -1.
        -12    1    6    6    0    0 -0.16211870487E+02  0.13422680565E+02 -0.21892230948E+02  0.30368781242E+02  0.00000000000E+00 0.  1.
</event>
<event>
12    1  0.1066489E+000  0.3015795E+03  0.7818608E-02  0.1085153E+00
         21   -1    0    0  503  502  0.00000000000E+00  0.00000000000E+00  0.19464755890E+03  0.19464755890E+03  0.00000000000E+00 0.  1.
         21   -1    0    0  501  503 -0.00000000000E+00 -0.00000000000E+00 -0.47161311484E+03  0.47161311484E+03  0.00000000000E+00 0.  1.
          6    2    1    2  501    0 -0.23586949154E+03  0.44056045229E+02 -0.82004870107E+02  0.30715088934E+03  0.17332489129E+03 0.  0.
         24    2    3    3    0    0 -0.93281378663E+02  0.60002354328E+02  0.67882085278E+01  0.13835528655E+03  0.82428195489E+02 0.  0.
         -6    2    1    2    0  502  0.23586949154E+03 -0.44056045229E+02 -0.19496068584E+03  0.35910978440E+03  0.18268775566E+03 0.  0.
        -24    2    5    5    0    0  0.24340768369E+03 -0.76718776098E+02 -0.17393279961E+03  0.31926081543E+03  0.80881261115E+02 0.  0.
          5    1    3    3  501    0 -0.14258811287E+03 -0.15946309098E+02 -0.88793078635E+02  0.16879560279E+03  0.47000000000E+01 0. -1.
        -11    1    4    4    0    0  0.12101096084E+02  0.22676435705E+02 -0.41022878811E+01  0.26028561785E+02  0.00000000000E+00 0.  1.
         12    1    4    4    0    0 -0.10538247475E+03  0.37325918623E+02  0.10890496409E+02  0.11232672477E+03  0.00000000000E+00 0. -1.
         -5    1    5    5    0  502 -0.75381921581E+01  0.32662730869E+02 -0.21027886227E+02  0.39848968970E+02  0.47000000000E+01 0.  1.
         13    1    6    6    0    0  0.94484089576E+02 -0.28294764740E+02 -0.11606593388E+03  0.15231263212E+03  0.00000000000E+00 0. -1.
        -14    1    6    6    0    0  0.14892359412E+03 -0.48424011358E+02 -0.57866865728E+02  0.16694818331E+03  0.00000000000E+00 0.  1.
</event>
<event>
12    1  0.1066489E+000  0.1950523E+03  0.7818608E-02  0.1154209E+00
         21   -1    0    0  501  502  0.00000000000E+00  0.00000000000E+00  0.34659933403E+02  0.34659933403E+02  0.00000000000E+00 0.  1.
         21   -1    0    0  502  503 -0.00000000000E+00 -0.00000000000E+00 -0.25033820280E+04  0.25033820280E+04  0.00000000000E+00 0.  1.
         -6    2    1    2    0  503 -0.52731209409E+02  0.73365655463E+02 -0.28001516641E+03  0.34066092724E+03  0.17169238213E+03 0.  0.
        -24    2    3    3    0    0 -0.91085850911E+02  0.23417553010E+02 -0.14102373556E+03  0.18799593677E+03  0.81300456502E+02 0.  0.
          6    2    1    2  501    0  0.52731209409E+02 -0.73365655463E+02 -0.21887069282E+04  0.21973810341E+04  0.17286495297E+03 0.  0.
         24    2    5    5    0    0  0.19028844279E+02 -0.11028937461E+03 -0.18336000026E+04  0.18387416204E+04  0.79724113491E+02 0.  0.
          5    1    5    5  501    0  0.33702365130E+02  0.36923719145E+02 -0.35510692560E+03  0.35863941370E+03  0.47000000000E+01 0. -1.
        -13    1    6    6    0    0 -0.28440249677E+02 -0.64763371103E+02 -0.10550290888E+04  0.10573975224E+04  0.00000000000E+00 0.  1.
         14    1    6    6    0    0  0.47469093955E+02 -0.45526003505E+02 -0.77857091374E+03  0.78134409808E+03  0.00000000000E+00 0. -1.
         -5    1    3    3    0  503  0.38354641502E+02  0.49948102453E+02 -0.13899143085E+03  0.15266499046E+03  0.47000000000E+01 0.  1.
         11    1    4    4    0    0 -0.28899352749E+02 -0.12720619721E+02 -0.10071041367E+03  0.10554418116E+03  0.00000000000E+00 0. -1.
        -12    1    4    4    0    0 -0.62186498162E+02  0.36138172731E+02 -0.40313321889E+02  0.82451755613E+02  0.00000000000E+00 0.  1.
</event>
<event>
12    1  0.1066489E+000  0.1759885E+03  0.7818608E-02  0.1172813E+00
         21   -1    0    0  501  502  0.00000000000E+00  0.00000000000E+00  0.90643883934E+02  0.90643883934E+02  0.00000000000E+00 0. -1.
         21   -1    0    0  502  503 -0.00000000000E+00 -0.00000000000E+00 -0.35342962663E+03  0.35342962663E+03  0.00000000000E+00 0. -1.
         -6    2    1    2    0  503  0.36326077100E+02 -0.15448212757E+02 -0.18258897745E+03  0.25067374517E+03  0.16715370375E+03 0.  0.
        -24    2    3    3    0    0  0.37037285935E+02  0.53436734861E+02 -0.11210690726E+03  0.15200534068E+03  0.79438150519E+02 0.  0.
          6    2    1    2  501    0 -0.36326077100E+02  0.15448212757E+02 -0.80196765249E+02  0.19339976540E+03  0.17150427675E+03 0.  0.
         24    2    5    5    0    0 -0.84971338294E+02  0.28140819809E+02 -0.77206019336E+02  0.14281816527E+03  0.80151262236E+02 0.  0.
          5    1    5    5  501    0  0.48645261194E+02 -0.12692607053E+02 -0.29907459126E+01  0.50581600128E+02  0.47000000000E+01 0. -1.
        -13    1    6    6    0    0  0.10060524432E+02  0.19417630141E+02 -0.27754543612E+02  0.35335155345E+02  0.00000000000E+00 0.  1.
         14    1    6    6    0    0 -0.95031862725E+02  0.87231896685E+01 -0.49451475724E+02  0.10748300992E+03  0.00000000000E+00 0. -1.
         -5    1    3    3    0  503 -0.71120883520E+00 -0.68884947618E+02 -0.70482070194E+02  0.98668404493E+02  0.47000000000E+01 0.  1.
         11    1    4    4    0    0 -0.17661303201E+02  0.32900058762E+02 -0.72094721182E+02  0.81191035956E+02  0.00000000000E+00 0. -1.
        -12    1    4    4    0    0  0.54698589136E+02  0.20536676099E+02 -0.40012186074E+02  0.70814304721E+02  0.00000000000E+00 0.  1.
</event>
<event>
12    1  0.1066489E+000  0.2179906E+03  0.7818608E-02  0.1135429E+00
         21   -1    0    0  503  502  0.00000000000E+00  0.00000000000E+00  0.20585705375E+03  0.20585705375E+03  0.00000000000E+00 0. -1.
         21   -1    0    0  501  503 -0.00000000000E+00 -0.00000000000E+00 -0.31641223451E+03  0.31641223451E+03  0.00000000000E+00 0. -1.
          6    2    1    2  501    0  0.13382111613E+03  0.90693353378E+01 -0.19123292305E+03  0.28982832634E+03  0.17158112928E+03 0.  0.
         24    2    3    3    0    0  0.15468071323E+02  0.72189399696E+01 -0.96453260235E+02  0.13811760931E+03  0.97374885193E+02 0.  0.
         -6    2    1    2    0  502 -0.13382111613E+03 -0.90693353378E+01  0.80677742287E+02  0.23244096192E+03  0.17184166756E+03 0.  0.
        -24    2    5    5    0    0 -0.15489661064E+02 -0.73096379498E+01 -0.92407374290E+01  0.83737052126E+02  0.81444105150E+02 0.  0.
          5    1    3    3  501    0  0.11835304481E+03  0.18503953682E+01 -0.94779662813E+02  0.15171071703E+03  0.47000000000E+01 0. -1.
        -13    1    4    4    0    0  0.24891655434E+02 -0.36043024992E+02 -0.16661842005E+02  0.46864817718E+02  0.00000000000E+00 0.  1.
         14    1    4    4    0    0 -0.94235841107E+01  0.43261964961E+02 -0.79791418230E+02  0.91252791590E+02  0.00000000000E+00 0. -1.
         -5    1    5    5    0  502 -0.11833145507E+03 -0.17596973880E+01  0.89918479716E+02  0.14870390980E+03  0.47000000000E+01 0.  1.
         13    1    6    6    0    0  0.28827842326E+02  0.10491280885E+02  0.99733052260E+01  0.32257995674E+02  0.00000000000E+00 0. -1.
        -14    1    6    6    0    0 -0.44317503389E+02 -0.17800918835E+02 -0.19214042655E+02  0.51479056452E+02  0.00000000000E+00 0.  1.
</event>
<event>
12    1  0.1066489E+000  0.3965935E+03  0.7818608E-02  0.1044998E+00
         21   -1    0    0  503  502  0.00000000000E+00  0.00000000000E+00  0.89924526884E+02  0.89924526884E+02  0.00000000000E+00 0.  1.
         21   -1    0    0  501  503 -0.00000000000E+00 -0.00000000000E+00 -0.21965030335E+04  0.21965030335E+04  0.00000000000E+00 0. -1.
          6    2    1    2  501    0 -0.26140559285E+03 -0.24352962752E+03 -0.53598773612E+03  0.66653812462E+03  0.17132032821E+03 0.  0.
         24    2    3    3    0    0 -0.27193230881E+03 -0.23417816002E+03 -0.45778169044E+03  0.58693575485E+03  0.78376737699E+02 0.  0.
         -6    2    1    2    0  502  0.26140559285E+03  0.24352962752E+03 -0.15705907705E+04  0.16198894357E+04  0.17218261309E+03 0.  0.
        -24    2    5    5    0    0  0.22440303261E+03  0.13935323526E+03 -0.12672804821E+04  0.12970254842E+04  0.80617870988E+02 0.  0.
          5    1    3    3  501    0  0.10526715966E+02 -0.93514675017E+01 -0.78206045680E+02  0.79602369779E+02  0.47000000000E+01 0. -1.
        -11    1    4    4    0    0 -0.90262392159E+02 -0.47754590360E+02 -0.17478937166E+03  0.20243301307E+03  0.00000000000E+00 0.  1.
         12    1    4    4    0    0 -0.18166991665E+03 -0.18642356966E+03 -0.28299231878E+03  0.38450274177E+03  0.00000000000E+00 0. -1.
         -5    1    5    5    0  502  0.37002560235E+02  0.10417639226E+03 -0.30331028839E+03  0.32286395155E+03  0.47000000000E+01 0.  1.
         11    1    6    6    0    0  0.17996544386E+03  0.76713721919E+02 -0.80650243308E+03  0.82989079443E+03  0.00000000000E+00 0. -1.
        -12    1    6    6    0    0  0.44437588747E+02  0.62639513337E+02 -0.46077804901E+03  0.46713468975E+03  0.00000000000E+00 0.  1.
</event>
<event>
12    1  0.1066489E+000  0.2824504E+03  0.7818608E-02  0.1094538E+00
         21   -1    0    0  501  502  0.00000000000E+00  0.00000000000E+00  0.82497511400E+02  0.82497511400E+02  0.00000000000E+00 0.  1.
         21   -1    0    0  502  503 -0.00000000000E+00 -0.00000000000E+00 -0.96975162417E+03  0.96975162417E+03  0.00000000000E+00 0.  1.
         -6    2    1    2    0  503 -0.97366166357E+02  0.20304382188E+03 -0.48807529469E+03  0.56324817257E+03  0.16829749451E+03 0.  0.
        -24    2    3    3    0    0 -0.13337179241E+03  0.17842720551E+03 -0.40017167057E+03  0.46500602254E+03  0.80429673592E+02 0.  0.
          6    2    1    2  501    0  0.97366166357E+02 -0.20304382188E+03 -0.39917881808E+03  0.48900096300E+03  0.17050292977E+03 0.  0.
         24    2    5    5    0    0  0.12043796712E+03 -0.11559054604E+03 -0.31485110754E+03  0.36525268540E+03  0.80073878451E+02 0.  0.
          5    1    5    5  501    0 -0.23071800761E+02 -0.87453275847E+02 -0.84327710534E+02  0.12374827761E+03  0.47000000000E+01 0. -1.
        -11    1    6    6    0    0 -0.74113727564E+01  0.52038357040E+01 -0.19400500541E+02  0.21409992373E+02  0.00000000000E+00 0.  1.
         12    1    6    6    0    0  0.12784933987E+03 -0.12079438174E+03 -0.29545060700E+03  0.34384269302E+03  0.00000000000E+00 0. -1.
         -5    1    3    3    0  503  0.36005626048E+02  0.24616616370E+02 -0.87903624120E+02  0.98242150027E+02  0.47000000000E+01 0.  1.
         13    1    4    4    0    0 -0.10668165583E+03  0.12377391069E+03 -0.34961066990E+03  0.38591265484E+03  0.00000000000E+00 0. -1.
        -14    1    4    4    0    0 -0.26690136575E+02  0.54653294821E+02 -0.50561000675E+02  0.79093367702E+02  0.00000000000E+00 0.  1.
</event>
<event>
12    1  0.1066489E+000  0.2096845E+03  0.7818608E-02  0.1142208E+00
         21   -1    0    0  503  502  0.00000000000E+00  0.00000000000E+00  0.11612473994E+03  0.11612473994E+03  0.00000000000E+00 0.  1.
         21   -1    0    0  501  503 -0.00000000000E+00 -0.00000000000E+00 -0.39128890693E+03  0.39128890693E+03  0.00000000000E+00 0.  1.
          6    2    1    2  501    0  0.60466006032E+02  0.10317088538E+03 -0.18982946355E+03  0.28284768822E+03  0.17224174879E+03 0.  0.
         24    2    3    3    0    0  0.26439086355E+02  0.66379390545E+02 -0.20381008464E+03  0.23060792252E+03  0.80846858646E+02 0.  0.
         -6    2    1    2    0  502 -0.60466006032E+02 -0.10317088538E+03 -0.85334703449E+02  0.22456595865E+03  0.16984548477E+03 0.  0.
        -24    2    5    5    0    0 -0.10010159543E+03 -0.10635015322E+03 -0.79645944084E+02  0.18412415264E+03  0.78914781108E+02 0.  0.
          5    1    3    3  501    0  0.34026919677E+02  0.36791494831E+02  0.13980621090E+02  0.52239765703E+02  0.47000000000E+01 0. -1.
        -13    1    4    4    0    0 -0.14306298731E+02 -0.82068434201E+01 -0.71311380897E+02  0.73193821514E+02  0.00000000000E+00 0.  1.
         14    1    4    4    0    0  0.40745385086E+02  0.74586233965E+02 -0.13249870374E+03  0.15741410101E+03  0.00000000000E+00 0. -1.
         -5    1    5    5    0  502  0.39635589395E+02  0.31792678449E+01 -0.56887593646E+01  0.40441806016E+02  0.47000000000E+01 0.  1.
         13    1    6    6    0    0 -0.59543805865E+02 -0.11251034701E+02 -0.43526954440E+02  0.74609961544E+02  0.00000000000E+00 0. -1.
        -14    1    6    6    0    0 -0.40557789562E+02 -0.95099118520E+02 -0.36118989644E+02  0.10951419109E+03  0.00000000000E+00 0.  1.
</event>
<event>
12    1  0.1066489E+000  0.1772227E+03  0.7818608E-02  0.1170821E+00
         21   -1    0    0  501  502  0.00000000000E+00  0.00000000000E+00  0.53796978163E+03  0.53796978163E+03  0.00000000000E+00 0. -1.
         21   -1    0    0  502  503 -0.00000000000E+00 -0.00000000000E+00 -0.58299718692E+02  0.58299718692E+02  0.00000000000E+00 0. -1.
         -6    2    1    2    0  503  0.54622411280E+01  0.43118171312E+02  0.26107444024E+03  0.31485887326E+03  0.17054979903E+03 0.  0.
        -24    2    3    3    0    0 -0.36877948978E+02  0.70760986680E+02  0.22778757569E+03  0.25413884122E+03  0.79575565481E+02 0.  0.
          6    2    1    2  501    0 -0.54622411280E+01 -0.43118171312E+02  0.21859562270E+03  0.28141062706E+03  0.17181059916E+03 0.  0.
         24    2    5    5    0    0 -0.39535782767E+02 -0.80249843163E+02  0.18872897935E+03  0.22264096074E+03  0.77118443359E+02 0.  0.
          5    1    5    5  501    0  0.34073541639E+02  0.37131671852E+02  0.29866643346E+02  0.58769666317E+02  0.47000000000E+01 0. -1.
        -13    1    6    6    0    0 -0.28566566910E+02 -0.51386785393E+02  0.40896366170E+02  0.71618176631E+02  0.00000000000E+00 0.  1.
         14    1    6    6    0    0 -0.10969215857E+02 -0.28863057770E+02  0.14783261318E+03  0.15102278411E+03  0.00000000000E+00 0. -1.
         -5    1    3    3    0  503  0.42340190106E+02 -0.27642815369E+02  0.33286864557E+02  0.60720032047E+02  0.47000000000E+01 0.  1.
         13    1    4    4    0    0 -0.11337314198E+02  0.79829453051E+02  0.13280886123E+03  0.15536881891E+03  0.00000000000E+00 0. -1.
        -14    1    4    4    0    0 -0.25540634781E+02 -0.90684663704E+01  0.94978714458E+02  0.98770022311E+02  0.00000000000E+00 0.  1.
</event>
<event>
12    1  0.1066489E+000  0.2948950E+03  0.7818608E-02  0.1087878E+00
         21   -1    0    0  501  502  0.00000000000E+00  0.00000000000E+00  0.55980476107E+03  0.55980476107E+03  0.00000000000E+00 0.  1.
         21   -1    0    0  502  503 -0.00000000000E+00 -0.00000000000E+00 -0.51365938698E+03  0.51365938698E+03  0.00000000000E+00 0.  1.
         -6    2    1    2    0  503  0.23711779142E+03 -0.31878811509E+02  0.47150799829E+03  0.55613205645E+03  0.17240059785E+03 0.  0.
        -24    2    3    3    0    0  0.12961353934E+03  0.46102743644E+02  0.29582738063E+03  0.33585029012E+03  0.79727320866E+02 0.  0.
          6    2    1    2  501    0 -0.23711779142E+03  0.31878811509E+02 -0.42536262420E+03  0.51733209160E+03  0.17163340380E+03 0.  0.
         24    2    5    5    0    0 -0.14380653698E+03 -0.58129479730E+01 -0.13885561634E+03  0.21362826467E+03  0.75113532957E+02 0.  0.
          5    1    5    5  501    0 -0.93311254432E+02  0.37691759482E+02 -0.28650700786E+03  0.30370382693E+03  0.47000000000E+01 0. -1.
        -11    1    6    6    0    0 -0.94720853660E+02 -0.39624153553E+02 -0.84875049715E+02  0.13321369197E+03  0.00000000000E+00 0.  1.
         12    1    6    6    0    0 -0.49085683323E+02  0.33811205580E+02 -0.53980566624E+02  0.80414572704E+02  0.00000000000E+00 0. -1.
         -5    1    3    3    0  503  0.10750425207E+03 -0.77981555153E+02  0.17568061766E+03  0.22028176634E+03  0.47000000000E+01 0.  1.
         13    1    4    4    0    0 -0.25595371282E+01  0.76948477154E+01  0.76382630545E+02  0.76811901165E+02  0.00000000000E+00 0. -1.
        -14    1    4    4    0    0  0.13217307647E+03  0.38407895928E+02  0.21944475008E+03  0.25903838895E+03  0.00000000000E+00 0.  1.
</event>
<event>
12    1  0.1066489E+000  0.2827053E+03  0.7818608E-02  0.1094493E+00
         21   -1    0    0  503  502  0.00000000000E+00  0.00000000000E+00  0.12324561493E+04  0.12324561493E+04  0.00000000000E+00 0. -1.
         21   -1    0    0  501  503 -0.00000000000E+00 -0.00000000000E+00 -0.30350793751E+03  0.30350793751E+03  0.00000000000E+00 0.  1.
          6    2    1    2  501    0  0.20616247599E+03  0.92159830222E+02 -0.21754647471E+03  0.35512864555E+03  0.16671378293E+03 0.  0.
         24    2    3    3    0    0  0.17790218619E+03  0.83135343183E+02 -0.23833535658E+03  0.31859984930E+03  0.78367395281E+02 0.  0.
         -6    2    1    2    0  502 -0.20616247599E+03 -0.92159830222E+02  0.11464946865E+04  0.11808354413E+04  0.17007607815E+03 0.  0.
        -24    2    5    5    0    0 -0.77740280434E+02 -0.62254732143E+02  0.80038940108E+03  0.81043358679E+03  0.79121440570E+02 0.  0.
          5    1    3    3  501    0  0.28260289801E+02  0.90244870390E+01  0.20788881867E+02  0.36528796247E+02  0.47000000000E+01 0.  1.
        -13    1    4    4    0    0  0.24774235861E+02  0.46169421974E+01 -0.83119749726E+02  0.86856040160E+02  0.00000000000E+00 0.  1.
         14    1    4    4    0    0  0.15312795033E+03  0.78518400986E+02 -0.15521560685E+03  0.23174380915E+03  0.00000000000E+00 0. -1.
         -5    1    5    5    0  502 -0.12842219556E+03 -0.29905098079E+02  0.34610528544E+03  0.37040185449E+03  0.47000000000E+01 0.  1.
         13    1    6    6    0    0 -0.70252322027E+02 -0.15352936906E+02  0.33525134138E+03  0.34287689237E+03  0.00000000000E+00 0. -1.
        -14    1    6    6    0    0 -0.74879584066E+01 -0.46901795237E+02  0.46513805970E+03  0.46755669442E+03  0.00000000000E+00 0.  1.
</event>
<event>
12    1  0.1066489E+000  0.3347565E+03  0.7818608E-02  0.1069099E+00
         21   -1    0    0  503  502  0.00000000000E+00  0.00000000000E+00  0.11678933877E+04  0.11678933877E+04  0.00000000000E+00 0.  1.
         21   -1    0    0  501  503 -0.00000000000E+00 -0.00000000000E+00 -0.10545055352E+03  0.10545055352E+03  0.00000000000E+00 0.  1.
          6    2    1    2  501    0  0.61181821055E+02  0.28026233872E+03  0.72387636283E+03  0.79753299046E+03  0.17254474343E+03 0.  0.
         24    2    3    3    0    0  0.26249602726E+02  0.11870546548E+03  0.46627867405E+03  0.49142918056E+03  0.96471801383E+02 0.  0.
         -6    2    1    2    0  502 -0.61181821055E+02 -0.28026233872E+03  0.33856647132E+03  0.47581095073E+03  0.17169336504E+03 0.  0.
        -24    2    5    5    0    0 -0.79819316155E+02 -0.16570641823E+03  0.13704394415E+03  0.24320864184E+03  0.80868167802E+02 0.  0.
          5    1    3    3  501    0  0.34932218329E+02  0.16155687325E+03  0.25759768878E+03  0.30610380990E+03  0.47000000000E+01 0. -1.
        -13    1    4    4    0    0  0.44194830289E+02  0.52723247874E+02  0.11876258367E+03  0.13724968186E+03  0.00000000000E+00 0.  1.
         14    1    4    4    0    0 -0.17945227563E+02  0.65982217602E+02  0.34751609037E+03  0.35417949870E+03  0.00000000000E+00 0. -1.
         -5    1    5    5    0  502  0.18637495100E+02 -0.11455592049E+03  0.20152252717E+03  0.23260230889E+03  0.47000000000E+01 0.  1.
         11    1    6    6    0    0 -0.22458253954E+01 -0.94024722789E+02  0.51088913988E+02  0.10703162785E+03  0.00000000000E+00 0. -1.
        -12    1    6    6    0    0 -0.77573490760E+02 -0.71681695444E+02  0.85955030163E+02  0.13617701400E+03  0.00000000000E+00 0.  1.
</event>
<event>
12    1  0.1338334E+000  0.2743765E+03  0.7818608E-02  0.1098806E+00
         21   -1    0    0  501  502  0.00000000000E+00  0.00000000000E+00  0.15844361695E+03  0.15844361695E+03  0.00000000000E+00 0.  1.
         21   -1    0    0  502  503 -0.00000000000E+00 -0.00000000000E+00 -0.11132461714E+04  0.11132461714E+04  0.00000000000E+00 0. -1.
         -6    2    1    2    0  503  0.11030898886E+03 -0.18294541477E+03  0.40323655357E+01  0.27436994552E+03  0.17212062404E+03 0.  0.
        -24    2    3    3    0    0  0.10593668802E+03 -0.17950059402E+03  0.49083578160E+02  0.22873349557E+03  0.80416224920E+02 0.  0.
          6    2    1    2  501    0 -0.11030898886E+03  0.18294541477E+03 -0.95883491994E+03  0.99731984278E+03  0.17217830090E+03 0.  0.
         24    2    5    5    0    0 -0.79228027326E+02  0.17167689288E+03 -0.93274448030E+03  0.95494288211E+03  0.78444927807E+02 0.  0.
          5    1    5    5  501    0 -0.31080961533E+02  0.11268521889E+02 -0.26090439648E+02  0.42376960679E+02  0.47000000000E+01 0. -1.
        -13    1    6    6    0    0  0.11843811632E+02  0.18765525342E+01 -0.50894952949E+02  0.52288560500E+02  0.00000000000E+00 0.  1.
         14    1    6    6    0    0 -0.91071838958E+02  0.16980034035E+03 -0.88184952735E+03  0.90265432161E+03  0.00000000000E+00 0. -1.
         -5    1    3    3    0  503  0.43723008415E+01 -0.34448207567E+01 -0.45051212624E+02  0.45636449945E+02  0.47000000000E+01 0.  1.
         13    1    4    4    0    0  0.76793833269E+02 -0.11349390146E+03 -0.72019838254E+01  0.13722254577E+03  0.00000000000E+00 0. -1.
        -14    1    4    4    0    0  0.29142854748E+02 -0.66006692552E+02  0.56285561985E+02  0.91510949796E+02  0.00000000000E+00 0.  1.
</event>
<event>
12    1  0.1066489E+000  0.2044860E+03  0.7818608E-02  0.1146159E+00
         21   -1    0    0  501  502  0.00000000000E+00  0.00000000000E+00  0.13930054871E+03  0.13930054871E+03  0.00000000000E+00 0. -1.
         21   -1    0    0  502  503 -0.00000000000E+00 -0.00000000000E+00 -0.46901113378E+03  0.46901113378E+03  0.00000000000E+00 0. -1.
         -6    2    1    2    0  503  0.10362103207E+03 -0.35228698539E+02  0.18400605663E+02  0.20458415995E+03  0.17186540294E+03 0.  0.
        -24    2    3    3    0    0  0.35211363074E+01 -0.60832015863E+02  0.94431370932E+01  0.10076775839E+03  0.79699659589E+02 0.  0.
          6    2    1    2  501    0 -0.10362103207E+03  0.35228698539E+02 -0.34811119073E+03  0.40372752253E+03  0.17273138642E+03 0.  0.
         24    2    5    5    0    0 -0.24718407729E+02  0.40482093252E+02 -0.29255379362E+03  0.30697042120E+03  0.79958225223E+02 0.  0.
          5    1    5    5  501    0 -0.78902624340E+02 -0.52533947128E+01 -0.55557397113E+02  0.96757101330E+02  0.47000000000E+01 0. -1.
        -11    1    6    6    0    0 -0.45762793900E+02  0.36294689470E+02 -0.12412907921E+03  0.13718442366E+03  0.00000000000E+00 0.  1.
         12    1    6    6    0    0  0.21044386171E+02  0.41874037814E+01 -0.16842471441E+03  0.16978599754E+03  0.00000000000E+00 0. -1.
         -5    1    3    3    0  503  0.10009989576E+03  0.25603317325E+02  0.89574685702E+01  0.10381640156E+03  0.47000000000E+01 0.  1.
         11    1    4    4    0    0  0.27323058808E+02 -0.28360048497E+02  0.35326997899E+02  0.52904051584E+02  0.00000000000E+00 0. -1.
        -12    1    4    4    0    0 -0.23801922501E+02 -0.32471967367E+02 -0.25883860806E+02  0.47863706810E+02  0.00000000000E+00 0.  1.
</event>
<event>
12    1  0.1066489E+000  0.2441407E+03  0.7818608E-02  0.1118006E+00
         21   -1    0    0  503  502  0.00000000000E+00  0.00000000000E+00  0.78714570040E+03  0.78714570040E+03  0.00000000000E+00 0.  1.
         21   -1    0    0  501  503 -0.00000000000E+00 -0.00000000000E+00 -0.74028725647E+02  0.74028725647E+02  0.00000000000E+00 0.  1.
          6    2    1    2  501    0 -0.64812878707E+02  0.15251217525E+03  0.34791797337E+03  0.42503127017E+03  0.17928745518E+03 0.  0.
         24    2    3    3    0    0 -0.46219175405E+02  0.16189486367E+01  0.13314946650E+03  0.16185434644E+03  0.79556369100E+02 0.  0.
         -6    2    1    2    0  502  0.64812878707E+02 -0.15251217525E+03  0.36519900138E+03  0.43614315587E+03  0.17143473673E+03 0.  0.
        -24    2    5    5    0    0 -0.22738821258E+02 -0.34391059760E+02  0.16271957645E+03  0.18586749662E+03  0.79807686082E+02 0.  0.
          5    1    3    3  501    0 -0.18593703302E+02  0.15089322661E+03  0.21476850687E+03  0.26317692373E+03  0.47000000000E+01 0. -1.
        -13    1    4    4    0    0  0.13179919938E+02  0.13713769800E+02  0.43621928529E+01  0.19514263968E+02  0.00000000000E+00 0.  1.
         14    1    4    4    0    0 -0.59399095343E+02 -0.12094821163E+02  0.12878727365E+03  0.14234008248E+03  0.00000000000E+00 0. -1.
         -5    1    5    5    0  502  0.87551699965E+02 -0.11812111549E+03  0.20247942494E+03  0.25027565925E+03  0.47000000000E+01 0.  1.
         11    1    6    6    0    0 -0.11041371280E+02 -0.29146322893E+02  0.10176787467E+02  0.32786994694E+02  0.00000000000E+00 0. -1.
        -12    1    6    6    0    0 -0.11697449978E+02 -0.52447368670E+01  0.15254278898E+03  0.15308050193E+03  0.00000000000E+00 0.  1.
</event>
<event>
12    1  0.1066489E+000  0.1902410E+03  0.7818608E-02  0.1158351E+00
         21   -1    0    0  503  502  0.00000000000E+00  0.00000000000E+00  0.41747185067E+03  0.41747185067E+03  0.00000000000E+00 0.  1.
         21   -1    0    0  501  503 -0.00000000000E+00 -0.00000000000E+00 -0.11982549404E+03  0.11982549404E+03  0.00000000000E+00 0.  1.
          6    2    1    2  501    0  0.43978434360E+02 -0.68369412200E+02  0.69624292554E+01  0.18989440870E+03  0.17147283114E+03 0.  0.
         24    2    3    3    0    0  0.37932714294E+02 -0.72091164566E+02 -0.55758908359E+02  0.12659781824E+03  0.79258595107E+02 0.  0.
         -6    2    1    2    0  502 -0.43978434360E+02  0.68369412200E+02  0.29068392738E+03  0.34740293602E+03  0.17199760202E+03 0.  0.
        -24    2    5    5    0    0 -0.60554744256E+02  0.87066097919E+02  0.29317236102E+03  0.32185646055E+03  0.79963525882E+02 0.  0.
          5    1    3    3  501    0  0.60457200663E+01  0.37217523657E+01  0.62721337614E+02  0.63296590460E+02  0.47000000000E+01 0. -1.
        -11    1    4    4    0    0  0.51230558458E+02 -0.62047992652E+02 -0.14048345721E+02  0.81681573990E+02  0.00000000000E+00 0.  1.
         12    1    4    4    0    0 -0.13297844164E+02 -0.10043171914E+02 -0.41710562638E+02  0.44916244245E+02  0.00000000000E+00 0. -1.
         -5    1    5    5    0  502  0.16576309896E+02 -0.18696685719E+02 -0.24884336449E+01  0.25546475464E+02  0.47000000000E+01 0.  1.
         11    1    6    6    0    0 -0.14172089822E+02 -0.15019907421E+02  0.48592343166E+02  0.52798310231E+02  0.00000000000E+00 0. -1.
        -12    1    6    6    0    0 -0.46382654433E+02  0.10208600534E+03  0.24458001786E+03  0.26905815032E+03  0.00000000000E+00 0.  1.
</event>
<event>
12    1  0.1066489E+000  0.3511142E+03  0.7818608E-02  0.1063086E+00
         21   -1    0    0  503  502  0.00000000000E+00  0.00000000000E+00  0.55798534337E+02  0.55798534337E+02  0.00000000000E+00 0.  1.
         21   -1    0    0  501  503 -0.00000000000E+00 -0.00000000000E+00 -0.24986913093E+04  0.24986913093E+04  0.00000000000E+00 0.  1.
          6    2    1    2  501    0  0.55165085074E+02 -0.30075583248E+03 -0.17097709749E+04  0.17454506513E+04  0.17258022012E+03 0.  0.
         24    2    3    3    0    0  0.22986810957E+02 -0.23774129816E+03 -0.15568429136E+04  0.15768821051E+04  0.75815548506E+02 0.  0.
         -6    2    1    2    0  502 -0.55165085074E+02  0.30075583248E+03 -0.73312180011E+03  0.80903919231E+03  0.15355645061E+03 0.  0.
        -24    2    5    5    0    0 -0.45460433563E+02  0.12367712761E+03 -0.24608289895E+03  0.29069564869E+03  0.81144834064E+02 0.  0.
          5    1    3    3  501    0  0.32178274117E+02 -0.63014534320E+02 -0.15292806124E+03  0.16856854622E+03  0.47000000000E+01 0. -1.
        -13    1    4    4    0    0 -0.12449195522E+02 -0.35786544894E+02 -0.41924498129E+03  0.42095369532E+03  0.00000000000E+00 0.  1.
         14    1    4    4    0    0  0.35436006479E+02 -0.20195475326E+03 -0.11375979323E+04  0.11559284098E+04  0.00000000000E+00 0. -1.
         -5    1    5    5    0  502 -0.97046515106E+01  0.17707870487E+03 -0.48703890116E+03  0.51834354363E+03  0.47000000000E+01 0.  1.
         13    1    6    6    0    0 -0.41450017721E+01  0.10824752153E+03 -0.15053219565E+03  0.18545794371E+03  0.00000000000E+00 0. -1.
        -14    1    6    6    0    0 -0.41315431791E+02  0.15429606080E+02 -0.95550703299E+02  0.10523770498E+03  0.00000000000E+00 0.  1.
</event>
<event>
12    1  0.1066489E+000  0.2453598E+03  0.7818608E-02  0.1116346E+00
         21   -1    0    0  501  502  0.00000000000E+00  0.00000000000E+00  0.62552986199E+03  0.62552986199E+03  0.00000000000E+00 0.  1.
         21   -1    0    0  502  503 -0.00000000000E+00 -0.00000000000E+00 -0.99106709706E+02  0.99106709706E+02  0.00000000000E+00 0. -1.
         -6    2    1    2    0  503 -0.17393504541E+03 -0.16163117589E+02  0.19949098843E+03  0.31587493506E+03  0.17165568370E+03 0.  0.
        -24    2    3    3    0    0 -0.48300830400E+02  0.98481617543E+01  0.15240324699E+03  0.17912740117E+03  0.80186779761E+02 0.  0.
          6    2    1    2  501    0  0.17393504541E+03  0.16163117589E+02  0.32693216385E+03  0.40876163663E+03  0.17229854738E+03 0.  0.
         24    2    5    5    0    0  0.11927895410E+03  0.82651665706E+02  0.20110028631E+03  0.25623699353E+03  0.64477166210E+02 0.  0.
          5    1    5    5  501    0  0.54656091304E+02 -0.66488548117E+02  0.12583187754E+03  0.15252464310E+03  0.47000000000E+01 0. -1.
        -13    1    6    6    0    0  0.20702591960E+02  0.43117736865E+02  0.93636660877E+02  0.10514542694E+03  0.00000000000E+00 0.  1.
         14    1    6    6    0    0  0.98576362142E+02  0.39533928841E+02  0.10746362544E+03  0.15109156659E+03  0.00000000000E+00 0. -1.
         -5    1    3    3    0  503 -0.12563421501E+03 -0.26011279343E+02  0.47087741439E+02  0.13674753390E+03  0.47000000000E+01 0.  1.
         11    1    4    4    0    0 -0.16786176342E+02 -0.57641008542E+01 -0.45171495101E+01  0.18314071490E+02  0.00000000000E+00 0. -1.
        -12    1    4    4    0    0 -0.31514654058E+02  0.15612262609E+02  0.15692039650E+03  0.16081332968E+03  0.00000000000E+00 0.  1.
</event>
<event>
12    1  0.1066489E+000  0.2198936E+03  0.7818608E-02  0.1134003E+00
         21   -1    0    0  503  502  0.00000000000E+00  0.00000000000E+00  0.31083938165E+03  0.31083938165E+03  0.00000000000E+00 0. -1.
         21   -1    0    0  501  503 -0.00000000000E+00 -0.00000000000E+00 -0.16099622396E+03  0.16099622396E+03  0.00000000000E+00 0. -1.
          6    2    1    2  501    0  0.12312312948E+03 -0.58604191949E+02  0.11885968019E+03  0.24976990097E+03  0.17223130821E+03 0.  0.
         24    2    3    3    0    0  0.14473811011E+03 -0.57700037736E+02  0.59840818969E+02  0.18673545909E+03  0.83730479490E+02 0.  0.
         -6    2    1    2    0  502 -0.12312312948E+03  0.58604191949E+02  0.30983477499E+02  0.22206570464E+03  0.17250926054E+03 0.  0.
        -24    2    5    5    0    0 -0.12945692715E+03 -0.88273235904E+01  0.26520287702E+02  0.15402794789E+03  0.78640100720E+02 0.  0.
          5    1    3    3  501    0 -0.21614980631E+02 -0.90415421321E+00  0.59018861226E+02  0.63034441878E+02  0.47000000000E+01 0. -1.
        -13    1    4    4    0    0  0.64765162386E+02  0.57034019926E+00  0.59254742543E+02  0.87783689035E+02  0.00000000000E+00 0.  1.
         14    1    4    4    0    0  0.79972947723E+02 -0.58270377935E+02  0.58607642620E+00  0.98951770059E+02  0.00000000000E+00 0. -1.
         -5    1    5    5    0  502  0.63337976740E+01  0.67431515540E+02  0.44631897966E+01  0.68037756754E+02  0.47000000000E+01 0.  1.
         13    1    6    6    0    0 -0.35667228509E+02 -0.35475552000E+02  0.25771975172E+02  0.56523098672E+02  0.00000000000E+00 0. -1.
        -14    1    6    6    0    0 -0.93789698643E+02  0.26648228410E+02  0.74831252987E+00  0.97504849215E+02  0.00000000000E+00 0.  1.
</event>
<event>
12    1  0.1066489E+000  0.2593008E+03  0.7818608E-02  0.1107646E+00
         21   -1    0    0  503  502  0.00000000000E+00  0.00000000000E+00  0.21428073474E+03  0.21428073474E+03  0.00000000000E+00 0.  1.
         21   -1    0    0  501  503 -0.00000000000E+00 -0.00000000000E+00 -0.31353646965E+03  0.31353646965E+03  0.00000000000E+00 0.  1.
          6    2    1    2  501    0  0.19305702281E+03  0.20688994350E+02 -0.59250129226E+02  0.26598403721E+03  0.17186588287E+03 0.  0.
         24    2    3    3    0    0  0.12164792701E+03  0.37436945287E+02 -0.10061151640E+03  0.18164776285E+03  0.81691428550E+02 0.  0.
         -6    2    1    2    0  502 -0.19305702281E+03 -0.20688994350E+02 -0.40005605689E+02  0.26183316718E+03  0.17104709997E+03 0.  0.
        -24    2    5    5    0    0 -0.69067766429E+02 -0.67052905806E+02 -0.12584370935E+02  0.12656690347E+03  0.81205702547E+02 0.  0.
          5    1    3    3  501    0  0.71409095796E+02 -0.16747950937E+02  0.41361387176E+02  0.84336274355E+02  0.47000000000E+01 0. -1.
        -11    1    4    4    0    0 -0.11615510274E+02  0.37990261428E+01 -0.17570093005E+01  0.12346649758E+02  0.00000000000E+00 0.  1.
         12    1    4    4    0    0  0.13326343728E+03  0.33637919144E+02 -0.98854507101E+02  0.16930111309E+03  0.00000000000E+00 0. -1.
         -5    1    5    5    0  502 -0.12398925638E+03  0.46363911457E+02 -0.27421234754E+02  0.13526626371E+03  0.47000000000E+01 0.  1.
         11    1    6    6    0    0 -0.51669304859E+02  0.13244802764E+01  0.96724516145E+01  0.52583530053E+02  0.00000000000E+00 0. -1.
        -12    1    6    6    0    0 -0.17398461571E+02 -0.68377386083E+02 -0.22256822549E+02  0.73983373419E+02  0.00000000000E+00 0.  1.
</event>
<event>
12    1  0.1066489E+000  0.3261725E+03  0.7818608E-02  0.1072858E+00
         21   -1    0    0  503  502  0.00000000000E+00  0.00000000000E+00  0.38349071404E+03  0.38349071404E+03  0.00000000000E+00 0. -1.
         21   -1    0    0  501  503 -0.00000000000E+00 -0.00000000000E+00 -0.29013762677E+03  0.29013762677E+03  0.00000000000E+00 0. -1.
          6    2    1    2  501    0 -0.16742527554E+03 -0.22053966813E+03  0.11750072435E+03  0.34656320800E+03  0.17213561166E+03 0.  0.
         24    2    3    3    0    0 -0.15859064099E+03 -0.21683519327E+03  0.14633698105E+03  0.31581595443E+03  0.78464721991E+02 0.  0.
         -6    2    1    2    0  502  0.16742527554E+03  0.22053966813E+03 -0.24147637083E+02  0.32706513281E+03  0.17239351673E+03 0.  0.
        -24    2    5    5    0    0  0.18877583569E+03  0.20389909698E+03  0.17117387452E+01  0.28933514016E+03  0.80627138051E+02 0.  0.
          5    1    3    3  501    0 -0.88346345501E+01 -0.37044748648E+01 -0.28836256700E+02  0.30747253570E+02  0.47000000000E+01 0. -1.
        -13    1    4    4    0    0 -0.13953963004E+03 -0.13198519244E+03  0.89285881028E+02  0.21180974464E+03  0.00000000000E+00 0.  1.
         14    1    4    4    0    0 -0.19051010947E+02 -0.84850000834E+02  0.57051100022E+02  0.10400620978E+03  0.00000000000E+00 0. -1.
         -5    1    5    5    0  502 -0.21350560150E+02  0.16640571155E+02 -0.25859375828E+02  0.37729992649E+02  0.47000000000E+01 0.  1.
         11    1    6    6    0    0  0.40159410087E+02  0.37105803936E+02  0.32835295666E+02  0.63779115279E+02  0.00000000000E+00 0. -1.
        -12    1    6    6    0    0  0.14861642560E+03  0.16679329304E+03 -0.31123556921E+02  0.22555602488E+03  0.00000000000E+00 0.  1.
</event>
<event>
12    1  0.1066489E+000  0.1857187E+03  0.7818608E-02  0.1163578E+00
         21   -1    0    0  501  502  0.00000000000E+00  0.00000000000E+00  0.47127349270E+03  0.47127349270E+03  0.00000000000E+00 0.  1.
         21   -1    0    0  502  503 -0.00000000000E+00 -0.00000000000E+00 -0.11434609368E+03  0.11434609368E+03  0.00000000000E+00 0.  1.
         -6    2    1    2    0  503 -0.57948626578E+02 -0.38793587889E+02  0.14980535287E+00  0.18571875057E+03  0.17212915525E+03 0.  0.
        -24    2    3    3    0    0 -0.19934010036E+02 -0.34391212923E+02 -0.65355439489E+02  0.10970875729E+03  0.78641958730E+02 0.  0.
          6    2    1    2  501    0  0.57948626578E+02  0.38793587889E+02  0.35677759367E+03  0.39990083581E+03  0.16663565452E+03 0.  0.
         24    2    5    5    0    0  0.49167759853E+02 -0.13947833161E+02  0.10119505095E+03  0.13874324497E+03  0.79982742064E+02 0.  0.
          5    1    5    5  501    0  0.87808667248E+01  0.52741421050E+02  0.25558254271E+03  0.26115759084E+03  0.47000000000E+01 0. -1.
        -13    1    6    6    0    0  0.44702294313E+02  0.21236488019E+02  0.26692683029E+02  0.56229732949E+02  0.00000000000E+00 0.  1.
         14    1    6    6    0    0  0.44654655401E+01 -0.35184321180E+02  0.74502367925E+02  0.82513512019E+02  0.00000000000E+00 0. -1.
         -5    1    3    3    0  503 -0.38014616542E+02 -0.44023749661E+01  0.65505244841E+02  0.76009993277E+02  0.47000000000E+01 0.  1.
         11    1    4    4    0    0 -0.92820883816E+01 -0.40987073923E+02 -0.80042369052E+02  0.90403972462E+02  0.00000000000E+00 0. -1.
        -12    1    4    4    0    0 -0.10651921654E+02  0.65958609998E+01  0.14686929563E+02  0.19304784828E+02  0.00000000000E+00 0.  1.
</event>
<event>
12    1  0.1066489E+000  0.2326800E+03  0.7818608E-02  0.1124790E+00
         21   -1    0    0  503  502  0.00000000000E+00  0.00000000000E+00  0.12899807126E+04  0.12899807126E+04  0.00000000000E+00 0.  1.
         21   -1    0    0  501  503 -0.00000000000E+00 -0.00000000000E+00 -0.62383967612E+02  0.62383967612E+02  0.00000000000E+00 0.  1.
          6    2    1    2  501    0  0.93887174462E+01 -0.15571849467E+03  0.22688422513E+03  0.32498679739E+03  0.17263710281E+03 0.  0.
         24    2    3    3    0    0  0.28424760485E+02 -0.98249721041E+02  0.23040284158E+03  0.26416326955E+03  0.78967011345E+02 0.  0.
         -6    2    1    2    0  502 -0.93887174462E+01  0.15571849467E+03  0.10007125199E+04  0.10273778829E+04  0.17246266006E+03 0.  0.
        -24    2    5    5    0    0  0.33030115054E+02  0.12936834512E+03  0.91429660526E+03  0.92746047679E+03  0.80109277927E+02 0.  0.
          5    1    3    3  501    0 -0.19036043039E+02 -0.57468773629E+02 -0.35186164454E+01  0.60823527839E+02  0.47000000000E+01 0. -1.
        -11    1    4    4    0    0  0.17303536392E+02 -0.10284002985E+03  0.22951833458E+03  0.25209948437E+03  0.00000000000E+00 0.  1.
         12    1    4    4    0    0  0.11121224093E+02  0.45903088137E+01  0.88450700048E+00  0.12063785184E+02  0.00000000000E+00 0. -1.
         -5    1    5    5    0  502 -0.42418832501E+02  0.26350149553E+02  0.86415914637E+02  0.99917406065E+02  0.47000000000E+01 0.  1.
         11    1    6    6    0    0  0.55712587482E+02  0.95982987535E+02  0.56149730361E+03  0.57235989400E+03  0.00000000000E+00 0. -1.
        -12    1    6    6    0    0 -0.22682472428E+02  0.33385357582E+02  0.35279930164E+03  0.35510058279E+03  0.00000000000E+00 0.  1.
</event>
<event>
12    1  0.1066489E+000  0.1841907E+03  0.7818608E-02  0.1163923E+00
         21   -1    0    0  503  502  0.00000000000E+00  0.00000000000E+00  0.71163632825E+02  0.71163632825E+02  0.00000000000E+00 0. -1.
         21   -1    0    0  501  503 -0.00000000000E+00 -0.00000000000E+00 -0.52783819743E+03  0.52783819743E+03  0.00000000000E+00 0. -1.
          6    2    1    2  501    0 -0.63371090346E+02  0.78022423267E+01 -0.13372733168E+03  0.22722078424E+03  0.17224841212E+03 0.  0.
         24    2    3    3    0    0  0.18353228092E+02  0.37248024040E+02 -0.71775598884E+02  0.12042178855E+03  0.87323618145E+02 0.  0.
         -6    2    1    2    0  502  0.63371090346E+02 -0.78022423267E+01 -0.32294723293E+03  0.37178104601E+03  0.17276996510E+03 0.  0.
        -24    2    5    5    0    0  0.82406171454E+02 -0.49142160348E+02 -0.28949752987E+03  0.31510392744E+03  0.79220807061E+02 0.  0.
          5    1    3    3  501    0 -0.81724318437E+02 -0.29445781713E+02 -0.61951732792E+02  0.10679899569E+03  0.47000000000E+01 0. -1.
        -11    1    4    4    0    0 -0.28627291810E+02  0.20848730331E+02 -0.59382944441E+02  0.69141344240E+02  0.00000000000E+00 0.  1.
         12    1    4    4    0    0  0.46980519902E+02  0.16399293708E+02 -0.12392654443E+02  0.51280444309E+02  0.00000000000E+00 0. -1.
         -5    1    5    5    0  502 -0.19035081109E+02  0.41339918021E+02 -0.33449703058E+02  0.56677118571E+02  0.47000000000E+01 0.  1.
         11    1    6    6    0    0  0.88152082871E+01 -0.16445913879E+02 -0.48423651346E+01  0.19277564176E+02  0.00000000000E+00 0. -1.
        -12    1    6    6    0    0  0.73590963167E+02 -0.32696246469E+02 -0.28465516473E+03  0.29582636327E+03  0.00000000000E+00 0.  1.
</event>
<event>
12    1  0.1066489E+000  0.1965896E+03  0.7818608E-02  0.1153057E+00
         21   -1    0    0  501  502  0.00000000000E+00  0.00000000000E+00  0.62383946260E+02  0.62383946260E+02  0.00000000000E+00 0. -1.
         21   -1    0    0  502  503 -0.00000000000E+00 -0.00000000000E+00 -0.15339944607E+04  0.15339944607E+04  0.00000000000E+00 0. -1.
         -6    2    1    2    0  503  0.48738836734E+02  0.78338338720E+02 -0.11611270662E+03  0.22669896632E+03  0.17145813242E+03 0.  0.
        -24    2    3    3    0    0  0.18511978052E+01  0.30143869307E+02  0.11108330283E+02  0.82725219418E+02  0.76210151134E+02 0.  0.
          6    2    1    2  501    0 -0.48738836734E+02 -0.78338338720E+02 -0.13554978078E+04  0.13696794407E+04  0.17359462432E+03 0.  0.
         24    2    5    5    0    0 -0.70609498877E+02 -0.11316711645E+03 -0.11135917664E+04  0.11242573705E+04  0.77945592722E+02 0.  0.
          5    1    5    5  501    0  0.21870662143E+02  0.34828777734E+02 -0.24190604143E+03  0.24542207012E+03  0.47000000000E+01 0. -1.
        -11    1    6    6    0    0  0.76457320785E+01 -0.12897604239E+02 -0.33499700183E+02  0.36701979871E+02  0.00000000000E+00 0.  1.
         12    1    6    6    0    0 -0.78255230956E+02 -0.10026951222E+03 -0.10800920662E+04  0.10875553907E+04  0.00000000000E+00 0. -1.
         -5    1    3    3    0  503  0.46887638929E+02  0.48194469413E+02 -0.12722103690E+03  0.14397374690E+03  0.47000000000E+01 0.  1.
         11    1    4    4    0    0 -0.84464378709E+01 -0.99643743524E+01 -0.24725635551E+02  0.27964050536E+02  0.00000000000E+00 0. -1.
        -12    1    4    4    0    0  0.10297635676E+02  0.40108243659E+02  0.35833965834E+02  0.54761168882E+02  0.00000000000E+00 0.  1.
</event>
<event>
12    1  0.1066489E+000  0.2152401E+03  0.7818608E-02  0.1137524E+00
         21   -1    0    0  501  502  0.00000000000E+00  0.00000000000E+00  0.18045132068E+03  0.18045132068E+03  0.00000000000E+00 0. -1.
         21   -1    0    0  502  503 -0.00000000000E+00 -0.00000000000E+00 -0.29897616846E+03  0.29897616846E+03  0.00000000000E+00 0. -1.
         -6    2    1    2    0  503 -0.89401063215E+02  0.93101703136E+02 -0.14961864580E+03  0.26195302955E+03  0.17196852412E+03 0.  0.
        -24    2    3    3    0    0  0.53519180697E+01 -0.22942893800E+01 -0.62549248271E+02  0.10169794277E+03  0.79975973356E+02 0.  0.
          6    2    1    2  501    0  0.89401063215E+02 -0.93101703136E+02  0.31093798019E+02  0.21747445959E+03  0.17224354579E+03 0.  0.
         24    2    5    5    0    0  0.13061105167E+02 -0.43826682859E+02 -0.41861925829E+02  0.10085351610E+03  0.79546466148E+02 0.  0.
          5    1    5    5  501    0  0.76339958048E+02 -0.49275020277E+02  0.72955723848E+02  0.11662094349E+03  0.47000000000E+01 0. -1.
        -11    1    6    6    0    0 -0.23710696770E+00  0.17439303525E+02 -0.33284085094E+02  0.37576799328E+02  0.00000000000E+00 0.  1.
         12    1    6    6    0    0  0.13298212135E+02 -0.61265986384E+02 -0.85778407351E+01  0.63276716771E+02  0.00000000000E+00 0. -1.
         -5    1    3    3    0  503 -0.94752981285E+02  0.95395992516E+02 -0.87069397531E+02  0.16025508677E+03  0.47000000000E+01 0.  1.
         11    1    4    4    0    0  0.38418424189E+01 -0.26201032296E+02 -0.71406365427E+02  0.76158537736E+02  0.00000000000E+00 0. -1.
        -12    1    4    4    0    0  0.15100756508E+01  0.23906742916E+02  0.88571171559E+01  0.25539405037E+02  0.00000000000E+00 0.  1.
</event>
<event>
12    1  0.1066489E+000  0.2306772E+03  0.7818608E-02  0.1126375E+00
         21   -1    0    0  501  502  0.00000000000E+00  0.00000000000E+00  0.51951930067E+03  0.51951930067E+03  0.00000000000E+00 0.  1.
         21   -1    0    0  502  503 -0.00000000000E+00 -0.00000000000E+00 -0.10334232018E+03  0.10334232018E+03  0.00000000000E+00 0.  1.
         -6    2    1    2    0  503 -0.10208060757E+03 -0.11238532125E+03  0.17175261543E+03  0.28759506716E+03  0.17366937229E+03 0.  0.
        -24    2    3    3    0    0  0.90494643204E+01 -0.24545820060E+02  0.94344864768E+02  0.12610289797E+03  0.79477023603E+02 0.  0.
          6    2    1    2  501    0  0.10208060757E+03  0.11238532125E+03  0.24442436506E+03  0.33526655370E+03  0.17207405650E+03 0.  0.
         24    2    5    5    0    0  0.46000642427E+02  0.51787929299E+02  0.22550006086E+03  0.25043008930E+03  0.84064876459E+02 0.  0.
          5    1    5    5  501    0  0.56079965139E+02  0.60597391953E+02  0.18924304195E+02  0.84836464394E+02  0.47000000000E+01 0. -1.
        -13    1    6    6    0    0  0.32052206504E+00 -0.30337457425E+01  0.13567963053E+03  0.13571392150E+03  0.00000000000E+00 0.  1.
         14    1    6    6    0    0  0.45680120361E+02  0.54821675042E+02  0.89820430335E+02  0.11471616781E+03  0.00000000000E+00 0. -1.
         -5    1    3    3    0  503 -0.11113007189E+03 -0.87839501192E+02  0.77407750661E+02  0.16149216919E+03  0.47000000000E+01 0.  1.
         11    1    4    4    0    0 -0.27105017980E+02 -0.13632944614E+02  0.80248066770E+02  0.85792140659E+02  0.00000000000E+00 0. -1.
        -12    1    4    4    0    0  0.36154482301E+02 -0.10912875446E+02  0.14096797998E+02  0.40310757308E+02  0.00000000000E+00 0.  1.
</event>
<event>
12    1  0.1066489E+000  0.1866273E+03  0.7818608E-02  0.1161833E+00
         21   -1    0    0  503  502  0.00000000000E+00  0.00000000000E+00  0.11819098500E+04  0.11819098500E+04  0.00000000000E+00 0. -1.
         21   -1    0    0  501  503 -0.00000000000E+00 -0.00000000000E+00 -0.73982348850E+02  0.73982348850E+02  0.00000000000E+00 0. -1.
          6    2    1    2  501    0 -0.43256536538E+02 -0.56308094718E+02  0.10428893651E+04  0.10594564481E+04  0.17259202827E+03 0.  0.
         24    2    3    3    0    0  0.40227416472E+01 -0.39444252455E+02  0.94643530592E+03  0.95062081588E+03  0.79800474812E+02 0.  0.
         -6    2    1    2    0  502  0.43256536538E+02  0.56308094718E+02  0.65038136054E+02  0.19643575070E+03  0.17121715897E+03 0.  0.
        -24    2    5    5    0    0  0.68079708938E+02  0.65907597766E+02 -0.39538348477E+01  0.12233904095E+03  0.77282274277E+02 0.  0.
          5    1    3    3  501    0 -0.47279278185E+02 -0.16863842264E+02  0.96454059142E+02  0.10883563225E+03  0.47000000000E+01 0. -1.
        -11    1    4    4    0    0 -0.28031735284E+02 -0.46217473807E+02  0.47939165646E+03  0.48242946982E+03  0.00000000000E+00 0.  1.
         12    1    4    4    0    0  0.32054476931E+02  0.67732213521E+01  0.46704364946E+03  0.46819134606E+03  0.00000000000E+00 0. -1.
         -5    1    5    5    0  502 -0.24823172400E+02 -0.95995030473E+01  0.68991970902E+02  0.74096709749E+02  0.47000000000E+01 0.  1.
         11    1    6    6    0    0  0.16771493353E+02  0.15299421366E+01 -0.31341922379E+02  0.35580047929E+02  0.00000000000E+00 0. -1.
        -12    1    6    6    0    0  0.51308215585E+02  0.64377655629E+02  0.27388087531E+02  0.86758993018E+02  0.00000000000E+00 0.  1.
</event>
<event>
12    1  0.1066489E+000  0.2049631E+03  0.7818608E-02  0.1145968E+00
         21   -1    0    0  501  502  0.00000000000E+00  0.00000000000E+00  0.96196520274E+03  0.96196520274E+03  0.00000000000E+00 0.  1.
         21   -1    0    0  502  503 -0.00000000000E+00 -0.00000000000E+00 -0.46930722269E+02  0.46930722269E+02  0.00000000000E+00 0.  1.
         -6    2    1    2    0  503 -0.70398853971E+02 -0.79495149668E+02  0.31912611952E+03  0.37927741410E+03  0.17531229057E+03 0.  0.
        -24    2    3    3    0    0 -0.39049530786E+02 -0.89822615354E+02  0.32161632218E+03  0.34584497894E+03  0.81109325521E+02 0.  0.
          6    2    1    2  501    0  0.70398853971E+02  0.79495149668E+02  0.59590836095E+03  0.62961851091E+03  0.17331248416E+03 0.  0.
         24    2    5    5    0    0  0.68377470508E+01 -0.21504261953E+02  0.22040208134E+03  0.23557796542E+03  0.80066923672E+02 0.  0.
          5    1    5    5  501    0  0.63561106921E+02  0.10099941162E+03  0.37550627961E+03  0.39404054549E+03  0.47000000000E+01 0. -1.
        -13    1    6    6    0    0 -0.17659420325E+02 -0.40467954153E+02  0.17588499293E+03  0.18134233145E+03  0.00000000000E+00 0.  1.
         14    1    6    6    0    0  0.24497167376E+02  0.18963692200E+02  0.44517088410E+02  0.54235633967E+02  0.00000000000E+00 0. -1.
         -5    1    3    3    0  503 -0.31349323185E+02  0.10327465686E+02 -0.24902026505E+01  0.33432435163E+02  0.47000000000E+01 0.  1.
         13    1    4    4    0    0 -0.19676345578E+02 -0.22900035368E+02  0.19832331686E+02  0.36123283008E+02  0.00000000000E+00 0. -1.
        -14    1    4    4    0    0 -0.19373185209E+02 -0.66922579986E+02  0.30178399049E+03  0.30972169593E+03  0.00000000000E+00 0.  1.
</event>
<event>
12    1  0.1066489E+000  0.1785054E+03  0.7818608E-02  0.1169273E+00
         21   -1    0    0  503  502  0.00000000000E+00  0.00000000000E+00  0.79354442558E+02  0.79354442558E+02  0.00000000000E+00 0. -1.
         21   -1    0    0  501  503 -0.00000000000E+00 -0.00000000000E+00 -0.58837429457E+03  0.58837429457E+03  0.00000000000E+00 0. -1.
          6    2    1    2  501    0  0.47129439476E+02 -0.62227000279E+01 -0.44268534235E+03  0.47729648421E+03  0.17199335872E+03 0.  0.
         24    2    3    3    0    0  0.19699253658E+02 -0.50478999005E+02 -0.37462117382E+03  0.39147191820E+03  0.99865153719E+02 0.  0.
         -6    2    1    2    0  502 -0.47129439476E+02  0.62227000279E+01 -0.66334509661E+02  0.19043225292E+03  0.17205891351E+03 0.  0.
        -24    2    5    5    0    0 -0.60452343590E+02  0.68411442018E+00 -0.10734462271E+03  0.14670474354E+03  0.79652117943E+02 0.  0.
          5    1    3    3  501    0  0.27430185817E+02  0.44256298977E+02 -0.68064168535E+02  0.85824566015E+02  0.47000000000E+01 0. -1.
        -11    1    4    4    0    0 -0.54275310118E+01  0.12087432817E+02 -0.27429291554E+01  0.13530993509E+02  0.00000000000E+00 0.  1.
         12    1    4    4    0    0  0.25126784670E+02 -0.62566431823E+02 -0.37187824466E+03  0.37794092469E+03  0.00000000000E+00 0. -1.
         -5    1    5    5    0  502  0.13322904115E+02  0.55385856077E+01  0.41010113050E+02  0.43727509384E+02  0.47000000000E+01 0.  1.
         11    1    6    6    0    0  0.47811651105E+01  0.68472635506E+00 -0.72666010602E+02  0.72826351597E+02  0.00000000000E+00 0. -1.
        -12    1    6    6    0    0 -0.65233508701E+02 -0.61193487205E-03 -0.34678612109E+02  0.73878391940E+02  0.00000000000E+00 0.  1.
</event>
<event>
12    1  0.1066489E+000  0.1744069E+03  0.7818608E-02  0.1173509E+00
         21   -1    0    0  503  502  0.00000000000E+00  0.00000000000E+00  0.17908587446E+02  0.17908587446E+02  0.00000000000E+00 0. -1.
         21   -1    0    0  501  503 -0.00000000000E+00 -0.00000000000E+00 -0.16954708951E+04  0.16954708951E+04  0.00000000000E+00 0. -1.
          6    2    1    2  501    0 -0.33734382058E+02 -0.10651761625E+01 -0.87816424162E+03  0.89517716734E+03  0.17038363338E+03 0.  0.
         24    2    3    3    0    0  0.28327357085E+02 -0.32757136650E+02 -0.65426431947E+03  0.66063654193E+03  0.80643484817E+02 0.  0.
         -6    2    1    2    0  502  0.33734382058E+02  0.10651761625E+01 -0.79939806601E+03  0.81820231519E+03  0.17110995736E+03 0.  0.
        -24    2    5    5    0    0 -0.62578382215E+01  0.82275095275E+01 -0.74980162701E+03  0.75391722000E+03  0.77986167306E+02 0.  0.
          5    1    3    3  501    0 -0.62061739143E+02  0.31691960488E+02 -0.22389992215E+03  0.23454062541E+03  0.47000000000E+01 0. -1.
        -11    1    4    4    0    0 -0.17599757253E+02 -0.41095753291E+02 -0.30105975816E+03  0.30436095410E+03  0.00000000000E+00 0.  1.
         12    1    4    4    0    0  0.45927114338E+02  0.83386166406E+01 -0.35320456130E+03  0.35627558783E+03  0.00000000000E+00 0. -1.
         -5    1    5    5    0  502  0.39992220279E+02 -0.71623333650E+01 -0.49596439000E+02  0.64285095190E+02  0.47000000000E+01 0.  1.
         11    1    6    6    0    0  0.10193179810E+01  0.41001273239E+02 -0.28920848282E+03  0.29210219094E+03  0.00000000000E+00 0. -1.
        -12    1    6    6    0    0 -0.72771562024E+01 -0.32773763712E+02 -0.46059314419E+03  0.46181502906E+03  0.00000000000E+00 0.  1.
</event>
<event>
12    1  0.1066489E+000  0.1836895E+03  0.7818608E-02  0.1164402E+00
         21   -1    0    0  501  502  0.00000000000E+00  0.00000000000E+00  0.10706058036E+04  0.10706058036E+04  0.00000000000E+00 0.  1.
         21   -1    0    0  502  503 -0.00000000000E+00 -0.00000000000E+00 -0.31649816513E+02  0.31649816513E+02  0.00000000000E+00 0.  1.
         -6    2    1    2    0  503 -0.56456845930E+01  0.62949496925E+02  0.47398453646E+03  0.50833371563E+03  0.17247409290E+03 0.  0.
        -24    2    3    3    0    0 -0.60952474258E+02  0.75381322237E+02  0.35003097464E+03  0.37195202055E+03  0.80181509860E+02 0.  0.
          6    2    1    2  501    0  0.56456845930E+01 -0.62949496925E+02  0.56497145059E+03  0.59392190445E+03  0.17191851467E+03 0.  0.
         24    2    5    5    0    0 -0.58448259473E+01 -0.72906081310E+02  0.18558294397E+03  0.21419977663E+03  0.78045221068E+02 0.  0.
          5    1    5    5  501    0  0.11490510540E+02  0.99565843853E+01  0.37938850662E+03  0.37972212782E+03  0.47000000000E+01 0. -1.
        -13    1    6    6    0    0 -0.19820017574E+01  0.13528062746E+02  0.61408753576E+01  0.14988234145E+02  0.00000000000E+00 0.  1.
         14    1    6    6    0    0 -0.38628241899E+01 -0.86434144056E+02  0.17944206861E+03  0.19921154248E+03  0.00000000000E+00 0. -1.
         -5    1    3    3    0  503  0.55306789665E+02 -0.12431825312E+02  0.12395356183E+03  0.13638169508E+03  0.47000000000E+01 0.  1.
         13    1    4    4    0    0  0.15173371910E+02  0.20601904152E+02  0.35661557083E+02  0.43890959472E+02  0.00000000000E+00 0. -1.
        -14    1    4    4    0    0 -0.76125846168E+02  0.54779418085E+02  0.31436941755E+03  0.32806106107E+03  0.00000000000E+00 0.  1.
</event>
<event>
12    1  0.1066489E+000  0.1970409E+03  0.7818608E-02  0.1152485E+00
         21   -1    0    0  503  502  0.00000000000E+00  0.00000000000E+00  0.24457653663E+03  0.24457653663E+03  0.00000000000E+00 0. -1.
         21   -1    0    0  501  503 -0.00000000000E+00 -0.00000000000E+00 -0.35219744755E+03  0.35219744755E+03  0.00000000000E+00 0.  1.
          6    2    1    2  501    0 -0.59272699303E+02  0.74975696731E+02  0.16787763019E+03  0.25806383884E+03  0.17111235554E+03 0.  0.
         24    2    3    3    0    0 -0.74760316377E+02  0.78075281214E+02  0.65915285741E+02  0.15477839267E+03  0.89031856669E+02 0.  0.
         -6    2    1    2    0  502  0.59272699303E+02 -0.74975696731E+02 -0.27549854111E+03  0.33871014534E+03  0.17230933932E+03 0.  0.
        -24    2    5    5    0    0  0.45610670690E+02 -0.10534019652E+02 -0.53251874424E+02  0.10685878859E+03  0.79948356575E+02 0.  0.
          5    1    3    3  501    0  0.15487617074E+02 -0.30995844835E+01  0.10196234444E+03  0.10328544617E+03  0.47000000000E+01 0. -1.
        -11    1    4    4    0    0 -0.76368428679E+02  0.95613039850E+02  0.59123359610E+02  0.13590276649E+03  0.00000000000E+00 0.  1.
         12    1    4    4    0    0  0.16081123019E+01 -0.17537758635E+02  0.67919261309E+01  0.18875626180E+02  0.00000000000E+00 0. -1.
         -5    1    5    5    0  502  0.13662028613E+02 -0.64441677079E+02 -0.22224666669E+03  0.23185135674E+03  0.47000000000E+01 0.  1.
         11    1    6    6    0    0  0.19366557771E+02 -0.43173196828E+02 -0.13720258987E+02  0.49266966528E+02  0.00000000000E+00 0. -1.
        -12    1    6    6    0    0  0.26244112919E+02  0.32639177176E+02 -0.39531615437E+02  0.57591822064E+02  0.00000000000E+00 0.  1.
</event>
<event>
12    1  0.1066489E+000  0.2878029E+03  0.7818608E-02  0.1091871E+00
         21   -1    0    0  501  502  0.00000000000E+00  0.00000000000E+00  0.66254082135E+03  0.66254082135E+03  0.00000000000E+00 0.  1.
         21   -1    0    0  502  503 -0.00000000000E+00 -0.00000000000E+00 -0.15030800421E+03  0.15030800421E+03  0.00000000000E+00 0. -1.
         -6    2    1    2    0  503  0.17675070018E+03  0.14970121317E+03  0.42572711553E+03  0.51232635253E+03  0.16608266425E+03 0.  0.
        -24    2    3    3    0    0  0.14361713622E+03  0.40487687955E+02  0.28064691514E+03  0.32767592146E+03  0.79647246240E+02 0.  0.
          6    2    1    2  501    0 -0.17675070018E+03 -0.14970121317E+03  0.86505701615E+02  0.30052247302E+03  0.17081936993E+03 0.  0.
         24    2    5    5    0    0 -0.76938869936E+02 -0.60595638549E+02  0.10559107243E+03  0.16528732129E+03  0.81111052788E+02 0.  0.
          5    1    5    5  501    0 -0.99811830239E+02 -0.89105574624E+02 -0.19085370818E+02  0.13523515173E+03  0.47000000000E+01 0. -1.
        -11    1    6    6    0    0  0.51836552316E+01 -0.36045826064E+02  0.11918409723E+02  0.38317363538E+02  0.00000000000E+00 0.  1.
         12    1    6    6    0    0 -0.82122525168E+02 -0.24549812485E+02  0.93672662711E+02  0.12696995775E+03  0.00000000000E+00 0. -1.
         -5    1    3    3    0  503  0.33133563958E+02  0.10921352522E+03  0.14508020039E+03  0.18465043108E+03  0.47000000000E+01 0.  1.
         13    1    4    4    0    0  0.30820180934E+02  0.46858715076E+02  0.88437508213E+02  0.10472256486E+03  0.00000000000E+00 0. -1.
        -14    1    4    4    0    0  0.11279695528E+03 -0.63710271203E+01  0.19220940693E+03  0.22295335660E+03  0.00000000000E+00 0.  1.
</event>
<event>
12    1  0.1066489E+000  0.4102580E+03  0.7818608E-02  0.1040353E+00
         21   -1    0    0  501  502  0.00000000000E+00  0.00000000000E+00  0.72520874825E+02  0.72520874825E+02  0.00000000000E+00 0. -1.
         21   -1    0    0  502  503 -0.00000000000E+00 -0.00000000000E+00 -0.25030871716E+04  0.25030871716E+04  0.00000000000E+00 0. -1.
         -6    2    1    2    0  503 -0.36333968935E+03 -0.80172681385E+02 -0.86459032902E+03  0.95698905210E+03  0.17282424629E+03 0.  0.
        -24    2    3    3    0    0 -0.31791843168E+03 -0.58578243480E+02 -0.58643763792E+03  0.67428705359E+03  0.79059393218E+02 0.  0.
          6    2    1    2  501    0  0.36333968935E+03  0.80172681385E+02 -0.15659759678E+04  0.16186189944E+04  0.17088981393E+03 0.  0.
         24    2    5    5    0    0  0.30077788266E+03  0.81737380233E+02 -0.10316669117E+04  0.10806369451E+04  0.79317440243E+02 0.  0.
          5    1    5    5  501    0  0.62561806689E+02 -0.15646988477E+01 -0.53430905605E+03  0.53798204925E+03  0.47000000000E+01 0. -1.
        -11    1    6    6    0    0  0.60014327817E+02  0.46156227374E+02 -0.19130258067E+03  0.20573962730E+03  0.00000000000E+00 0.  1.
         12    1    6    6    0    0  0.24076355485E+03  0.35581152859E+02 -0.84036433107E+03  0.87489731782E+03  0.00000000000E+00 0. -1.
         -5    1    3    3    0  503 -0.45421257671E+02 -0.21594437905E+02 -0.27815269110E+03  0.28270199851E+03  0.47000000000E+01 0.  1.
         11    1    4    4    0    0 -0.18856825107E+03  0.34974861007E+01 -0.31089865619E+03  0.36363194599E+03  0.00000000000E+00 0. -1.
        -12    1    4    4    0    0 -0.12935018061E+03 -0.62075729581E+02 -0.27553898173E+03  0.31065510760E+03  0.00000000000E+00 0.  1.
</event>
<event>
12    1  0.1066489E+000  0.1897949E+03  0.7818608E-02  0.1160110E+00
         21   -1    0    0  503  502  0.00000000000E+00  0.00000000000E+00  0.16475418786E+04  0.16475418786E+04  0.00000000000E+00 0.  1.
         21   -1    0    0  501  503 -0.00000000000E+00 -0.00000000000E+00 -0.21340564033E+02  0.21340564033E+02  0.00000000000E+00 0.  1.
          6    2    1    2  501    0 -0.55056635123E+02  0.56998328644E+02  0.90830530365E+03  0.92792274587E+03  0.17245885054E+03 0.  0.
         24    2    3    3    0    0 -0.93395634929E+02  0.64943387887E+01  0.68164947953E+03  0.69251780857E+03  0.78549227795E+02 0.  0.
         -6    2    1    2    0  502  0.55056635123E+02 -0.56998328644E+02  0.71789601090E+03  0.74095969675E+03  0.16542837481E+03 0.  0.
        -24    2    5    5    0    0  0.82413996303E+02  0.10204179246E+02  0.44227686218E+03  0.45591126679E+03  0.73144161125E+02 0.  0.
          5    1    3    3  501    0  0.38338999806E+02  0.50503989855E+02  0.22665582412E+03  0.23540493730E+03  0.47000000000E+01 0. -1.
        -13    1    4    4    0    0 -0.55926590471E+02  0.33248824525E+02  0.24659851729E+03  0.25503744153E+03  0.00000000000E+00 0.  1.
         14    1    4    4    0    0 -0.37469044458E+02 -0.26754485737E+02  0.43505096224E+03  0.43748036704E+03  0.00000000000E+00 0. -1.
         -5    1    5    5    0  502 -0.27357361180E+02 -0.67202507890E+02  0.27561914872E+03  0.28504842995E+03  0.47000000000E+01 0.  1.
         13    1    6    6    0    0  0.39862049445E+02 -0.73203379320E+01  0.35443733310E+03  0.35674695994E+03  0.00000000000E+00 0. -1.
        -14    1    6    6    0    0  0.42551946858E+02  0.17524517178E+02  0.87839529081E+02  0.99164306849E+02  0.00000000000E+00 0.  1.
</event>
<event>
12    1  0.1066489E+000  0.1747305E+03  0.7818608E-02  0.1173094E+00
         21   -1    0    0  503  502  0.00000000000E+00  0.00000000000E+00  0.14917750709E+03  0.14917750709E+03  0.00000000000E+00 0. -1.
         21   -1    0    0  501  503 -0.00000000000E+00 -0.00000000000E+00 -0.20798529405E+03  0.20798529405E+03  0.00000000000E+00 0. -1.
          6    2    1    2  501    0 -0.13945681427E+01 -0.31207406072E+02 -0.53350802874E+02  0.18234715797E+03  0.17154687651E+03 0.  0.
         24    2    3    3    0    0  0.55083896400E+02 -0.52564804838E+02 -0.14369370779E+02  0.11032217975E+03  0.78531587139E+02 0.  0.
         -6    2    1    2    0  502  0.13945681427E+01  0.31207406072E+02 -0.54569840885E+01  0.17481564317E+03  0.17191533791E+03 0.  0.
        -24    2    5    5    0    0 -0.60981355177E+01 -0.40973587145E+02  0.25009172593E+02  0.95970775915E+02  0.82878881602E+02 0.  0.
          5    1    3    3  501    0 -0.56478464543E+02  0.21357398766E+02 -0.38981432095E+02  0.72024978218E+02  0.47000000000E+01 0. -1.
        -13    1    4    4    0    0  0.51780993495E+02  0.39311204793E+01 -0.13777995621E+02  0.53726698753E+02  0.00000000000E+00 0.  1.
         14    1    4    4    0    0  0.33029029052E+01 -0.56495925317E+02 -0.59137515793E+00  0.56595481000E+02  0.00000000000E+00 0. -1.
         -5    1    5    5    0  502  0.74927036604E+01  0.72180993217E+02 -0.30466156681E+02  0.78844867258E+02  0.47000000000E+01 0.  1.
         13    1    6    6    0    0  0.35690544068E+02 -0.30331619837E+02  0.24469724885E+02  0.52844957506E+02  0.00000000000E+00 0. -1.
        -14    1    6    6    0    0 -0.41788679585E+02 -0.10641967308E+02  0.53944770762E+00  0.43125818410E+02  0.00000000000E+00 0.  1.
</event>
<event>
12    1  0.1066489E+000  0.1941435E+03  0.7818608E-02  0.1154799E+00
         21   -1    0    0  503  502  0.00000000000E+00  0.00000000000E+00  0.47284074466E+03  0.47284074466E+03  0.00000000000E+00 0. -1.
         21   -1    0    0  501  503 -0.00000000000E+00 -0.00000000000E+00 -0.17309779609E+03  0.17309779609E+03  0.00000000000E+00 0. -1.
          6    2    1    2  501    0 -0.51834169912E+02 -0.71190201673E+02 -0.87421947616E+02  0.21282383799E+03  0.17290622634E+03 0.  0.
         24    2    3    3    0    0 -0.80953599318E+02 -0.90707863755E+01 -0.19612584176E+02  0.11624763649E+03  0.80579743882E+02 0.  0.
         -6    2    1    2    0  502  0.51834169912E+02  0.71190201673E+02  0.38716489619E+03  0.43311470275E+03  0.17302272370E+03 0.  0.
        -24    2    5    5    0    0  0.15633864660E+02 -0.24726537669E+02  0.11400550957E+03  0.14131233217E+03  0.78205496096E+02 0.  0.
          5    1    3    3  501    0  0.29119429406E+02 -0.62119415298E+02 -0.67809363440E+02  0.96576201499E+02  0.47000000000E+01 0. -1.
        -11    1    4    4    0    0 -0.40411166180E+02 -0.32524037231E+02 -0.39662473347E+02  0.65299212413E+02  0.00000000000E+00 0.  1.
         12    1    4    4    0    0 -0.40542433138E+02  0.23453250855E+02  0.20049889170E+02  0.50948424080E+02  0.00000000000E+00 0. -1.
         -5    1    5    5    0  502  0.36200305252E+02  0.95916739342E+02  0.27315938661E+03  0.29180237059E+03  0.47000000000E+01 0.  1.
         11    1    6    6    0    0  0.95658256442E+01 -0.15126210606E+02 -0.74073305530E+01  0.19369455683E+02  0.00000000000E+00 0. -1.
        -12    1    6    6    0    0  0.60680390155E+01 -0.96003270632E+01  0.12141284013E+03  0.12194287648E+03  0.00000000000E+00 0.  1.
</event>
<event>
12    1  0.1066489E+000  0.1758530E+03  0.7818608E-02  0.1172400E+00
         21   -1    0    0  501  502  0.00000000000E+00  0.00000000000E+00  0.24422348287E+02  0.24422348287E+02  0.00000000000E+00 0.  1.
         21   -1    0    0  502  503 -0.00000000000E+00 -0.00000000000E+00 -0.19682339575E+04  0.19682339575E+04  0.00000000000E+00 0.  1.
         -6    2    1    2    0  503 -0.28010214970E+02  0.14735335471E+02 -0.36692201454E+03  0.40599154156E+03  0.17086738954E+03 0.  0.
        -24    2    3    3    0    0  0.35009149531E+02  0.34975859187E+02 -0.28766912049E+03  0.30262699097E+03  0.79878792587E+02 0.  0.
          6    2    1    2  501    0  0.28010214970E+02 -0.14735335471E+02 -0.15768895947E+04  0.15866647642E+04  0.17298143832E+03 0.  0.
         24    2    5    5    0    0  0.57229516856E+02  0.22587820715E+02 -0.13973062506E+04  0.14008717260E+04  0.78685497151E+02 0.  0.
          5    1    5    5  501    0 -0.29219301886E+02 -0.37323156187E+02 -0.17958334407E+03  0.18579303824E+03  0.47000000000E+01 0. -1.
        -11    1    6    6    0    0 -0.50954110292E+00  0.34661438144E+02 -0.77532717090E+03  0.77610173100E+03  0.00000000000E+00 0.  1.
         12    1    6    6    0    0  0.57739057959E+02 -0.12073617429E+02 -0.62197907971E+03  0.62476999500E+03  0.00000000000E+00 0. -1.
         -5    1    3    3    0  503 -0.63019364501E+02 -0.20240523716E+02 -0.79252894050E+02  0.10336455058E+03  0.47000000000E+01 0.  1.
         13    1    4    4    0    0 -0.87999038118E+01 -0.20634209446E+02 -0.54140523839E+02  0.58603798751E+02  0.00000000000E+00 0. -1.
        -14    1    4    4    0    0  0.43809053343E+02  0.55610068633E+02 -0.23352859665E+03  0.24402319222E+03  0.00000000000E+00 0.  1.
</event>
<event>
12    1  0.1066489E+000  0.1768605E+03  0.7818608E-02  0.1171314E+00
         21   -1    0    0  503  502  0.00000000000E+00  0.00000000000E+00  0.10834645854E+03  0.10834645854E+03  0.00000000000E+00 0. -1.
         21   -1    0    0  501  503 -0.00000000000E+00 -0.00000000000E+00 -0.42875103804E+03  0.42875103804E+03  0.00000000000E+00 0. -1.
          6    2    1    2  501    0  0.29900088238E+02  0.11199714811E+02 -0.31578089933E+03  0.36193538790E+03  0.17395459104E+03 0.  0.
         24    2    3    3    0    0  0.17536344173E+02 -0.36634352738E+02 -0.75814035336E+02  0.11689019615E+03  0.79157759152E+02 0.  0.
         -6    2    1    2    0  502 -0.29900088238E+02 -0.11199714811E+02 -0.46236801746E+01  0.17516210868E+03  0.17216543500E+03 0.  0.
        -24    2    5    5    0    0 -0.33826236921E+02 -0.56378439748E+02  0.38375676295E+02  0.11249180880E+03  0.82818909333E+02 0.  0.
          5    1    3    3  501    0  0.12363744064E+02  0.47834067549E+02 -0.23996686399E+03  0.24504519175E+03  0.47000000000E+01 0. -1.
        -13    1    4    4    0    0 -0.16328456150E+02 -0.17731560688E+02 -0.74261830230E+02  0.78075899955E+02  0.00000000000E+00 0.  1.
         14    1    4    4    0    0  0.33864800323E+02 -0.18902792050E+02 -0.15522051057E+01  0.38814296192E+02  0.00000000000E+00 0. -1.
         -5    1    5    5    0  502  0.39261486835E+01  0.45178724937E+02 -0.42999356470E+02  0.62670299881E+02  0.47000000000E+01 0.  1.
         13    1    6    6    0    0  0.90591950350E+01 -0.59267126619E+02  0.94826202361E+01  0.60700752869E+02  0.00000000000E+00 0. -1.
        -14    1    6    6    0    0 -0.42885431956E+02  0.28886868710E+01  0.28893056059E+02  0.51791055930E+02  0.00000000000E+00 0.  1.
</event>
<event>
12    1  0.1066489E+000  0.2603826E+03  0.7818608E-02  0.1107032E+00
         21   -1    0    0  503  502  0.00000000000E+00  0.00000000000E+00  0.19102014009E+03  0.19102014009E+03  0.00000000000E+00 0.  1.
         21   -1    0    0  501  503 -0.00000000000E+00 -0.00000000000E+00 -0.43937615647E+03  0.43937615647E+03  0.00000000000E+00 0. -1.
          6    2    1    2  501    0 -0.84608967793E+02  0.17635754004E+03 -0.26308263532E+03  0.36959753647E+03  0.17067280567E+03 0.  0.
         24    2    3    3    0    0 -0.16642396888E+02  0.16887564012E+03 -0.21852254473E+03  0.28784715261E+03  0.79422474850E+02 0.  0.
         -6    2    1    2    0  502  0.84608967793E+02 -0.17635754004E+03  0.14726618945E+02  0.26079876010E+03  0.17186756705E+03 0.  0.
        -24    2    5    5    0    0 -0.13890686720E+01 -0.22356198583E+02 -0.34254884116E+02  0.77677616891E+02  0.66020344995E+02 0.  0.
          5    1    3    3  501    0 -0.67966570905E+02  0.74818999182E+01 -0.44560090589E+02  0.81750383854E+02  0.47000000000E+01 0. -1.
        -13    1    4    4    0    0 -0.34275249492E+02  0.96052593637E+02 -0.77266926807E+02  0.12794948789E+03  0.00000000000E+00 0.  1.
         14    1    4    4    0    0  0.17632852604E+02  0.72823046485E+02 -0.14125561792E+03  0.15989766473E+03  0.00000000000E+00 0. -1.
         -5    1    5    5    0  502  0.85998036466E+02 -0.15400134146E+03  0.48981503061E+02  0.18312114320E+03  0.47000000000E+01 0.  1.
         11    1    6    6    0    0 -0.12393974237E+02 -0.14493646942E+02 -0.51988004976E+02  0.55375347046E+02  0.00000000000E+00 0. -1.
        -12    1    6    6    0    0  0.11004905565E+02 -0.78625516409E+01  0.17733120860E+02  0.22302269845E+02  0.00000000000E+00 0.  1.
</event>
<event>
12    1  0.1066489E+000  0.1794442E+03  0.7818608E-02  0.1168657E+00
         21   -1    0    0  503  502  0.00000000000E+00  0.00000000000E+00  0.38753263514E+03  0.38753263514E+03  0.00000000000E+00 0. -1.
         21   -1    0    0  501  503 -0.00000000000E+00 -0.00000000000E+00 -0.12548071772E+03  0.12548071772E+03  0.00000000000E+00 0. -1.
          6    2    1    2  501    0 -0.33794048654E+02 -0.35489246372E+02  0.28146892512E+03  0.33380377501E+03  0.17262294191E+03 0.  0.
         24    2    3    3    0    0 -0.49411652918E+02  0.17138066173E+01  0.66181145838E+02  0.11471727469E+03  0.79596862198E+02 0.  0.
         -6    2    1    2    0  502  0.33794048654E+02  0.35489246372E+02 -0.19417007698E+02  0.17920957784E+03  0.17128201385E+03 0.  0.
        -24    2    5    5    0    0 -0.40729411154E+02  0.64220495293E+02 -0.71511165425E+01  0.98266555830E+02  0.61822492495E+02 0.  0.
          5    1    3    3  501    0  0.15617604264E+02 -0.37203052989E+02  0.21528777928E+03  0.21908650032E+03  0.47000000000E+01 0. -1.
        -11    1    4    4    0    0 -0.45189467344E+02 -0.23795066447E+02  0.88597036057E+01  0.51834230910E+02  0.00000000000E+00 0.  1.
         12    1    4    4    0    0 -0.42221855736E+01  0.25508873064E+02  0.57321442232E+02  0.62883043785E+02  0.00000000000E+00 0. -1.
         -5    1    5    5    0  502  0.74523459809E+02 -0.28731248921E+02 -0.12265891156E+02  0.80943022011E+02  0.47000000000E+01 0.  1.
         11    1    6    6    0    0 -0.47301128201E+02  0.49846627120E+02 -0.26175136330E+02  0.73533806690E+02  0.00000000000E+00 0. -1.
        -12    1    6    6    0    0  0.65717170469E+01  0.14373868173E+02  0.19024019787E+02  0.24732749141E+02  0.00000000000E+00 0.  1.
</event>
<event>
12    1  0.1066489E+000  0.1831433E+03  0.7818608E-02  0.1164873E+00
         21   -1    0    0  503  502  0.00000000000E+00  0.00000000000E+00  0.14296524441E+03  0.14296524441E+03  0.00000000000E+00 0. -1.
         21   -1    0    0  501  503 -0.00000000000E+00 -0.00000000000E+00 -0.24385525043E+03  0.24385525043E+03  0.00000000000E+00 0. -1.
          6    2    1    2  501    0  0.23182225430E+02 -0.57276487471E+02 -0.11903602139E+02  0.18320305838E+03  0.17205712210E+03 0.  0.
         24    2    3    3    0    0  0.44369144336E+02 -0.89888340314E+02 -0.19561434455E+02  0.14328876427E+03  0.10050117191E+03 0.  0.
         -6    2    1    2    0  502 -0.23182225430E+02  0.57276487471E+02 -0.88986403882E+02  0.20361743646E+03  0.17240495573E+03 0.  0.
        -24    2    5    5    0    0 -0.10983846427E+02 -0.33358797337E+02 -0.54426601238E+02  0.10573983298E+03  0.83577527573E+02 0.  0.
          5    1    3    3  501    0 -0.21186918906E+02  0.32611852844E+02  0.76578323156E+01  0.39914294111E+02  0.47000000000E+01 0. -1.
        -13    1    4    4    0    0  0.66412225059E+02 -0.52325563745E+02  0.17217008218E+02  0.86284260618E+02  0.00000000000E+00 0.  1.
         14    1    4    4    0    0 -0.22043080723E+02 -0.37562776570E+02 -0.36778442673E+02  0.57004503654E+02  0.00000000000E+00 0. -1.
         -5    1    5    5    0  502 -0.12198379004E+02  0.90635284807E+02 -0.34559802644E+02  0.97877603471E+02  0.47000000000E+01 0.  1.
         11    1    6    6    0    0 -0.51122300461E+01  0.96352530986E+01  0.18152841151E+02  0.21177786479E+02  0.00000000000E+00 0. -1.
        -12    1    6    6    0    0 -0.58716163805E+01 -0.42994050435E+02 -0.72579442388E+02  0.84562046505E+02  0.00000000000E+00 0.  1.
</event>
<event>
12    1  0.1066489E+000  0.2537836E+03  0.7818608E-02  0.1110942E+00
         21   -1    0    0  501  502  0.00000000000E+00  0.00000000000E+00  0.50142879134E+03  0.50142879134E+03  0.00000000000E+00 0.  1.
         21   -1    0    0  502  503 -0.00000000000E+00 -0.00000000000E+00 -0.12862275973E+03  0.12862275973E+03  0.00000000000E+00 0.  1.
         -6    2    1    2    0  503 -0.21860889260E+02 -0.18526933295E+03  0.17417281647E+03  0.30780235948E+03  0.17205667175E+03 0.  0.
        -24    2    3    3    0    0 -0.22700973513E+02 -0.20794471131E+03  0.17579656083E+03  0.28457295848E+03  0.79504721486E+02 0.  0.
          6    2    1    2  501    0  0.21860889260E+02  0.18526933295E+03  0.19863321514E+03  0.32224919158E+03  0.17200803210E+03 0.  0.
         24    2    5    5    0    0  0.50204195426E+02  0.44330236070E+02  0.12041496442E+03  0.15851966834E+03  0.78377870139E+02 0.  0.
          5    1    5    5  501    0 -0.28343306166E+02  0.14093909688E+03  0.78218250723E+02  0.16372952324E+03  0.47000000000E+01 0. -1.
        -13    1    6    6    0    0  0.17743652098E+02  0.37389531162E+02  0.11821775073E+03  0.12525274775E+03  0.00000000000E+00 0.  1.
         14    1    6    6    0    0  0.32460543327E+02  0.69407049086E+01  0.21972136825E+01  0.33266920592E+02  0.00000000000E+00 0. -1.
         -5    1    3    3    0  503  0.84008425314E+00  0.22675378358E+02 -0.16237443598E+01  0.23229401003E+02  0.47000000000E+01 0.  1.
         13    1    4    4    0    0 -0.24201312825E+01 -0.95662943281E+02  0.13046872275E+03  0.16180031943E+03  0.00000000000E+00 0. -1.
        -14    1    4    4    0    0 -0.20280842231E+02 -0.11228176803E+03  0.45327838075E+02  0.12277263905E+03  0.00000000000E+00 0.  1.
</event>
<event>
12    1  0.1066489E+000  0.1900616E+03  0.7818608E-02  0.1158467E+00
         21   -1    0    0  501  502  0.00000000000E+00  0.00000000000E+00  0.66566108844E+03  0.66566108844E+03  0.00000000000E+00 0.  1.
         21   -1    0    0  502  503 -0.00000000000E+00 -0.00000000000E+00 -0.79741296483E+02  0.79741296483E+02  0.00000000000E+00 0.  1.
         -6    2    1    2    0  503  0.80383999794E+02  0.82174861316E+01  0.50408021718E+03  0.53872097256E+03  0.17202995793E+03 0.  0.
        -24    2    3    3    0    0  0.46676084393E+02  0.67866400535E+02  0.37240758805E+03  0.39021512146E+03  0.82437395659E+02 0.  0.
          6    2    1    2  501    0 -0.80383999794E+02 -0.82174861316E+01  0.81839574774E+02  0.20668141236E+03  0.17172762070E+03 0.  0.
         24    2    5    5    0    0 -0.12288467668E+03 -0.80785997261E+00  0.55371305724E+02  0.15584963723E+03  0.78242133963E+02 0.  0.
          5    1    5    5  501    0  0.42500676887E+02 -0.74096261590E+01  0.26468269050E+02  0.50831775124E+02  0.47000000000E+01 0. -1.
        -13    1    6    6    0    0 -0.38439809512E+02 -0.28912295545E+01  0.59928872175E+02  0.71256212949E+02  0.00000000000E+00 0.  1.
         14    1    6    6    0    0 -0.84444867169E+02  0.20833695819E+01 -0.45575664510E+01  0.84593424283E+02  0.00000000000E+00 0. -1.
         -5    1    3    3    0  503  0.33707915401E+02 -0.59648914403E+02  0.13167262913E+03  0.14850585111E+03  0.47000000000E+01 0.  1.
         11    1    4    4    0    0  0.53960951683E+02  0.73671117944E+02  0.36925804563E+03  0.38038233685E+03  0.00000000000E+00 0. -1.
        -12    1    4    4    0    0 -0.72848672902E+01 -0.58047174086E+01  0.31495424131E+01  0.98327846026E+01  0.00000000000E+00 0.  1.
</event>
<event>
12    1  0.1066489E+000  0.2731118E+03  0.7818608E-02  0.1099581E+00
         21   -1    0    0  501  502  0.00000000000E+00  0.00000000000E+00  0.11803499754E+03  0.11803499754E+03  0.00000000000E+00 0. -1.
         21   -1    0    0  502  503 -0.00000000000E+00 -0.00000000000E+00 -0.14339055256E+04  0.14339055256E+04  0.00000000000E+00 0. -1.
         -6    2    1    2    0  503  0.20051578424E+03  0.68841986375E+02 -0.12384018247E+04  0.12680541408E+04  0.17139552372E+03 0.  0.
        -24    2    3    3    0    0  0.83134216330E+02  0.20748918047E+02 -0.31868649901E+03  0.33962011181E+03  0.80242882395E+02 0.  0.
          6    2    1    2  501    0 -0.20051578424E+03 -0.68841986375E+02 -0.77468703346E+02  0.28388638242E+03  0.17217514137E+03 0.  0.
         24    2    5    5    0    0 -0.16291161002E+03 -0.60441093959E+02 -0.11978903871E+03  0.22646034566E+03  0.82106978036E+02 0.  0.
          5    1    5    5  501    0 -0.37604174220E+02 -0.84008924162E+01  0.42320335365E+02  0.57426036757E+02  0.47000000000E+01 0. -1.
        -11    1    6    6    0    0 -0.15921423322E+03 -0.44514408615E+02 -0.80443512471E+02  0.18385283064E+03  0.00000000000E+00 0.  1.
         12    1    6    6    0    0 -0.36973768000E+01 -0.15926685344E+02 -0.39345526240E+02  0.42607515023E+02  0.00000000000E+00 0. -1.
         -5    1    3    3    0  503  0.11738156791E+03  0.48093068328E+02 -0.91971532573E+03  0.92843402894E+03  0.47000000000E+01 0.  1.
         11    1    4    4    0    0  0.22237983536E+02 -0.29834964644E+02 -0.12370499844E+03  0.12918041518E+03  0.00000000000E+00 0. -1.
        -12    1    4    4    0    0  0.60896232794E+02  0.50583882691E+02 -0.19498150057E+03  0.21043969664E+03  0.00000000000E+00 0.  1.
</event>
<event>
12    1  0.1066489E+000  0.1936244E+03  0.7818608E-02  0.1155339E+00
         21   -1    0    0  501  502  0.00000000000E+00  0.00000000000E+00  0.42946434613E+03  0.42946434613E+03  0.00000000000E+00 0.  1.
         21   -1    0    0  502  503 -0.00000000000E+00 -0.00000000000E+00 -0.87458553736E+02  0.87458553736E+02  0.00000000000E+00 0.  1.
         -6    2    1    2    0  503  0.88054352726E+02  0.14398506100E+01  0.18827863707E+03  0.27007269350E+03  0.17243773483E+03 0.  0.
        -24    2    3    3    0    0  0.10776200202E+03  0.31847978583E+02  0.18851366360E+03  0.23353242906E+03  0.79831392587E+02 0.  0.
          6    2    1    2  501    0 -0.88054352726E+02 -0.14398506100E+01  0.15372715532E+03  0.24685020636E+03  0.17189340852E+03 0.  0.
         24    2    5    5    0    0 -0.96338463816E+02  0.49782546776E+02  0.13831485980E+03  0.19251799360E+03  0.78567014984E+02 0.  0.
          5    1    5    5  501    0  0.82841110901E+01 -0.51222397386E+02  0.15412295521E+02  0.54332212763E+02  0.47000000000E+01 0. -1.
        -13    1    6    6    0    0 -0.44673201106E+02 -0.86460201500E+01  0.89786970825E+02  0.10065857485E+03  0.00000000000E+00 0.  1.
         14    1    6    6    0    0 -0.51665262710E+02  0.58428566926E+02  0.48527888978E+02  0.91859418747E+02  0.00000000000E+00 0. -1.
         -5    1    3    3    0  503 -0.19707649298E+02 -0.30408127973E+02 -0.23502652630E+00  0.36540264437E+02  0.47000000000E+01 0.  1.
         13    1    4    4    0    0  0.37565563790E+02  0.35003981776E+02  0.13728631612E+03  0.14657415501E+03  0.00000000000E+00 0. -1.
        -14    1    4    4    0    0  0.70196438235E+02 -0.31560031932E+01  0.51227347473E+02  0.86958274052E+02  0.00000000000E+00 0.  1.
</event>
<event>
12    1  0.1066489E+000  0.1791833E+03  0.7818608E-02  0.1168816E+00
         21   -1    0    0  503  502  0.00000000000E+00  0.00000000000E+00  0.41107926522E+03  0.41107926522E+03  0.00000000000E+00 0.  1.
         21   -1    0    0  501  503 -0.00000000000E+00 -0.00000000000E+00 -0.11176018397E+03  0.11176018397E+03  0.00000000000E+00 0.  1.
          6    2    1    2  501    0  0.12582898745E+02 -0.42204933830E+02  0.29369247861E+03  0.34356781434E+03  0.17275411798E+03 0.  0.
         24    2    3    3    0    0  0.63227162149E+02 -0.63148510362E+02  0.16378911851E+03  0.20249886744E+03  0.78698841027E+02 0.  0.
         -6    2    1    2    0  502 -0.12582898745E+02  0.42204933830E+02  0.56266026381E+01  0.17927163485E+03  0.17368671401E+03 0.  0.
        -24    2    5    5    0    0 -0.49841257500E+02  0.48141657577E+02  0.53491096935E+02  0.11814447394E+03  0.79341345643E+02 0.  0.
          5    1    3    3  501    0 -0.50644263404E+02  0.20943576532E+02  0.12990336010E+03  0.14106894690E+03  0.47000000000E+01 0. -1.
        -11    1    4    4    0    0  0.95568973390E+01 -0.27786995302E+01 -0.79324725153E+01  0.12727119785E+02  0.00000000000E+00 0.  1.
         12    1    4    4    0    0  0.53670264810E+02 -0.60369810831E+02  0.17172159103E+03  0.18977174766E+03  0.00000000000E+00 0. -1.
         -5    1    5    5    0  502  0.37258358755E+02 -0.59367237474E+01 -0.47864494296E+02  0.61127160904E+02  0.47000000000E+01 0.  1.
         13    1    6    6    0    0 -0.46513125749E+02  0.62030890923E+02  0.17584597824E+02  0.79501700462E+02  0.00000000000E+00 0. -1.
        -14    1    6    6    0    0 -0.33281317505E+01 -0.13889233346E+02  0.35906499111E+02  0.38642773481E+02  0.00000000000E+00 0.  1.
</event>
<event>
12    1  0.1066489E+000  0.2812584E+03  0.7818608E-02  0.1095170E+00
         21   -1    0    0  501  502  0.00000000000E+00  0.00000000000E+00  0.80740541535E+03  0.80740541535E+03  0.00000000000E+00 0. -1.
         21   -1    0    0  502  503 -0.00000000000E+00 -0.00000000000E+00 -0.10151815682E+03  0.10151815682E+03  0.00000000000E+00 0. -1.
         -6    2    1    2    0  503 -0.17409232115E+03  0.13583528295E+03  0.26234718541E+03  0.38372446101E+03  0.17221804757E+03 0.  0.
        -24    2    3    3    0    0 -0.46738549201E+02  0.85637388818E+02  0.59206681197E+02  0.13872044828E+03  0.78864930905E+02 0.  0.
          6    2    1    2  501    0  0.17409232115E+03 -0.13583528295E+03  0.44354007312E+03  0.52519911116E+03  0.17420375863E+03 0.  0.
         24    2    5    5    0    0  0.68416964776E+02 -0.13779126103E+03  0.30634651131E+03  0.35194995475E+03  0.79707421034E+02 0.  0.
          5    1    5    5  501    0  0.10567535637E+03  0.19559780856E+01  0.13719356181E+03  0.17324915641E+03  0.47000000000E+01 0. -1.
        -11    1    6    6    0    0  0.55544577325E+02 -0.50999868895E+02  0.20200758567E+03  0.21562293794E+03  0.00000000000E+00 0.  1.
         12    1    6    6    0    0  0.12872387451E+02 -0.86791392136E+02  0.10433892564E+03  0.13632701681E+03  0.00000000000E+00 0. -1.
         -5    1    3    3    0  503 -0.12735377195E+03  0.50197894128E+02  0.20314050421E+03  0.24500401273E+03  0.47000000000E+01 0.  1.
         11    1    4    4    0    0 -0.54358821006E+02  0.74993160091E+02  0.74300277708E+02  0.11874083859E+03  0.00000000000E+00 0. -1.
        -12    1    4    4    0    0  0.76202718045E+01  0.10644228727E+02 -0.15093596511E+02  0.19979609686E+02  0.00000000000E+00 0.  1.
</event>
<event>
12    1  0.1268800E+000  0.3358140E+03  0.7818608E-02  0.1068787E+00
         21   -1    0    0  501  502  0.00000000000E+00  0.00000000000E+00  0.14376385283E+04  0.14376385283E+04  0.00000000000E+00 0.  1.
         21   -1    0    0  502  503 -0.00000000000E+00 -0.00000000000E+00 -0.43756781163E+03  0.43756781163E+03  0.00000000000E+00 0.  1.
         -6    2    1    2    0  503  0.27748704846E+03  0.73572960570E+02  0.13501812555E+04  0.13913160886E+04  0.17423832297E+03 0.  0.
        -24    2    3    3    0    0  0.26033366612E+03  0.69771205349E+02  0.13424022626E+04  0.13715349208E+04  0.80140911160E+02 0.  0.
          6    2    1    2  501    0 -0.27748704846E+03 -0.73572960570E+02 -0.35011053877E+03  0.48389025135E+03  0.17076399913E+03 0.  0.
         24    2    5    5    0    0 -0.29028694073E+03 -0.56609447416E+02 -0.29824509963E+03  0.42764336878E+03  0.80359031317E+02 0.  0.
          5    1    5    5  501    0  0.12799892273E+02 -0.16963513153E+02 -0.51865439144E+02  0.56246882565E+02  0.47000000000E+01 0. -1.
        -11    1    6    6    0    0 -0.97372246807E+01  0.89176866725E+00  0.46246906441E+01  0.10816494783E+02  0.00000000000E+00 0.  1.
         12    1    6    6    0    0 -0.28054971605E+03 -0.57501216084E+02 -0.30286979027E+03  0.41682687400E+03  0.00000000000E+00 0. -1.
         -5    1    3    3    0  503  0.17153382340E+02  0.38017552209E+01  0.77789928938E+01  0.19781167784E+02  0.47000000000E+01 0.  1.
         11    1    4    4    0    0  0.43985800424E+02  0.42792229674E+02  0.23543096030E+03  0.24329747765E+03  0.00000000000E+00 0. -1.
        -12    1    4    4    0    0  0.21634786569E+03  0.26978975675E+02  0.11069713023E+04  0.11282374432E+04  0.00000000000E+00 0.  1.
</event>
<event>
12    1  0.1066489E+000  0.1985934E+03  0.7818608E-02  0.1152192E+00
         21   -1    0    0  501  502  0.00000000000E+00  0.00000000000E+00  0.36934152457E+03  0.36934152457E+03  0.00000000000E+00 0. -1.
         21   -1    0    0  502  503 -0.00000000000E+00 -0.00000000000E+00 -0.14804635507E+03  0.14804635507E+03  0.00000000000E+00 0. -1.
         -6    2    1    2    0  503 -0.31728733977E+02  0.78526851458E+02  0.25342200675E+03  0.32196589129E+03  0.17962778929E+03 0.  0.
        -24    2    3    3    0    0  0.18140426890E+02 -0.20618246430E+02  0.81990686345E+02  0.11769286013E+03  0.79843280903E+02 0.  0.
          6    2    1    2  501    0  0.31728733977E+02 -0.78526851458E+02 -0.32126837249E+02  0.19542198835E+03  0.17316015968E+03 0.  0.
         24    2    5    5    0    0  0.39887332853E+02 -0.93953079433E+02 -0.72619358703E+02  0.15107939552E+03  0.84458463377E+02 0.  0.
          5    1    5    5  501    0 -0.81585988763E+01  0.15426227975E+02  0.40492521454E+02  0.44342592829E+02  0.47000000000E+01 0. -1.
        -11    1    6    6    0    0  0.15722283301E+02 -0.98093471450E+02 -0.33366699536E+02  0.10479912200E+03  0.00000000000E+00 0.  1.
         12    1    6    6    0    0  0.24165049552E+02  0.41403920175E+01 -0.39252659167E+02  0.46280273526E+02  0.00000000000E+00 0. -1.
         -5    1    3    3    0  503 -0.49869160866E+02  0.99145097888E+02  0.17143132041E+03  0.20427303116E+03  0.47000000000E+01 0.  1.
         13    1    4    4    0    0  0.37242606696E+02 -0.33759232819E+02  0.79921794954E+02  0.94414992786E+02  0.00000000000E+00 0. -1.
        -14    1    4    4    0    0 -0.19102179806E+02  0.13140986389E+02  0.20688913908E+01  0.23277867347E+02  0.00000000000E+00 0.  1.
</event>
<event>
12    1  0.1066489E+000  0.2143991E+03  0.7818608E-02  0.1138378E+00
         21   -1    0    0  503  502  0.00000000000E+00  0.00000000000E+00  0.12343548809E+03  0.12343548809E+03  0.00000000000E+00 0.  1.
         21   -1    0    0  501  503 -0.00000000000E+00 -0.00000000000E+00 -0.53572268514E+03  0.53572268514E+03  0.00000000000E+00 0. -1.
          6    2    1    2  501    0 -0.94287833995E+02 -0.81124065450E+02 -0.38893090491E+03  0.44349064175E+03  0.17304736604E+03 0.  0.
         24    2    3    3    0    0  0.18160606651E+02 -0.34543710176E+02 -0.12904214651E+03  0.15647385123E+03  0.79429937648E+02 0.  0.
         -6    2    1    2    0  502  0.94287833995E+02  0.81124065450E+02 -0.23356292141E+02  0.21566753149E+03  0.17463006076E+03 0.  0.
        -24    2    5    5    0    0 -0.19820727443E+02  0.47950473572E+02 -0.15044843109E+02  0.96451671901E+02  0.79902869512E+02 0.  0.
          5    1    3    3  501    0 -0.11244844065E+03 -0.46580355274E+02 -0.25988875839E+03  0.28701679052E+03  0.47000000000E+01 0. -1.
        -13    1    4    4    0    0 -0.14593962320E+02  0.10201997166E+02 -0.20768508884E+01  0.17927012913E+02  0.00000000000E+00 0.  1.
         14    1    4    4    0    0  0.32754568971E+02 -0.44745707342E+02 -0.12696529563E+03  0.13854683832E+03  0.00000000000E+00 0. -1.
         -5    1    5    5    0  502  0.11410856144E+03  0.33173591878E+02 -0.83114490314E+01  0.11921585958E+03  0.47000000000E+01 0.  1.
         13    1    6    6    0    0  0.21481470370E+02  0.39296028291E+01 -0.27195020579E+02  0.34877851022E+02  0.00000000000E+00 0. -1.
        -14    1    6    6    0    0 -0.41302197813E+02  0.44020870743E+02  0.12150177469E+02  0.61573820879E+02  0.00000000000E+00 0.  1.
</event>
<event>
12    1  0.1066489E+000  0.1731453E+03  0.7818608E-02  0.1177746E+00
         21   -1    0    0  503  502  0.00000000000E+00  0.00000000000E+00  0.64999416375E+03  0.64999416375E+03  0.00000000000E+00 0.  1.
         21   -1    0    0  501  503 -0.00000000000E+00 -0.00000000000E+00 -0.47967699597E+02  0.47967699597E+02  0.00000000000E+00 0.  1.
          6    2    1    2  501    0 -0.19280090563E+02 -0.12822714913E+01  0.17934191819E+03  0.24118891855E+03  0.16010997688E+03 0.  0.
         24    2    3    3    0    0 -0.37718243077E+02 -0.29624889459E+02  0.39639182099E+02  0.97375796989E+02  0.74903145097E+02 0.  0.
         -6    2    1    2    0  502  0.19280090563E+02  0.12822714913E+01  0.42268454596E+03  0.45677294480E+03  0.17206374282E+03 0.  0.
        -24    2    5    5    0    0 -0.33952250991E+02 -0.50115302552E+02  0.23708942968E+03  0.25691542057E+03  0.78293274045E+02 0.  0.
          5    1    3    3  501    0  0.18438152513E+02  0.28342617968E+02  0.13970273609E+03  0.14381312156E+03  0.47000000000E+01 0. -1.
        -13    1    4    4    0    0  0.15634018566E+02  0.13225720311E+02  0.10287275865E+02  0.22916593530E+02  0.00000000000E+00 0.  1.
         14    1    4    4    0    0 -0.53352261643E+02 -0.42850609771E+02  0.29351906234E+02  0.74459203459E+02  0.00000000000E+00 0. -1.
         -5    1    5    5    0  502  0.53232341554E+02  0.51397574043E+02  0.18559511628E+03  0.19985752423E+03  0.47000000000E+01 0.  1.
         13    1    6    6    0    0 -0.26267433532E+02 -0.71499587003E+02  0.17845252046E+03  0.19402956234E+03  0.00000000000E+00 0. -1.
        -14    1    6    6    0    0 -0.76848174582E+01  0.21384284451E+02  0.58636909228E+02  0.62885858225E+02  0.00000000000E+00 0.  1.
</event>
<event>
12    1  0.1066489E+000  0.2016575E+03  0.7818608E-02  0.1148440E+00
         21   -1    0    0  501  502  0.00000000000E+00  0.00000000000E+00  0.40044588026E+03  0.40044588026E+03  0.00000000000E+00 0.  1.
         21   -1    0    0  502  503 -0.00000000000E+00 -0.00000000000E+00 -0.10147419192E+03  0.10147419192E+03  0.00000000000E+00 0.  1.
         -6    2    1    2    0  503 -0.20506964779E+02 -0.10262839349E+03  0.13982855846E+03  0.24503043144E+03  0.17185681197E+03 0.  0.
        -24    2    3    3    0    0 -0.66159378628E+02 -0.27553075167E+02  0.10114123300E+03  0.14890943758E+03  0.82512037028E+02 0.  0.
          6    2    1    2  501    0  0.20506964779E+02  0.10262839349E+03  0.15914312989E+03  0.25688964074E+03  0.17237351587E+03 0.  0.
         24    2    5    5    0    0  0.41513256689E+02  0.13171136611E+03  0.10090804491E+03  0.18832945756E+03  0.78830936900E+02 0.  0.
          5    1    5    5  501    0 -0.21006291910E+02 -0.29082972620E+02  0.58235084974E+02  0.68560183183E+02  0.47000000000E+01 0. -1.
        -13    1    6    6    0    0  0.10172393328E+02  0.12445771498E+03  0.91515657362E+02  0.15481704023E+03  0.00000000000E+00 0.  1.
         14    1    6    6    0    0  0.31340863361E+02  0.72536511251E+01  0.93923875520E+01  0.33512417322E+02  0.00000000000E+00 0. -1.
         -5    1    3    3    0  503  0.45652413850E+02 -0.75075318320E+02  0.38687325453E+02  0.96120993866E+02  0.47000000000E+01 0.  1.
         11    1    4    4    0    0  0.13550373731E+02 -0.10692590212E+02 -0.21047348363E+01  0.17388905153E+02  0.00000000000E+00 0. -1.
        -12    1    4    4    0    0 -0.79709752359E+02 -0.16860484956E+02  0.10324596784E+03  0.13152053242E+03  0.00000000000E+00 0.  1.
</event>
<event>
12    1  0.1066489E+000  0.2092823E+03  0.7818608E-02  0.1142452E+00
         21   -1    0    0  503  502  0.00000000000E+00  0.00000000000E+00  0.12164235098E+03  0.12164235098E+03  0.00000000000E+00 0.  1.
         21   -1    0    0  501  503 -0.00000000000E+00 -0.00000000000E+00 -0.40265263011E+03  0.40265263011E+03  0.00000000000E+00 0.  1.
          6    2    1    2  501    0  0.43226592774E+02  0.11097802048E+03 -0.22796938188E+03  0.30839589674E+03  0.17015678269E+03 0.  0.
         24    2    3    3    0    0  0.74693588465E+02  0.12832429753E+03 -0.16415837352E+03  0.23501333795E+03  0.78974932260E+02 0.  0.
         -6    2    1    2    0  502 -0.43226592774E+02 -0.11097802048E+03 -0.53040897240E+02  0.21589908435E+03  0.17208840313E+03 0.  0.
        -24    2    5    5    0    0 -0.41300499878E+02 -0.13420519688E+03 -0.82242510331E+02  0.17824226871E+03  0.72730390402E+02 0.  0.
          5    1    3    3  501    0 -0.31466995691E+02 -0.17346277047E+02 -0.63811008365E+02  0.73382558784E+02  0.47000000000E+01 0. -1.
        -13    1    4    4    0    0  0.49708916585E+02  0.15406522154E+02 -0.59387554362E+02  0.78963402447E+02  0.00000000000E+00 0.  1.
         14    1    4    4    0    0  0.24984671880E+02  0.11291777538E+03 -0.10477081916E+03  0.15604993551E+03  0.00000000000E+00 0. -1.
         -5    1    5    5    0  502 -0.19260928966E+01  0.23227176400E+02  0.29201613090E+02  0.37656815644E+02  0.47000000000E+01 0.  1.
         13    1    6    6    0    0 -0.55475607698E+02 -0.70322671722E+02 -0.29841609134E+02  0.94410501764E+02  0.00000000000E+00 0. -1.
        -14    1    6    6    0    0  0.14175107821E+02 -0.63882525161E+02 -0.52400901197E+02  0.83831766944E+02  0.00000000000E+00 0.  1.
</event>
<event>
12    1  0.1066489E+000  0.2858992E+03  0.7818608E-02  0.1092516E+00
         21   -1    0    0  501  502  0.00000000000E+00  0.00000000000E+00  0.36024290019E+03  0.36024290019E+03  0.00000000000E+00 0. -1.
         21   -1    0    0  502  503 -0.00000000000E+00 -0.00000000000E+00 -0.53411275844E+03  0.53411275844E+03  0.00000000000E+00 0. -1.
         -6    2    1    2    0  503  0.20100256889E+03  0.10803370614E+03  0.25223369033E+03  0.38122546460E+03  0.17215605118E+03 0.  0.
        -24    2    3    3    0    0  0.18347643878E+03  0.43916227868E+02  0.13147201574E+03  0.24329907733E+03  0.79481516389E+02 0.  0.
          6    2    1    2  501    0 -0.20100256889E+03 -0.10803370614E+03 -0.42610354858E+03  0.51313019402E+03  0.17223544217E+03 0.  0.
         24    2    5    5    0    0 -0.18915395718E+03 -0.85753011406E+02 -0.43276378974E+03  0.48661099777E+03  0.79830864690E+02 0.  0.
          5    1    5    5  501    0 -0.11848611713E+02 -0.22280694739E+02  0.66602411605E+01  0.26519196253E+02  0.47000000000E+01 0. -1.
        -11    1    6    6    0    0 -0.90774093080E+02 -0.79605608254E+02 -0.19676631595E+03  0.23085487201E+03  0.00000000000E+00 0.  1.
         12    1    6    6    0    0 -0.98379864101E+02 -0.61474031520E+01 -0.23599747379E+03  0.25575612576E+03  0.00000000000E+00 0. -1.
         -5    1    3    3    0  503  0.17526130113E+02  0.64117478276E+02  0.12076167459E+03  0.13792638727E+03  0.47000000000E+01 0.  1.
         11    1    4    4    0    0  0.11826864675E+03  0.44059316086E+02  0.42876123124E+02  0.13329312838E+03  0.00000000000E+00 0. -1.
        -12    1    4    4    0    0  0.65207792026E+02 -0.14308821794E+00  0.88595892618E+02  0.11000594895E+03  0.00000000000E+00 0.  1.
</event>
<event>
12    1  0.1066489E+000  0.2243633E+03  0.7818608E-02  0.1130739E+00
         21   -1    0    0  501  502  0.00000000000E+00  0.00000000000E+00  0.81111827592E+02  0.81111827592E+02  0.00000000000E+00 0. -1.
         21   -1    0    0  502  503 -0.00000000000E+00 -0.00000000000E+00 -0.67113995335E+03  0.67113995335E+03  0.00000000000E+00 0.  1.
         -6    2    1    2    0  503 -0.14157499182E+03  0.21145822950E+02 -0.19098347351E+03  0.29464147147E+03  0.17276656337E+03 0.  0.
        -24    2    3    3    0    0 -0.68746679492E+02  0.78213679526E+02 -0.10429608595E+03  0.16776556165E+03  0.80150636456E+02 0.  0.
          6    2    1    2  501    0  0.14157499182E+03 -0.21145822950E+02 -0.39904465225E+03  0.45761030947E+03  0.17227866005E+03 0.  0.
         24    2    5    5    0    0  0.75360435594E+02 -0.50181647332E+02 -0.12572986164E+03  0.17485509498E+03  0.81048831898E+02 0.  0.
          5    1    5    5  501    0  0.66214556231E+02  0.29035824381E+02 -0.27331479061E+03  0.28275521449E+03  0.47000000000E+01 0. -1.
        -13    1    6    6    0    0  0.18544208251E+02 -0.51528446032E+01 -0.93599648512E+02  0.95558012060E+02  0.00000000000E+00 0.  1.
         14    1    6    6    0    0  0.56816227343E+02 -0.45028802728E+02 -0.32130213127E+02  0.79297082924E+02  0.00000000000E+00 0. -1.
         -5    1    3    3    0  503 -0.72828312333E+02 -0.57067856576E+02 -0.86687387562E+02  0.12687590982E+03  0.47000000000E+01 0.  1.
         11    1    4    4    0    0 -0.53194461091E+02  0.11130041063E+02 -0.17762310457E+02  0.57175415849E+02  0.00000000000E+00 0. -1.
        -12    1    4    4    0    0 -0.15552218401E+02  0.67083638463E+02 -0.86533775491E+02  0.11059014580E+03  0.00000000000E+00 0.  1.
</event>
<event>
12    1  0.1066489E+000  0.5028251E+03  0.7818608E-02  0.1013127E+00
         21   -1    0    0  503  502  0.00000000000E+00  0.00000000000E+00  0.56850512944E+03  0.56850512944E+03  0.00000000000E+00 0. -1.
         21   -1    0    0  501  503 -0.00000000000E+00 -0.00000000000E+00 -0.44883600233E+03  0.44883600233E+03  0.00000000000E+00 0. -1.
          6    2    1    2  501    0  0.38008362921E+03  0.27796868392E+03  0.48335100106E+01  0.50156957571E+03  0.17268040428E+03 0.  0.
         24    2    3    3    0    0  0.10301702774E+03  0.43596197670E+02  0.19094026367E+02  0.13835914594E+03  0.79155132292E+02 0.  0.
         -6    2    1    2    0  502 -0.38008362921E+03 -0.27796868392E+03  0.11483561710E+03  0.51577155606E+03  0.17636021277E+03 0.  0.
        -24    2    5    5    0    0 -0.35711209616E+03 -0.25959360824E+03  0.14700925158E+03  0.47192446388E+03  0.78632619763E+02 0.  0.
          5    1    3    3  501    0  0.27706660147E+03  0.23437248625E+03 -0.14260516356E+02  0.36321042977E+03  0.47000000000E+01 0. -1.
        -13    1    4    4    0    0  0.58683177987E+02  0.53660861404E+02 -0.15770817466E+02  0.81067392390E+02  0.00000000000E+00 0.  1.
         14    1    4    4    0    0  0.44333849751E+02 -0.10064663734E+02  0.34864843833E+02  0.57291753554E+02  0.00000000000E+00 0. -1.
         -5    1    5    5    0  502 -0.22971533050E+02 -0.18375075684E+02 -0.32173634484E+02  0.43847092184E+02  0.47000000000E+01 0.  1.
         13    1    6    6    0    0 -0.18120587623E+03 -0.10475087667E+03  0.10378537896E+03  0.23362303104E+03  0.00000000000E+00 0. -1.
        -14    1    6    6    0    0 -0.17590621993E+03 -0.15484273157E+03  0.43223872618E+02  0.23830143284E+03  0.00000000000E+00 0.  1.
</event>
<event>
12    1  0.1066489E+000  0.2288552E+03  0.7818608E-02  0.1127579E+00
         21   -1    0    0  501  502  0.00000000000E+00  0.00000000000E+00  0.66470104160E+03  0.66470104160E+03  0.00000000000E+00 0.  1.
         21   -1    0    0  502  503 -0.00000000000E+00 -0.00000000000E+00 -0.92352194233E+02  0.92352194233E+02  0.00000000000E+00 0. -1.
         -6    2    1    2    0  503 -0.25122655850E+02 -0.14734841590E+03  0.43294547073E+03  0.48971062850E+03  0.17329747701E+03 0.  0.
        -24    2    3    3    0    0  0.12989615679E+02 -0.16151908036E+03  0.29573966083E+03  0.34652935444E+03  0.79771568017E+02 0.  0.
          6    2    1    2  501    0  0.25122655850E+02  0.14734841590E+03  0.13940337664E+03  0.26734260733E+03  0.17232546176E+03 0.  0.
         24    2    5    5    0    0 -0.41709447297E+02  0.36996410718E+02  0.44374549483E+02  0.10704081991E+03  0.79876304909E+02 0.  0.
          5    1    5    5  501    0  0.66832103148E+02  0.11035200518E+03  0.95028827158E+02  0.16030178742E+03  0.47000000000E+01 0. -1.
        -13    1    6    6    0    0 -0.47638285825E+02  0.53503832627E+02  0.51374694794E+02  0.88155689818E+02  0.00000000000E+00 0.  1.
         14    1    6    6    0    0  0.59288385273E+01 -0.16507421908E+02 -0.70001453111E+01  0.18885130095E+02  0.00000000000E+00 0. -1.
         -5    1    3    3    0  503 -0.38112271529E+02  0.14170664464E+02  0.13720580989E+03  0.14318127406E+03  0.47000000000E+01 0.  1.
         11    1    4    4    0    0 -0.27962674811E+02 -0.91483602771E+02  0.12418260229E+03  0.15675611462E+03  0.00000000000E+00 0. -1.
        -12    1    4    4    0    0  0.40952290490E+02 -0.70035477594E+02  0.17155705854E+03  0.18977323982E+03  0.00000000000E+00 0.  1.
</event>
<event>
12    1  0.1066489E+000  0.1835568E+03  0.7818608E-02  0.1164565E+00
         21   -1    0    0  503  502  0.00000000000E+00  0.00000000000E+00  0.36691363850E+02  0.36691363850E+02  0.00000000000E+00 0. -1.
         21   -1    0    0  501  503 -0.00000000000E+00 -0.00000000000E+00 -0.14041497121E+04  0.14041497121E+04  0.00000000000E+00 0. -1.
          6    2    1    2  501    0  0.43430697172E+02  0.45155647067E+02 -0.25929874013E+03  0.31769314538E+03  0.17253359113E+03 0.  0.
         24    2    3    3    0    0  0.71208333788E+02 -0.16350459380E+02 -0.11039357915E+03  0.15414059972E+03  0.78959596251E+02 0.  0.
         -6    2    1    2    0  502 -0.43430697172E+02 -0.45155647067E+02 -0.11081596081E+04  0.11231479306E+04  0.17180890245E+03 0.  0.
        -24    2    5    5    0    0 -0.65978531194E+02  0.27221368189E+02 -0.64603428697E+03  0.65482246724E+03  0.79611520507E+02 0.  0.
          5    1    3    3  501    0 -0.27777636616E+02  0.61506106447E+02 -0.14890516098E+03  0.16355254566E+03  0.47000000000E+01 0. -1.
        -11    1    4    4    0    0  0.24156935147E+01  0.19423637956E+02 -0.41650117769E+00  0.19577710792E+02  0.00000000000E+00 0.  1.
         12    1    4    4    0    0  0.68792640274E+02 -0.35774097336E+02 -0.10997707797E+03  0.13456288892E+03  0.00000000000E+00 0. -1.
         -5    1    5    5    0  502  0.22547834022E+02 -0.72377015256E+02 -0.46212532116E+03  0.46832546334E+03  0.47000000000E+01 0.  1.
         13    1    6    6    0    0 -0.30529627482E+02  0.91628450841E+01 -0.64671690632E+02  0.72100231993E+02  0.00000000000E+00 0. -1.
        -14    1    6    6    0    0 -0.35448903712E+02  0.18058523105E+02 -0.58136259633E+03  0.58272223524E+03  0.00000000000E+00 0.  1.
</event>
<event>
12    1  0.1066489E+000  0.3531300E+03  0.7818608E-02  0.1061816E+00
         21   -1    0    0  503  502  0.00000000000E+00  0.00000000000E+00  0.16124395788E+04  0.16124395788E+04  0.00000000000E+00 0.  1.
         21   -1    0    0  501  503 -0.00000000000E+00 -0.00000000000E+00 -0.12899212512E+03  0.12899212512E+03  0.00000000000E+00 0. -1.
          6    2    1    2  501    0 -0.19407942259E+03  0.23166310667E+03  0.18238053107E+03  0.39329374048E+03  0.17344362463E+03 0.  0.
         24    2    3    3    0    0 -0.83492676730E+02  0.19947503945E+03  0.14425781561E+03  0.27188150278E+03  0.79673808465E+02 0.  0.
         -6    2    1    2    0  502  0.19407942259E+03 -0.23166310667E+03  0.13010669226E+04  0.13481379634E+04  0.18266421134E+03 0.  0.
        -24    2    5    5    0    0  0.12319356127E+03 -0.97151001843E+02  0.91419005681E+03  0.93242879711E+03  0.95210456450E+02 0.  0.
          5    1    3    3  501    0 -0.11058674586E+03  0.32188067218E+02  0.38122715457E+02  0.12141223771E+03  0.47000000000E+01 0. -1.
        -11    1    4    4    0    0 -0.51347405227E+02  0.82341927802E+02  0.10784536192E+03  0.14507712151E+03  0.00000000000E+00 0.  1.
         12    1    4    4    0    0 -0.32145271503E+02  0.11713311165E+03  0.36412453691E+02  0.12680438127E+03  0.00000000000E+00 0. -1.
         -5    1    5    5    0  502  0.70885861319E+02 -0.13451210483E+03  0.38687686576E+03  0.41570916630E+03  0.47000000000E+01 0.  1.
         11    1    6    6    0    0  0.12175346858E+03 -0.10565330631E+03  0.71057244759E+03  0.72862866504E+03  0.00000000000E+00 0. -1.
        -12    1    6    6    0    0  0.14400926900E+01  0.85023044644E+01  0.20361760922E+03  0.20380013207E+03  0.00000000000E+00 0.  1.
</event>
<event>
12    1  0.1066489E+000  0.2283537E+03  0.7818608E-02  0.1128081E+00
         21   -1    0    0  503  502  0.00000000000E+00  0.00000000000E+00  0.62814599812E+03  0.62814599812E+03  0.00000000000E+00 0. -1.
         21   -1    0    0  501  503 -0.00000000000E+00 -0.00000000000E+00 -0.85578738405E+02  0.85578738405E+02  0.00000000000E+00 0. -1.
          6    2    1    2  501    0 -0.11294740841E+03 -0.10189066866E+03  0.33861732771E+03  0.40755321510E+03  0.16822337259E+03 0.  0.
         24    2    3    3    0    0 -0.10388502700E+03 -0.29718073802E+02  0.29100744313E+03  0.32049116071E+03  0.79711914983E+02 0.  0.
         -6    2    1    2    0  502  0.11294740841E+03  0.10189066866E+03  0.20394993200E+03  0.30617152142E+03  0.17031324182E+03 0.  0.
        -24    2    5    5    0    0  0.85508441394E+02  0.12275522169E+03  0.21080790632E+03  0.27071241404E+03  0.80403356587E+02 0.  0.
          5    1    3    3  501    0 -0.90623814099E+01 -0.72172594855E+02  0.47609884589E+02  0.87062054395E+02  0.47000000000E+01 0. -1.
        -13    1    4    4    0    0 -0.12185225903E+02 -0.75415137764E+00  0.14590622829E+03  0.14641610542E+03  0.00000000000E+00 0.  1.
         14    1    4    4    0    0 -0.91699801099E+02 -0.28963922424E+02  0.14510121484E+03  0.17407505528E+03  0.00000000000E+00 0. -1.
         -5    1    5    5    0  502  0.27438967019E+02 -0.20864553030E+02 -0.68579743183E+01  0.35459107377E+02  0.47000000000E+01 0.  1.
         13    1    6    6    0    0  0.46309606873E+02  0.56523993510E+02  0.16668789278E+03  0.18200108552E+03  0.00000000000E+00 0. -1.
        -14    1    6    6    0    0  0.39198834521E+02  0.66231228177E+02  0.44120013533E+02  0.88711328520E+02  0.00000000000E+00 0.  1.
</event>
<event>
12    1  0.1066489E+000  0.3515035E+03  0.7818608E-02  0.1062037E+00
         21   -1    0    0  501  502  0.00000000000E+00  0.00000000000E+00  0.27289934992E+03  0.27289934992E+03  0.00000000000E+00 0.  1.
         21   -1    0    0  502  503 -0.00000000000E+00 -0.00000000000E+00 -0.96736117083E+03  0.96736117083E+03  0.00000000000E+00 0. -1.
         -6    2    1    2    0  503 -0.22922359807E+03  0.20348603143E+03  0.10536594772E+03  0.36660202898E+03  0.17130394570E+03 0.  0.
        -24    2    3    3    0    0 -0.18368318534E+03  0.19116761585E+03  0.31139253891E+02  0.27852612631E+03  0.79514652604E+02 0.  0.
          6    2    1    2  501    0  0.22922359807E+03 -0.20348603143E+03 -0.79982776863E+03  0.87365849178E+03  0.17206009962E+03 0.  0.
         24    2    5    5    0    0  0.11996136802E+03 -0.12949439983E+03 -0.29889319139E+03  0.35561357371E+03  0.77229168983E+02 0.  0.
          5    1    5    5  501    0  0.10926223005E+03 -0.73991631606E+02 -0.50093457724E+03  0.51804491807E+03  0.47000000000E+01 0. -1.
        -11    1    6    6    0    0  0.30508994818E+02 -0.63405201205E+02 -0.17769347223E+03  0.19111773434E+03  0.00000000000E+00 0.  1.
         12    1    6    6    0    0  0.89452373200E+02 -0.66089198620E+02 -0.12119971916E+03  0.16449583937E+03  0.00000000000E+00 0. -1.
         -5    1    3    3    0  503 -0.45540412728E+02  0.12318415584E+02  0.74226693825E+02  0.88075902664E+02  0.47000000000E+01 0.  1.
         11    1    4    4    0    0 -0.53410333231E+02  0.85384303077E+02 -0.20841624381E+02  0.10284705253E+03  0.00000000000E+00 0. -1.
        -12    1    4    4    0    0 -0.13027285211E+03  0.10578331277E+03  0.51980878271E+02  0.17567907378E+03  0.00000000000E+00 0.  1.
</event>
<event>
12    1  0.1066489E+000  0.2250586E+03  0.7818608E-02  0.1130174E+00
         21   -1    0    0  501  502  0.00000000000E+00  0.00000000000E+00  0.32088242290E+03  0.32088242290E+03  0.00000000000E+00 0.  1.
         21   -1    0    0  502  503 -0.00000000000E+00 -0.00000000000E+00 -0.16009965524E+03  0.16009965524E+03  0.00000000000E+00 0.  1.
         -6    2    1    2    0  503  0.34179199710E+02  0.14149596674E+03  0.10906905973E+03  0.25009482480E+03  0.17164508529E+03 0.  0.
        -24    2    3    3    0    0  0.75359200468E+02  0.12916684674E+03  0.11736915513E+03  0.20606323107E+03  0.79520143570E+02 0.  0.
          6    2    1    2  501    0 -0.34179199710E+02 -0.14149596674E+03  0.51713707929E+02  0.23088725334E+03  0.17159629912E+03 0.  0.
         24    2    5    5    0    0 -0.82097503385E+01 -0.11840393125E+02  0.53880473861E+02  0.98555227952E+02  0.81255354182E+02 0.  0.
          5    1    5    5  501    0 -0.25969449372E+02 -0.12965557361E+03 -0.21667659324E+01  0.13233202539E+03  0.47000000000E+01 0. -1.
        -11    1    6    6    0    0  0.13044998705E+01  0.24242806654E+01 -0.21283252440E+02  0.21460561295E+02  0.00000000000E+00 0.  1.
         12    1    6    6    0    0 -0.95142502089E+01 -0.14264673790E+02  0.75163726302E+02  0.77094666657E+02  0.00000000000E+00 0. -1.
         -5    1    3    3    0  503 -0.41180000757E+02  0.12329120001E+02 -0.83000953965E+01  0.44031593725E+02  0.47000000000E+01 0.  1.
         13    1    4    4    0    0  0.48587976361E+02  0.89467700579E+02  0.29504974810E+02  0.10599907751E+03  0.00000000000E+00 0. -1.
        -14    1    4    4    0    0  0.26771224106E+02  0.39699146159E+02  0.87864180319E+02  0.10006415357E+03  0.00000000000E+00 0.  1.
</event>
<event>
12    1  0.1066489E+000  0.1829585E+03  0.7818608E-02  0.1165060E+00
         21   -1    0    0  501  502  0.00000000000E+00  0.00000000000E+00  0.38867907592E+02  0.38867907592E+02  0.00000000000E+00 0.  1.
         21   -1    0    0  502  503 -0.00000000000E+00 -0.00000000000E+00 -0.89095005312E+03  0.89095005312E+03  0.00000000000E+00 0.  1.
         -6    2    1    2    0  503 -0.51221775988E+01 -0.60912294803E+02 -0.33816354839E+03  0.38430340255E+03  0.17204062135E+03 0.  0.
        -24    2    3    3    0    0  0.58863144510E+02 -0.76975631457E+01 -0.19782321445E+03  0.22107525412E+03  0.78842384220E+02 0.  0.
          6    2    1    2  501    0  0.51221775988E+01  0.60912294803E+02 -0.51391859714E+03  0.54551455816E+03  0.17244496025E+03 0.  0.
         24    2    5    5    0    0 -0.48763486873E+02  0.48109645209E+01 -0.21936925685E+03  0.24083041357E+03  0.86460362134E+02 0.  0.
          5    1    5    5  501    0  0.53885664471E+02  0.56101330282E+02 -0.29454934029E+03  0.30468414459E+03  0.47000000000E+01 0. -1.
        -13    1    6    6    0    0  0.90985983521E+01  0.29841842912E+02 -0.40152239474E+02  0.50848032559E+02  0.00000000000E+00 0.  1.
         14    1    6    6    0    0 -0.57862085225E+02 -0.25030878391E+02 -0.17921701737E+03  0.18998238101E+03  0.00000000000E+00 0. -1.
         -5    1    3    3    0  503 -0.63985322109E+02 -0.53214731657E+02 -0.14034033394E+03  0.16322814843E+03  0.47000000000E+01 0.  1.
         11    1    4    4    0    0  0.48444577931E+02 -0.34048200731E+02 -0.17482721202E+03  0.18458253213E+03  0.00000000000E+00 0. -1.
        -12    1    4    4    0    0  0.10418566579E+02  0.26350637586E+02 -0.22996002429E+02  0.36492721993E+02  0.00000000000E+00 0.  1.
</event>
<event>
12    1  0.1066489E+000  0.2644772E+03  0.7818608E-02  0.1104680E+00
         21   -1    0    0  501  502  0.00000000000E+00  0.00000000000E+00  0.46429334877E+03  0.46429334877E+03  0.00000000000E+00 0.  1.
         21   -1    0    0  502  503 -0.00000000000E+00 -0.00000000000E+00 -0.20533092605E+03  0.20533092605E+03  0.00000000000E+00 0.  1.
         -6    2    1    2    0  503 -0.47074406436E+02 -0.19428037736E+03  0.30321014302E+03  0.40147122810E+03  0.17111952370E+03 0.  0.
        -24    2    3    3    0    0 -0.69206817702E+02 -0.19835381216E+03  0.21487152293E+03  0.31019013313E+03  0.76904674179E+02 0.  0.
          6    2    1    2  501    0  0.47074406436E+02  0.19428037736E+03 -0.44247720293E+02  0.26815304672E+03  0.17316850448E+03 0.  0.
         24    2    5    5    0    0  0.95025360835E+02  0.16894763419E+03 -0.33236282582E+02  0.21261581898E+03  0.80794267740E+02 0.  0.
          5    1    5    5  501    0 -0.47950954399E+02  0.25332743170E+02 -0.11011437710E+02  0.55537227737E+02  0.47000000000E+01 0. -1.
        -11    1    6    6    0    0  0.53383135860E+01  0.42561809310E+02 -0.38375577376E+02  0.57555973996E+02  0.00000000000E+00 0.  1.
         12    1    6    6    0    0  0.89687047249E+02  0.12638582489E+03  0.51392947939E+01  0.15505984499E+03  0.00000000000E+00 0. -1.
         -5    1    3    3    0  503  0.22132411266E+02  0.40734347956E+01  0.88338620082E+02  0.91281094962E+02  0.47000000000E+01 0.  1.
         11    1    4    4    0    0 -0.71224211333E+02 -0.15475578287E+03  0.12839811158E+03  0.21332678141E+03  0.00000000000E+00 0. -1.
        -12    1    4    4    0    0  0.20173936309E+01 -0.43598029295E+02  0.86473411356E+02  0.96863351723E+02  0.00000000000E+00 0.  1.
</event>
<event>
12    1  0.1066489E+000  0.1790288E+03  0.7818608E-02  0.1169225E+00
         21   -1    0    0  503  502  0.00000000000E+00  0.00000000000E+00  0.27186897449E+03  0.27186897449E+03  0.00000000000E+00 0. -1.
         21   -1    0    0  501  503 -0.00000000000E+00 -0.00000000000E+00 -0.13962370958E+03  0.13962370958E+03  0.00000000000E+00 0. -1.
          6    2    1    2  501    0 -0.35948303476E+02 -0.27176961237E+02 -0.17103640160E+02  0.17984390613E+03  0.17326404220E+03 0.  0.
         24    2    3    3    0    0  0.39435263854E+02 -0.45583850624E+02 -0.19354277001E+02  0.10207083131E+03  0.80067715676E+02 0.  0.
         -6    2    1    2    0  502  0.35948303476E+02  0.27176961237E+02  0.14934890507E+03  0.23164877795E+03  0.17124600180E+03 0.  0.
        -24    2    5    5    0    0  0.18103517649E+02  0.52173497068E+02  0.19369484884E+02  0.98007456279E+02  0.78615986887E+02 0.  0.
          5    1    3    3  501    0 -0.75383567329E+02  0.18406889387E+02  0.22506368408E+01  0.77773074816E+02  0.47000000000E+01 0. -1.
        -13    1    4    4    0    0 -0.39429805780E+01  0.54503820187E+01 -0.33031706912E+02  0.33709752617E+02  0.00000000000E+00 0.  1.
         14    1    4    4    0    0  0.43378244432E+02 -0.51034232643E+02  0.13677429911E+02  0.68361078695E+02  0.00000000000E+00 0. -1.
         -5    1    5    5    0  502  0.17844785827E+02 -0.24996535830E+02  0.12997942019E+03  0.13364132167E+03  0.47000000000E+01 0.  1.
         11    1    6    6    0    0 -0.22917023589E+02 -0.35996853683E+01 -0.65110601501E+01  0.24094431083E+02  0.00000000000E+00 0. -1.
        -12    1    6    6    0    0  0.41020541237E+02  0.55773182436E+02  0.25880545034E+02  0.73913025197E+02  0.00000000000E+00 0.  1.
</event>
<event>
12    1  0.1066489E+000  0.1812467E+03  0.7818608E-02  0.1168186E+00
         21   -1    0    0  501  502  0.00000000000E+00  0.00000000000E+00  0.98316267389E+03  0.98316267389E+03  0.00000000000E+00 0.  1.
         21   -1    0    0  502  503 -0.00000000000E+00 -0.00000000000E+00 -0.15160440187E+03  0.15160440187E+03  0.00000000000E+00 0.  1.
         -6    2    1    2    0  503 -0.37511326919E+02  0.95838338530E+01  0.92084444933E+03  0.93851204632E+03  0.17706329857E+03 0.  0.
        -24    2    3    3    0    0  0.21725463324E+02  0.57985331980E+02  0.56505555645E+03  0.57456214779E+03  0.83663524423E+02 0.  0.
          6    2    1    2  501    0  0.37511326919E+02 -0.95838338530E+01 -0.89286177313E+02  0.19625502944E+03  0.17042612946E+03 0.  0.
         24    2    5    5    0    0  0.12057965210E+02 -0.15944658549E+02 -0.12748157265E+03  0.14967915652E+03  0.75846370185E+02 0.  0.
          5    1    5    5  501    0  0.25453361709E+02  0.63608246959E+01  0.38195395339E+02  0.46575872919E+02  0.47000000000E+01 0. -1.
        -13    1    6    6    0    0 -0.26921879177E+02  0.35966091062E+00 -0.87351073244E+02  0.91406383428E+02  0.00000000000E+00 0.  1.
         14    1    6    6    0    0  0.38979844387E+02 -0.16304319460E+02 -0.40130499407E+02  0.58272773095E+02  0.00000000000E+00 0. -1.
         -5    1    3    3    0  503 -0.59236790243E+02 -0.48401498127E+02  0.35578889289E+03  0.36394989853E+03  0.47000000000E+01 0.  1.
         13    1    4    4    0    0  0.10158309009E+02  0.76342997839E+02  0.50210055513E+03  0.50797284576E+03  0.00000000000E+00 0. -1.
        -14    1    4    4    0    0  0.11567154315E+02 -0.18357665859E+02  0.62955001311E+02  0.66589302030E+02  0.00000000000E+00 0.  1.
</event>
<event>
12    1  0.1066489E+000  0.1977365E+03  0.7818608E-02  0.1151898E+00
         21   -1    0    0  501  502  0.00000000000E+00  0.00000000000E+00  0.23454889047E+03  0.23454889047E+03  0.00000000000E+00 0.  1.
         21   -1    0    0  502  503 -0.00000000000E+00 -0.00000000000E+00 -0.20023134274E+03  0.20023134274E+03  0.00000000000E+00 0.  1.
         -6    2    1    2    0  503 -0.29995651724E+02  0.93562632319E+02  0.10736897402E+03  0.22500626655E+03  0.17159842107E+03 0.  0.
        -24    2    3    3    0    0  0.28195224618E+02  0.11615595939E+03  0.70994235206E+02  0.15260565784E+03  0.62937491029E+02 0.  0.
          6    2    1    2  501    0  0.29995651724E+02 -0.93562632319E+02 -0.73051426295E+02  0.20977396667E+03  0.17033760864E+03 0.  0.
         24    2    5    5    0    0  0.81456889122E+02 -0.84317142599E+02 -0.67631871162E+02  0.15699897626E+03  0.79561317409E+02 0.  0.
          5    1    5    5  501    0 -0.51461237398E+02 -0.92454897199E+01 -0.54195551330E+01  0.52774990408E+02  0.47000000000E+01 0. -1.
        -13    1    6    6    0    0  0.26025349637E+02 -0.26660654825E+02 -0.67406552958E+02  0.77017872738E+02  0.00000000000E+00 0.  1.
         14    1    6    6    0    0  0.55431539485E+02 -0.57656487774E+02 -0.22531820468E+00  0.79981103521E+02  0.00000000000E+00 0. -1.
         -5    1    3    3    0  503 -0.58190876341E+02 -0.22593327075E+02  0.36374738816E+02  0.72400608710E+02  0.47000000000E+01 0.  1.
         13    1    4    4    0    0  0.12851719841E+02  0.80766437470E+02  0.12784510413E+02  0.82775768380E+02  0.00000000000E+00 0. -1.
        -14    1    4    4    0    0  0.15343504777E+02  0.35389521924E+02  0.58209724793E+02  0.69829889456E+02  0.00000000000E+00 0.  1.
</event>
<event>
12    1  0.1066489E+000  0.3602012E+03  0.7818608E-02  0.1058600E+00
         21   -1    0    0  503  502  0.00000000000E+00  0.00000000000E+00  0.18936587966E+03  0.18936587966E+03  0.00000000000E+00 0.  1.
         21   -1    0    0  501  503 -0.00000000000E+00 -0.00000000000E+00 -0.68978879351E+03  0.68978879351E+03  0.00000000000E+00 0.  1.
          6    2    1    2  501    0  0.66703135645E+02 -0.30837979880E+03 -0.20729777942E+03  0.41475481822E+03  0.17176082578E+03 0.  0.
         24    2    3    3    0    0  0.43498613409E+02 -0.59825190446E+02 -0.80452589019E+02  0.13470190266E+03  0.78745163156E+02 0.  0.
         -6    2    1    2    0  502 -0.66703135645E+02  0.30837979880E+03 -0.29312513444E+03  0.46439985495E+03  0.17377419897E+03 0.  0.
        -24    2    5    5    0    0 -0.10780836348E+03  0.20095763311E+03 -0.16828966723E+03  0.29459071117E+03  0.80347131085E+02 0.  0.
          5    1    3    3  501    0  0.23204522236E+02 -0.24855460835E+03 -0.12684519040E+03  0.28005291556E+03  0.47000000000E+01 0. -1.
        -11    1    4    4    0    0  0.97515183067E+01 -0.50973519060E+02 -0.84925644372E+02  0.99527668649E+02  0.00000000000E+00 0.  1.
         12    1    4    4    0    0  0.33747095102E+02 -0.88516713858E+01  0.44730553538E+01  0.35174234012E+02  0.00000000000E+00 0. -1.
         -5    1    5    5    0  502  0.41105227837E+02  0.10742216569E+03 -0.12483546721E+03  0.16980914378E+03  0.47000000000E+01 0.  1.
         11    1    6    6    0    0 -0.33410390890E+02  0.14436068827E+03 -0.98383683615E+02  0.17786402598E+03  0.00000000000E+00 0. -1.
        -12    1    6    6    0    0 -0.74397972593E+02  0.56596944837E+02 -0.69905983613E+02  0.11672668519E+03  0.00000000000E+00 0.  1.
</event>
<event>
12    1  0.1066489E+000  0.2036387E+03  0.7818608E-02  0.1147535E+00
         21   -1    0    0  503  502  0.00000000000E+00  0.00000000000E+00  0.24569954913E+03  0.24569954913E+03  0.00000000000E+00 0.  1.
         21   -1    0    0  501  503 -0.00000000000E+00 -0.00000000000E+00 -0.16549133483E+03  0.16549133483E+03  0.00000000000E+00 0.  1.
          6    2    1    2  501    0 -0.40356248324E+02  0.95804541498E+02  0.40345717919E+02  0.20368728545E+03  0.17045115531E+03 0.  0.
         24    2    3    3    0    0 -0.53236420324E+01  0.12298882110E+03  0.54647629062E+02  0.15685884085E+03  0.80397396161E+02 0.  0.
         -6    2    1    2    0  502  0.40356248324E+02 -0.95804541498E+02  0.39862496384E+02  0.20750359851E+03  0.17510450545E+03 0.  0.
        -24    2    5    5    0    0  0.45861705449E+02 -0.66336830926E+02  0.90662528800E+02  0.14833105997E+03  0.85314348490E+02 0.  0.
          5    1    3    3  501    0 -0.35032606292E+02 -0.27184279603E+02 -0.14301911142E+02  0.46828444598E+02  0.47000000000E+01 0. -1.
        -11    1    4    4    0    0  0.43760204030E+01  0.40001469009E+02  0.60987141593E+02  0.73066398003E+02  0.00000000000E+00 0.  1.
         12    1    4    4    0    0 -0.96996624354E+01  0.82987352092E+02 -0.63395125317E+01  0.83792442844E+02  0.00000000000E+00 0. -1.
         -5    1    5    5    0  502 -0.55054571250E+01 -0.29467710572E+02 -0.50800032416E+02  0.59172538546E+02  0.47000000000E+01 0.  1.
         11    1    6    6    0    0  0.37885524110E+02  0.13213500664E+01  0.40329637343E+01  0.38122482862E+02  0.00000000000E+00 0. -1.
        -12    1    6    6    0    0  0.79761813397E+01 -0.67658180993E+02  0.86629565066E+02  0.11020857710E+03  0.00000000000E+00 0.  1.
</event>
<event>
12    1  0.1066489E+000  0.1970911E+03  0.7818608E-02  0.1152808E+00
         21   -1    0    0  503  502  0.00000000000E+00  0.00000000000E+00  0.83534829391E+03  0.83534829391E+03  0.00000000000E+00 0.  1.
         21   -1    0    0  501  503 -0.00000000000E+00 -0.00000000000E+00 -0.46093018554E+02  0.46093018554E+02  0.00000000000E+00 0.  1.
          6    2    1    2  501    0  0.88474937398E+02  0.37313758124E+02  0.42325455266E+03  0.46574741327E+03  0.16898551869E+03 0.  0.
         24    2    3    3    0    0  0.63592570549E+02  0.17256660620E+02  0.42086428842E+03  0.43335570594E+03  0.79552569036E+02 0.  0.
         -6    2    1    2    0  502 -0.88474937398E+02 -0.37313758124E+02  0.36600072269E+03  0.41569389919E+03  0.17211844097E+03 0.  0.
        -24    2    5    5    0    0  0.75652260665E+01 -0.46533004563E+02  0.23710269338E+03  0.25461783187E+03  0.79937475183E+02 0.  0.
          5    1    3    3  501    0  0.24882366849E+02  0.20057097504E+02  0.23902642383E+01  0.32391707325E+02  0.47000000000E+01 0. -1.
        -13    1    4    4    0    0  0.67395290562E+02  0.13773206547E+01  0.18451195999E+03  0.19644003049E+03  0.00000000000E+00 0.  1.
         14    1    4    4    0    0 -0.38027200130E+01  0.15879339966E+02  0.23635232843E+03  0.23691567545E+03  0.00000000000E+00 0. -1.
         -5    1    5    5    0  502 -0.96040163465E+02  0.92192464389E+01  0.12889802931E+03  0.16107606732E+03  0.47000000000E+01 0.  1.
         13    1    6    6    0    0  0.10518936784E+02 -0.65279770786E+02  0.13003041560E+03  0.14587667904E+03  0.00000000000E+00 0. -1.
        -14    1    6    6    0    0 -0.29537107170E+01  0.18746766224E+02  0.10707227778E+03  0.10874115284E+03  0.00000000000E+00 0.  1.
</event>
<event>
12    1  0.1066489E+000  0.2170377E+03  0.7818608E-02  0.1136125E+00
         21   -1    0    0  503  502  0.00000000000E+00  0.00000000000E+00  0.96052075718E+02  0.96052075718E+02  0.00000000000E+00 0.  1.
         21   -1    0    0  501  503 -0.00000000000E+00 -0.00000000000E+00 -0.95564257398E+03  0.95564257398E+03  0.00000000000E+00 0.  1.
          6    2    1    2  501    0 -0.11179259306E+03  0.73383851660E+02 -0.62869732381E+02  0.22596010579E+03  0.17094616875E+03 0.  0.
         24    2    3    3    0    0  0.59341604684E+01  0.87582647283E+01 -0.10365140339E+02  0.81686486689E+02  0.80332586861E+02 0.  0.
         -6    2    1    2    0  502  0.11179259306E+03 -0.73383851660E+02 -0.79672076588E+03  0.82573454391E+03  0.17085310846E+03 0.  0.
        -24    2    5    5    0    0  0.64571404137E+02  0.12645608470E+02 -0.24176083437E+03  0.26214468925E+03  0.77085403418E+02 0.  0.
          5    1    3    3  501    0 -0.11772675353E+03  0.64625586932E+02 -0.52504592042E+02  0.14427361910E+03  0.47000000000E+01 0. -1.
        -13    1    4    4    0    0 -0.31095297004E+02  0.98962405626E+01  0.15874345704E+02  0.36288399311E+02  0.00000000000E+00 0.  1.
         14    1    4    4    0    0  0.37029457472E+02 -0.11379758343E+01 -0.26239486043E+02  0.45398087377E+02  0.00000000000E+00 0. -1.
         -5    1    5    5    0  502  0.47221188924E+02 -0.86029460130E+02 -0.55495993151E+03  0.56358985466E+03  0.47000000000E+01 0.  1.
         11    1    6    6    0    0  0.78249654094E+02  0.84813706627E+01 -0.15117263727E+03  0.17043505588E+03  0.00000000000E+00 0. -1.
        -12    1    6    6    0    0 -0.13678249957E+02  0.41642378072E+01 -0.90588197108E+02  0.91709633374E+02  0.00000000000E+00 0.  1.
</event>
<event>
12    1  0.1066489E+000  0.2426877E+03  0.7818608E-02  0.1119400E+00
         21   -1    0    0  503  502  0.00000000000E+00  0.00000000000E+00  0.18487980859E+03  0.18487980859E+03  0.00000000000E+00 0. -1.
         21   -1    0    0  501  503 -0.00000000000E+00 -0.00000000000E+00 -0.30923638532E+03  0.30923638532E+03  0.00000000000E+00 0. -1.
          6    2    1    2  501    0  0.14842226292E+03 -0.55871577403E+02 -0.44244614996E+02  0.23854767935E+03  0.17261694029E+03 0.  0.
         24    2    3    3    0    0  0.17117038672E+03 -0.67916918920E+02 -0.57978212838E+02  0.20899655250E+03  0.80037969911E+02 0.  0.
         -6    2    1    2    0  502 -0.14842226292E+03  0.55871577403E+02 -0.80111961736E+02  0.25556851456E+03  0.18370230791E+03 0.  0.
        -24    2    5    5    0    0 -0.97870777236E+02  0.93438163731E+02 -0.55033993454E+01  0.15781766446E+03  0.81035475772E+02 0.  0.
          5    1    3    3  501    0 -0.22748123795E+02  0.12045341517E+02  0.13733597842E+02  0.29551126850E+02  0.47000000000E+01 0. -1.
        -11    1    4    4    0    0  0.21721871687E+02  0.17888552940E+02 -0.40725405883E+01  0.28432826499E+02  0.00000000000E+00 0.  1.
         12    1    4    4    0    0  0.14944851503E+03 -0.85805471860E+02 -0.53905672250E+02  0.18056372600E+03  0.00000000000E+00 0. -1.
         -5    1    5    5    0  502 -0.50551485686E+02 -0.37566586328E+02 -0.74608562391E+02  0.97750850101E+02  0.47000000000E+01 0.  1.
         11    1    6    6    0    0 -0.44592243357E+02  0.72308555078E+02  0.30350532364E+02  0.90211696137E+02  0.00000000000E+00 0. -1.
        -12    1    6    6    0    0 -0.53278533880E+02  0.21129608653E+02 -0.35853931710E+02  0.67605968326E+02  0.00000000000E+00 0.  1.
</event>
<event>
12    1  0.1066489E+000  0.2108607E+03  0.7818608E-02  0.1140973E+00
         21   -1    0    0  503  502  0.00000000000E+00  0.00000000000E+00  0.43814596733E+02  0.43814596733E+02  0.00000000000E+00 0.  1.
         21   -1    0    0  501  503 -0.00000000000E+00 -0.00000000000E+00 -0.10309876929E+04  0.10309876929E+04  0.00000000000E+00 0.  1.
          6    2    1    2  501    0  0.11439033415E+03  0.39848994920E+02 -0.42142681831E+03  0.47103820263E+03  0.17205619490E+03 0.  0.
         24    2    3    3    0    0  0.53078916574E+02  0.27766105555E+02 -0.10408049839E+03  0.14756353143E+03  0.85754986215E+02 0.  0.
         -6    2    1    2    0  502 -0.11439033415E+03 -0.39848994920E+02 -0.56574627786E+03  0.60376408700E+03  0.17259528065E+03 0.  0.
        -24    2    5    5    0    0 -0.13479879048E+03 -0.11340805356E+02 -0.53304020900E+03  0.55558734052E+03  0.79032276615E+02 0.  0.
          5    1    3    3  501    0  0.61311417576E+02  0.12082889365E+02 -0.31734631992E+03  0.32347467120E+03  0.47000000000E+01 0. -1.
        -13    1    4    4    0    0 -0.23597903770E+02  0.38323938300E+01 -0.18831952694E+02  0.30433382117E+02  0.00000000000E+00 0.  1.
         14    1    4    4    0    0  0.76676820344E+02  0.23933711725E+02 -0.85248545696E+02  0.11713014931E+03  0.00000000000E+00 0. -1.
         -5    1    5    5    0  502  0.20408456332E+02 -0.28508189564E+02 -0.32706068853E+02  0.48176746485E+02  0.47000000000E+01 0.  1.
         13    1    6    6    0    0 -0.99359799989E+02  0.26659790388E+02 -0.31203297923E+03  0.32855394444E+03  0.00000000000E+00 0. -1.
        -14    1    6    6    0    0 -0.35438990494E+02 -0.38000595744E+02 -0.22100722977E+03  0.22703339608E+03  0.00000000000E+00 0.  1.
</event>
<event>
12    1  0.1066489E+000  0.1751699E+03  0.7818608E-02  0.1173065E+00
         21   -1    0    0  503  502  0.00000000000E+00  0.00000000000E+00  0.38223750696E+03  0.38223750696E+03  0.00000000000E+00 0. -1.
         21   -1    0    0  501  503 -0.00000000000E+00 -0.00000000000E+00 -0.89614608114E+02  0.89614608114E+02  0.00000000000E+00 0. -1.
          6    2    1    2  501    0 -0.24197075133E+02  0.18474083910E+02  0.67258739817E+02  0.18763854683E+03  0.17250419111E+03 0.  0.
         24    2    3    3    0    0  0.16398035378E+02  0.23524199571E+02 -0.23920409638E+02  0.87592587583E+02  0.79233779869E+02 0.  0.
         -6    2    1    2    0  502  0.24197075133E+02 -0.18474083910E+02  0.22536415903E+03  0.28421356825E+03  0.17047450830E+03 0.  0.
        -24    2    5    5    0    0 -0.22389770024E+02 -0.20902657677E+02  0.21677867538E+03  0.23654772469E+03  0.89574600524E+02 0.  0.
          5    1    3    3  501    0 -0.40595110511E+02 -0.50501156619E+01  0.91179149456E+02  0.10004595924E+03  0.47000000000E+01 0. -1.
        -13    1    4    4    0    0 -0.26139787752E+02  0.13391306310E+02 -0.31659539981E+02  0.43184974936E+02  0.00000000000E+00 0.  1.
         14    1    4    4    0    0  0.42537823130E+02  0.10132893261E+02  0.77391303426E+01  0.44407612646E+02  0.00000000000E+00 0. -1.
         -5    1    5    5    0  502  0.46586845157E+02  0.24285737671E+01  0.85854836511E+01  0.47665843554E+02  0.47000000000E+01 0.  1.
         13    1    6    6    0    0 -0.16163749024E+02 -0.47818406993E+02  0.19483333822E+03  0.20126573606E+03  0.00000000000E+00 0. -1.
        -14    1    6    6    0    0 -0.62260209997E+01  0.26915749317E+02  0.21945337153E+02  0.35281988627E+02  0.00000000000E+00 0.  1.
</event>
<event>
12    1  0.1066489E+000  0.2436330E+03  0.7818608E-02  0.1119094E+00
         21   -1    0    0  501  502  0.00000000000E+00  0.00000000000E+00  0.53146436293E+03  0.53146436293E+03  0.00000000000E+00 0.  1.
         21   -1    0    0  502  503 -0.00000000000E+00 -0.00000000000E+00 -0.11268606558E+03  0.11268606558E+03  0.00000000000E+00 0. -1.
         -6    2    1    2    0  503  0.13813928752E+03 -0.10381098734E+03  0.27699492353E+03  0.36226470636E+03  0.15700428643E+03 0.  0.
        -24    2    3    3    0    0  0.13924991927E+03 -0.13022146079E+03  0.24720471388E+03  0.32216117532E+03  0.79558050830E+02 0.  0.
          6    2    1    2  501    0 -0.13813928752E+03  0.10381098734E+03  0.14178337382E+03  0.28188572215E+03  0.17174938548E+03 0.  0.
         24    2    5    5    0    0 -0.15872663662E+03  0.12186393971E+03  0.13017943917E+03  0.25177776089E+03  0.80002434505E+02 0.  0.
          5    1    5    5  501    0  0.20587349092E+02 -0.18052952366E+02  0.11603934649E+02  0.30107961258E+02  0.47000000000E+01 0. -1.
        -11    1    6    6    0    0 -0.44924789627E+01 -0.29045537679E+01  0.28230791877E+02  0.28733193520E+02  0.00000000000E+00 0.  1.
         12    1    6    6    0    0 -0.15423415765E+03  0.12476849348E+03  0.10194864729E+03  0.22304456738E+03  0.00000000000E+00 0. -1.
         -5    1    3    3    0  503 -0.11106317511E+01  0.26410473444E+02  0.29790209657E+02  0.40103531039E+02  0.47000000000E+01 0.  1.
         11    1    4    4    0    0  0.49215236435E+02 -0.13862649313E+02  0.28387310432E+02  0.58482065087E+02  0.00000000000E+00 0. -1.
        -12    1    4    4    0    0  0.90034682839E+02 -0.11635881148E+03  0.21881740344E+03  0.26367911023E+03  0.00000000000E+00 0.  1.
</event>
<event>
12    1  0.1066489E+000  0.2291913E+03  0.7818608E-02  0.1127281E+00
         21   -1    0    0  501  502  0.00000000000E+00  0.00000000000E+00  0.41649182435E+03  0.41649182435E+03  0.00000000000E+00 0.  1.
         21   -1    0    0  502  503 -0.00000000000E+00 -0.00000000000E+00 -0.24194842240E+03  0.24194842240E+03  0.00000000000E+00 0.  1.
         -6    2    1    2    0  503 -0.56930607302E+02 -0.13835518742E+03 -0.14069277046E+03  0.26892957392E+03  0.17362433047E+03 0.  0.
        -24    2    3    3    0    0  0.90589590484E+01 -0.14045894861E+03 -0.11325598179E+03  0.19727822326E+03  0.79252753749E+02 0.  0.
          6    2    1    2  501    0  0.56930607302E+02  0.13835518742E+03  0.31523617242E+03  0.38951067284E+03  0.17309381248E+03 0.  0.
         24    2    5    5    0    0  0.79018377919E+02  0.37484726223E+02  0.11897584315E+03  0.16769334620E+03  0.79478288590E+02 0.  0.
          5    1    5    5  501    0 -0.22087770617E+02  0.10087046120E+03  0.19626032926E+03  0.22181732663E+03  0.47000000000E+01 0. -1.
        -13    1    6    6    0    0  0.59935080733E+02  0.58931539255E+02  0.10823965009E+03  0.13704365024E+03  0.00000000000E+00 0.  1.
         14    1    6    6    0    0  0.19083297186E+02 -0.21446813032E+02  0.10736193068E+02  0.30649695958E+02  0.00000000000E+00 0. -1.
         -5    1    3    3    0  503 -0.65989566351E+02  0.21037611918E+01 -0.27436788670E+02  0.71651350656E+02  0.47000000000E+01 0.  1.
         13    1    4    4    0    0  0.28054236423E+01 -0.11949607646E+03 -0.48617170681E+02  0.12903802531E+03  0.00000000000E+00 0. -1.
        -14    1    4    4    0    0  0.62535354061E+01 -0.20962872148E+02 -0.64638811113E+02  0.68240197947E+02  0.00000000000E+00 0.  1.
</event>
<event>
12    1  0.1066489E+000  0.1828611E+03  0.7818608E-02  0.1166395E+00
         21   -1    0    0  503  502  0.00000000000E+00  0.00000000000E+00  0.68459237941E+03  0.68459237941E+03  0.00000000000E+00 0.  1.
         21   -1    0    0  501  503 -0.00000000000E+00 -0.00000000000E+00 -0.50987534974E+02  0.50987534974E+02  0.00000000000E+00 0.  1.
          6    2    1    2  501    0  0.39612896627E+02  0.11593748537E+02  0.41013369897E+03  0.44682824264E+03  0.17245935986E+03 0.  0.
         24    2    3    3    0    0  0.92137538172E+02  0.16937619243E+02  0.27503806422E+03  0.30170651631E+03  0.81269159760E+02 0.  0.
         -6    2    1    2    0  502 -0.39612896627E+02 -0.11593748537E+02  0.22347114547E+03  0.28875167175E+03  0.17814201777E+03 0.  0.
        -24    2    5    5    0    0 -0.23903806500E+00  0.47561411736E+02  0.18604860800E+03  0.20830187352E+03  0.80705891640E+02 0.  0.
          5    1    3    3  501    0 -0.52524641546E+02 -0.53438707060E+01  0.13509563475E+03  0.14512172633E+03  0.47000000000E+01 0. -1.
        -13    1    4    4    0    0  0.11368789437E+02 -0.13122980046E+02  0.14288211152E+03  0.14393317814E+03  0.00000000000E+00 0.  1.
         14    1    4    4    0    0  0.80768748735E+02  0.30060599289E+02  0.13215595270E+03  0.15777333817E+03  0.00000000000E+00 0. -1.
         -5    1    5    5    0  502 -0.39373858562E+02 -0.59155160273E+02  0.37422537463E+02  0.80449798230E+02  0.47000000000E+01 0.  1.
         11    1    6    6    0    0 -0.31710715948E+02  0.11393491507E+01  0.35335752011E+02  0.47491925552E+02  0.00000000000E+00 0. -1.
        -12    1    6    6    0    0  0.31471677883E+02  0.46422062586E+02  0.15071285599E+03  0.16080994797E+03  0.00000000000E+00 0.  1.
</event>
<event>
12    1  0.1066489E+000  0.2317768E+03  0.7818608E-02  0.1125578E+00
         21   -1    0    0  501  502  0.00000000000E+00  0.00000000000E+00  0.10750027210E+03  0.10750027210E+03  0.00000000000E+00 0. -1.
         21   -1    0    0  502  503 -0.00000000000E+00 -0.00000000000E+00 -0.56676123133E+03  0.56676123133E+03  0.00000000000E+00 0. -1.
         -6    2    1    2    0  503 -0.12675457081E+03 -0.84731543600E+02 -0.34704898141E+03  0.41675032359E+03  0.17318106423E+03 0.  0.
        -24    2    3    3    0    0  0.55899375112E+01 -0.82350681689E+02 -0.14932721811E+03  0.17876561175E+03  0.53344575156E+02 0.  0.
          6    2    1    2  501    0  0.12675457081E+03  0.84731543600E+02 -0.11221197782E+03  0.25751117984E+03  0.17456896652E+03 0.  0.
         24    2    5    5    0    0  0.11181584274E+03  0.12316045625E+03 -0.11292655538E+03  0.21600759512E+03  0.78965774664E+02 0.  0.
          5    1    5    5  501    0  0.14938728071E+02 -0.38428912647E+02  0.71457755757E+00  0.41503584721E+02  0.47000000000E+01 0. -1.
        -13    1    6    6    0    0  0.31378334014E+02  0.75670230000E+02 -0.86050279358E+02  0.11880755082E+03  0.00000000000E+00 0.  1.
         14    1    6    6    0    0  0.80437508726E+02  0.47490226246E+02 -0.26876276018E+02  0.97200044298E+02  0.00000000000E+00 0. -1.
         -5    1    3    3    0  503 -0.13234450832E+03 -0.23808619109E+01 -0.19772176330E+03  0.23798471184E+03  0.47000000000E+01 0.  1.
         13    1    4    4    0    0  0.24416251757E+01 -0.32140885299E+02 -0.11081689844E+03  0.11540963140E+03  0.00000000000E+00 0. -1.
        -14    1    4    4    0    0  0.31483123355E+01 -0.50209796390E+02 -0.38510319675E+02  0.63355980345E+02  0.00000000000E+00 0.  1.
</event>
<event>
12    1  0.1066489E+000  0.1911110E+03  0.7818608E-02  0.1157526E+00
         21   -1    0    0  501  502  0.00000000000E+00  0.00000000000E+00  0.36135672023E+03  0.36135672023E+03  0.00000000000E+00 0. -1.
         21   -1    0    0  502  503 -0.00000000000E+00 -0.00000000000E+00 -0.10094949154E+03  0.10094949154E+03  0.00000000000E+00 0. -1.
         -6    2    1    2    0  503 -0.13032288451E+02 -0.80818670861E+02  0.12643970941E+03  0.22891661808E+03  0.17237842039E+03 0.  0.
        -24    2    3    3    0    0 -0.27873564469E+02  0.11349103392E+02  0.34233434938E+02  0.97618296931E+02  0.86323033335E+02 0.  0.
          6    2    1    2  501    0  0.13032288451E+02  0.80818670861E+02  0.13396751928E+03  0.23338959369E+03  0.17269020852E+03 0.  0.
         24    2    5    5    0    0 -0.53425597225E+02  0.66538374309E+02  0.11155495046E+03  0.16166100330E+03  0.80050754656E+02 0.  0.
          5    1    5    5  501    0  0.66457885676E+02  0.14280296552E+02  0.22412568820E+02  0.71728590389E+02  0.47000000000E+01 0. -1.
        -13    1    6    6    0    0 -0.15851221552E+02  0.51423148939E+02  0.10841993849E+03  0.12103918594E+03  0.00000000000E+00 0.  1.
         14    1    6    6    0    0 -0.37574375673E+02  0.15115225371E+02  0.31350119685E+01  0.40621817356E+02  0.00000000000E+00 0. -1.
         -5    1    3    3    0  503  0.14841276018E+02 -0.92167774253E+02  0.92206274471E+02  0.13129832115E+03  0.47000000000E+01 0.  1.
         11    1    4    4    0    0 -0.27411235861E+02 -0.25943772605E+02  0.45064656848E+02  0.58781616899E+02  0.00000000000E+00 0. -1.
        -12    1    4    4    0    0 -0.46232860752E+00  0.37292875997E+02 -0.10831221910E+02  0.38836680032E+02  0.00000000000E+00 0.  1.
</event>
<event>
12    1  0.1066489E+000  0.2745996E+03  0.7818608E-02  0.1098736E+00
         21   -1    0    0  503  502  0.00000000000E+00  0.00000000000E+00  0.15349861778E+03  0.15349861778E+03  0.00000000000E+00 0. -1.
         21   -1    0    0  501  503 -0.00000000000E+00 -0.00000000000E+00 -0.53283025014E+03  0.53283025014E+03  0.00000000000E+00 0. -1.
          6    2    1    2  501    0 -0.19856801200E+03 -0.79337315991E+02 -0.93045618036E+02  0.28993520762E+03  0.17228253680E+03 0.  0.
         24    2    3    3    0    0 -0.19888152599E+03 -0.84428346620E+02 -0.36706915810E+02  0.23317116749E+03  0.79620277478E+02 0.  0.
         -6    2    1    2    0  502  0.19856801200E+03  0.79337315991E+02 -0.28628601433E+03  0.39639366030E+03  0.17159425056E+03 0.  0.
        -24    2    5    5    0    0  0.24538905131E+02  0.49471719652E+02 -0.11618790546E+03  0.15117224907E+03  0.79396540252E+02 0.  0.
          5    1    3    3  501    0  0.31351399210E+00  0.50910306283E+01 -0.56338702226E+02  0.56764040135E+02  0.47000000000E+01 0. -1.
        -11    1    4    4    0    0 -0.51135431519E+02 -0.39823436640E+01 -0.39791039984E+02  0.64915470272E+02  0.00000000000E+00 0.  1.
         12    1    4    4    0    0 -0.14774609448E+03 -0.80446002955E+02  0.30841241742E+01  0.16825569722E+03  0.00000000000E+00 0. -1.
         -5    1    5    5    0  502  0.17402910687E+03  0.29865596339E+02 -0.17009810887E+03  0.24522141123E+03  0.47000000000E+01 0.  1.
         13    1    6    6    0    0 -0.19821160570E+02 -0.79693016328E+01 -0.12967517283E+02  0.24990891928E+02  0.00000000000E+00 0. -1.
        -14    1    6    6    0    0  0.44360065702E+02  0.57441021285E+02 -0.10322038818E+03  0.12618135714E+03  0.00000000000E+00 0.  1.
</event>
<event>
12    1  0.1066489E+000  0.1811146E+03  0.7818608E-02  0.1167363E+00
         21   -1    0    0  503  502  0.00000000000E+00  0.00000000000E+00  0.54244315839E+03  0.54244315839E+03  0.00000000000E+00 0. -1.
         21   -1    0    0  501  503 -0.00000000000E+00 -0.00000000000E+00 -0.16249023300E+03  0.16249023300E+03  0.00000000000E+00 0. -1.
          6    2    1    2  501    0 -0.47626559454E+02  0.19795201565E+02 -0.91002742339E+02  0.20035262515E+03  0.17087871758E+03 0.  0.
         24    2    3    3    0    0 -0.77537929827E+02 -0.18054547863E+02 -0.10094277994E+03  0.15087345825E+03  0.78963651912E+02 0.  0.
         -6    2    1    2    0  502  0.47626559454E+02 -0.19795201565E+02  0.47095566773E+03  0.50458076625E+03  0.17361557973E+03 0.  0.
        -24    2    5    5    0    0 -0.27934238592E+02 -0.47589075386E+02  0.21804435875E+03  0.23912238187E+03  0.81185770599E+02 0.  0.
          5    1    3    3  501    0  0.29911370373E+02  0.37849749428E+02  0.99400375992E+01  0.49479166897E+02  0.47000000000E+01 0. -1.
        -13    1    4    4    0    0 -0.11520591611E+02 -0.35027616456E+02 -0.11922618821E+02  0.38753151939E+02  0.00000000000E+00 0.  1.
         14    1    4    4    0    0 -0.66017338216E+02  0.16973068594E+02 -0.89020161117E+02  0.11212030631E+03  0.00000000000E+00 0. -1.
         -5    1    5    5    0  502  0.75560798047E+02  0.27793873821E+02  0.25291130898E+03  0.26545838437E+03  0.47000000000E+01 0.  1.
         11    1    6    6    0    0 -0.40489169465E+02  0.64745820413E+01  0.11483417091E+03  0.12193514615E+03  0.00000000000E+00 0. -1.
        -12    1    6    6    0    0  0.12554930873E+02 -0.54063657427E+02  0.10321018784E+03  0.11718723573E+03  0.00000000000E+00 0.  1.
</event>
<event>
12    1  0.1066489E+000  0.2009901E+03  0.7818608E-02  0.1149123E+00
         21   -1    0    0  501  502  0.00000000000E+00  0.00000000000E+00  0.50899065695E+03  0.50899065695E+03  0.00000000000E+00 0. -1.
         21   -1    0    0  502  503 -0.00000000000E+00 -0.00000000000E+00 -0.89852537434E+02  0.89852537434E+02  0.00000000000E+00 0. -1.
         -6    2    1    2    0  503 -0.21139987434E+02  0.98438336713E+02  0.31334278353E+03  0.37170963459E+03  0.17276384823E+03 0.  0.
        -24    2    3    3    0    0 -0.36204701917E+02  0.26974328285E+02  0.63028976512E+02  0.11091634076E+03  0.79318269907E+02 0.  0.
          6    2    1    2  501    0  0.21139987434E+02 -0.98438336713E+02  0.10579533598E+03  0.22713355978E+03  0.17395400444E+03 0.  0.
         24    2    5    5    0    0  0.32223166748E+02 -0.10632368638E+03  0.17276277007E+02  0.13745229416E+03  0.79067089620E+02 0.  0.
          5    1    5    5  501    0 -0.11083179315E+02  0.78853496661E+01  0.88519058974E+02  0.89681265629E+02  0.47000000000E+01 0. -1.
        -13    1    6    6    0    0  0.20775804539E+02 -0.85900572121E+02  0.46614538425E+02  0.99917253453E+02  0.00000000000E+00 0.  1.
         14    1    6    6    0    0  0.11447362210E+02 -0.20423114258E+02 -0.29338261418E+02  0.37535040703E+02  0.00000000000E+00 0. -1.
         -5    1    3    3    0  503  0.15064714483E+02  0.71464008428E+02  0.25031380702E+03  0.26079329383E+03  0.47000000000E+01 0.  1.
         13    1    4    4    0    0 -0.21520156088E+02  0.53805135488E+02  0.53528070776E+02  0.78888301312E+02  0.00000000000E+00 0. -1.
        -14    1    4    4    0    0 -0.14684545828E+02 -0.26830807203E+02  0.95009057368E+01  0.32028039452E+02  0.00000000000E+00 0.  1.
</event>
<event>
12    1  0.1066489E+000  0.1996539E+03  0.7818608E-02  0.1152319E+00
         21   -1    0    0  503  502  0.00000000000E+00  0.00000000000E+00  0.52322639756E+03  0.52322639756E+03  0.00000000000E+00 0.  1.
         21   -1    0    0  501  503 -0.00000000000E+00 -0.00000000000E+00 -0.89735900581E+02  0.89735900581E+02  0.00000000000E+00 0.  1.
          6    2    1    2  501    0 -0.53938235032E+02 -0.84720066577E+02  0.76680896618E+02  0.20409220538E+03  0.16027116245E+03 0.  0.
         24    2    3    3    0    0  0.19844982137E+02 -0.67830889543E+02  0.15797391661E+02  0.10683944906E+03  0.78550985986E+02 0.  0.
         -6    2    1    2    0  502  0.53938235032E+02  0.84720066577E+02  0.35680960036E+03  0.40887009276E+03  0.17255387264E+03 0.  0.
        -24    2    5    5    0    0 -0.12698688491E+02  0.63738802104E+02  0.30400108539E+03  0.32116876843E+03  0.80677297387E+02 0.  0.
          5    1    3    3  501    0 -0.73783217170E+02 -0.16889177034E+02  0.60883504957E+02  0.97252756324E+02  0.47000000000E+01 0. -1.
        -11    1    4    4    0    0 -0.26565927441E+02 -0.23481971999E+02 -0.11224293835E+02  0.37190540220E+02  0.00000000000E+00 0.  1.
         12    1    4    4    0    0  0.46410909578E+02 -0.44348917544E+02  0.27021685496E+02  0.69648908837E+02  0.00000000000E+00 0. -1.
         -5    1    5    5    0  502  0.66636923523E+02  0.20981264474E+02  0.52808514968E+02  0.87701324327E+02  0.47000000000E+01 0.  1.
         13    1    6    6    0    0  0.23743427351E+02  0.62796284268E+02  0.19907917732E+03  0.21009436571E+03  0.00000000000E+00 0. -1.
        -14    1    6    6    0    0 -0.36442115841E+02  0.94251783609E+00  0.10492190807E+03  0.11107440272E+03  0.00000000000E+00 0.  1.
</event>
<event>
12    1  0.1066489E+000  0.2285957E+03  0.7818608E-02  0.1128078E+00
         21   -1    0    0  501  502  0.00000000000E+00  0.00000000000E+00  0.24153608216E+03  0.24153608216E+03  0.00000000000E+00 0. -1.
         21   -1    0    0  502  503 -0.00000000000E+00 -0.00000000000E+00 -0.23379965165E+03  0.23379965165E+03  0.00000000000E+00 0. -1.
         -6    2    1    2    0  503 -0.11341852089E+03  0.91527873647E+02 -0.65331667073E+02  0.23534630056E+03  0.17285410591E+03 0.  0.
        -24    2    3    3    0    0 -0.92906041088E+02  0.87300067111E+02 -0.10933724768E+03  0.18638491476E+03  0.80819976058E+02 0.  0.
          6    2    1    2  501    0  0.11341852089E+03 -0.91527873647E+02  0.73068097581E+02  0.23998943325E+03  0.17611038769E+03 0.  0.
         24    2    5    5    0    0  0.13963680825E+02 -0.16995678528E+02 -0.19322981924E+02  0.85055528330E+02  0.79857546908E+02 0.  0.
          5    1    5    5  501    0  0.99454840067E+02 -0.74532195118E+02  0.92391079505E+02  0.15493390492E+03  0.47000000000E+01 0. -1.
        -11    1    6    6    0    0 -0.31718105209E+01 -0.47205109195E+02 -0.53265960418E+01  0.47610454119E+02  0.00000000000E+00 0.  1.
         12    1    6    6    0    0  0.17135491346E+02  0.30209430666E+02 -0.13996385883E+02  0.37445074210E+02  0.00000000000E+00 0. -1.
         -5    1    3    3    0  503 -0.20512479804E+02  0.42278065355E+01  0.44005580606E+02  0.48961385809E+02  0.47000000000E+01 0.  1.
         13    1    4    4    0    0 -0.55967754793E+02 -0.11259786968E+00 -0.43532219213E+02  0.70904558136E+02  0.00000000000E+00 0. -1.
        -14    1    4    4    0    0 -0.36938286295E+02  0.87412664981E+02 -0.65805028466E+02  0.11548035662E+03  0.00000000000E+00 0.  1.
</event>
<event>
12    1  0.1102894E+000  0.5255654E+03  0.7818608E-02  0.1007317E+00
         21   -1    0    0  501  502  0.00000000000E+00  0.00000000000E+00  0.86014843917E+03  0.86014843917E+03  0.00000000000E+00 0. -1.
         21   -1    0    0  502  503 -0.00000000000E+00 -0.00000000000E+00 -0.78694847464E+03  0.78694847464E+03  0.00000000000E+00 0. -1.
         -6    2    1    2    0  503 -0.24442746585E+03  0.43256650203E+03  0.67024006365E+03  0.85172810642E+03  0.17134894104E+03 0.  0.
        -24    2    3    3    0    0 -0.25203615495E+03  0.34056449894E+03  0.52043637148E+03  0.67570112862E+03  0.78813686142E+02 0.  0.
          6    2    1    2  501    0  0.24442746585E+03 -0.43256650203E+03 -0.59704009912E+03  0.79536880739E+03  0.17116102090E+03 0.  0.
         24    2    5    5    0    0  0.33391542734E+02 -0.13987849436E+03 -0.20823562352E+03  0.26490350134E+03  0.78299436833E+02 0.  0.
          5    1    5    5  501    0  0.21103592312E+03 -0.29268800767E+03 -0.38880447560E+03  0.53046530605E+03  0.47000000000E+01 0. -1.
        -11    1    6    6    0    0  0.20332645326E+02 -0.43805238135E+01 -0.60689528958E+02  0.64154691021E+02  0.00000000000E+00 0.  1.
         12    1    6    6    0    0  0.13058897409E+02 -0.13549797055E+03 -0.14754609456E+03  0.20074881032E+03  0.00000000000E+00 0. -1.
         -5    1    3    3    0  503  0.76086890999E+01  0.92002003095E+02  0.14980369217E+03  0.17602697779E+03  0.47000000000E+01 0.  1.
         13    1    4    4    0    0 -0.11235733067E+03  0.11337658904E+03  0.14837449360E+03  0.21792983056E+03  0.00000000000E+00 0. -1.
        -14    1    4    4    0    0 -0.13967882428E+03  0.22718790990E+03  0.37206187788E+03  0.45777129806E+03  0.00000000000E+00 0.  1.
</event>
<event>
12    1  0.1066489E+000  0.2033753E+03  0.7818608E-02  0.1146970E+00
         21   -1    0    0  501  502  0.00000000000E+00  0.00000000000E+00  0.32401670178E+02  0.32401670178E+02  0.00000000000E+00 0. -1.
         21   -1    0    0  502  503 -0.00000000000E+00 -0.00000000000E+00 -0.12758188469E+04  0.12758188469E+04  0.00000000000E+00 0. -1.
         -6    2    1    2    0  503  0.30388791694E+02 -0.10478305105E+03 -0.63791848729E+03  0.66955321984E+03  0.17163493619E+03 0.  0.
        -24    2    3    3    0    0  0.16648674945E+02 -0.65147253695E+02 -0.17035014227E+03  0.20008326925E+03  0.80577916460E+02 0.  0.
          6    2    1    2  501    0 -0.30388791694E+02  0.10478305105E+03 -0.60549868938E+03  0.63866729719E+03  0.17136010973E+03 0.  0.
         24    2    5    5    0    0 -0.33045579010E+02  0.11184038587E+03 -0.28303669471E+03  0.31608290125E+03  0.78729585984E+02 0.  0.
          5    1    5    5  501    0  0.26567873159E+01 -0.70573348168E+01 -0.32246199468E+03  0.32258439594E+03  0.47000000000E+01 0. -1.
        -13    1    6    6    0    0 -0.45648064899E+02  0.10980199691E+03 -0.27799020384E+03  0.30235538326E+03  0.00000000000E+00 0.  1.
         14    1    6    6    0    0  0.12602485889E+02  0.20383889565E+01 -0.50464908655E+01  0.13727517990E+02  0.00000000000E+00 0. -1.
         -5    1    3    3    0  503  0.13740116749E+02 -0.39635797355E+02 -0.46756834502E+03  0.46946995059E+03  0.47000000000E+01 0.  1.
         11    1    4    4    0    0  0.26434526105E+02 -0.14525797994E+02 -0.10203588826E+02  0.31841736804E+02  0.00000000000E+00 0. -1.
        -12    1    4    4    0    0 -0.97858511600E+01 -0.50621455701E+02 -0.16014655344E+03  0.16824153244E+03  0.00000000000E+00 0.  1.
</event>
<event>
12    1  0.1066489E+000  0.2002963E+03  0.7818608E-02  0.1151446E+00
         21   -1    0    0  501  502  0.00000000000E+00  0.00000000000E+00  0.74340568512E+02  0.74340568512E+02  0.00000000000E+00 0. -1.
         21   -1    0    0  502  503 -0.00000000000E+00 -0.00000000000E+00 -0.52873561122E+03  0.52873561122E+03  0.00000000000E+00 0. -1.
         -6    2    1    2    0  503  0.27190078879E+02 -0.96531568794E+02 -0.26975086760E+03  0.33065721318E+03  0.16282204364E+03 0.  0.
        -24    2    3    3    0    0  0.28697678225E+02 -0.80134368938E+01 -0.20116552768E+03  0.21856898283E+03  0.80106546696E+02 0.  0.
          6    2    1    2  501    0 -0.27190078879E+02  0.96531568794E+02 -0.18464417511E+03  0.27241896655E+03  0.17338101906E+03 0.  0.
         24    2    5    5    0    0 -0.10754268630E+02  0.13531294980E+03 -0.14432913626E+03  0.21392517433E+03  0.80671134628E+02 0.  0.
          5    1    5    5  501    0 -0.16435810249E+02 -0.38781381002E+02 -0.40315038849E+02  0.58493792220E+02  0.47000000000E+01 0. -1.
        -11    1    6    6    0    0  0.37980518208E+01  0.61922307891E+02 -0.12027781592E+03  0.13533495637E+03  0.00000000000E+00 0.  1.
         12    1    6    6    0    0 -0.14552320451E+02  0.73390641905E+02 -0.24051320345E+02  0.78590217967E+02  0.00000000000E+00 0. -1.
         -5    1    3    3    0  503 -0.15075993460E+01 -0.88518131901E+02 -0.68585339916E+02  0.11208823035E+03  0.47000000000E+01 0.  1.
         11    1    4    4    0    0  0.46718165157E+01 -0.18490508667E+02 -0.18849295840E+03  0.18945532494E+03  0.00000000000E+00 0. -1.
        -12    1    4    4    0    0  0.24025861710E+02  0.10477071773E+02 -0.12672569275E+02  0.29113657892E+02  0.00000000000E+00 0.  1.
</event>
<event>
12    1  0.1066489E+000  0.1732006E+03  0.7818608E-02  0.1175014E+00
         21   -1    0    0  503  502  0.00000000000E+00  0.00000000000E+00  0.41954980557E+03  0.41954980557E+03  0.00000000000E+00 0.  1.
         21   -1    0    0  501  503 -0.00000000000E+00 -0.00000000000E+00 -0.72139156234E+02  0.72139156234E+02  0.00000000000E+00 0.  1.
          6    2    1    2  501    0  0.10465948608E+02 -0.14460308341E+02  0.14055456555E+03  0.22305615549E+03  0.17227833875E+03 0.  0.
         24    2    3    3    0    0  0.24526188688E+02 -0.31192477030E+02  0.85646317491E+01  0.89186485857E+02  0.79412667678E+02 0.  0.
         -6    2    1    2    0  502 -0.10465948608E+02  0.14460308341E+02  0.20685608378E+03  0.26863280632E+03  0.17045676471E+03 0.  0.
        -24    2    5    5    0    0 -0.59487606450E+02 -0.19677390738E+02  0.17061156374E+03  0.19860237958E+03  0.80053884771E+02 0.  0.
          5    1    3    3  501    0 -0.14060240081E+02  0.16732168689E+02  0.13198993381E+03  0.13386966963E+03  0.47000000000E+01 0. -1.
        -11    1    4    4    0    0 -0.12818310323E+02 -0.43607902451E+02  0.17714147505E+02  0.48782673743E+02  0.00000000000E+00 0.  1.
         12    1    4    4    0    0  0.37344499011E+02  0.12415425422E+02 -0.91495157557E+01  0.40403812114E+02  0.00000000000E+00 0. -1.
         -5    1    5    5    0  502  0.49021657843E+02  0.34137699079E+02  0.36244520046E+02  0.70030426740E+02  0.47000000000E+01 0.  1.
         13    1    6    6    0    0 -0.29301633170E+02 -0.50004704686E+02  0.84793766104E+02  0.10270851458E+03  0.00000000000E+00 0. -1.
        -14    1    6    6    0    0 -0.30185973280E+02  0.30327313948E+02  0.85817797634E+02  0.95893865001E+02  0.00000000000E+00 0.  1.
</event>
<event>
12    1  0.1066489E+000  0.4355954E+03  0.7818608E-02  0.1032154E+00
         21   -1    0    0  503  502  0.00000000000E+00  0.00000000000E+00  0.24974240485E+04  0.24974240485E+04  0.00000000000E+00 0. -1.
         21   -1    0    0  501  503 -0.00000000000E+00 -0.00000000000E+00 -0.81882019984E+02  0.81882019984E+02  0.00000000000E+00 0. -1.
          6    2    1    2  501    0 -0.27915653584E+03 -0.28635626113E+03  0.85754858181E+03  0.96156476572E+03  0.17114014347E+03 0.  0.
         24    2    3    3    0    0 -0.27566673321E+03 -0.21314196741E+03  0.75572266119E+03  0.83601350273E+03  0.79876091769E+02 0.  0.
         -6    2    1    2    0  502  0.27915653584E+03  0.28635626113E+03  0.15579934467E+04  0.16177413028E+04  0.17267038808E+03 0.  0.
        -24    2    5    5    0    0  0.28790998171E+03  0.24855474607E+03  0.14852538796E+04  0.15351658101E+04  0.77995887779E+02 0.  0.
          5    1    3    3  501    0 -0.34898026294E+01 -0.73214293720E+02  0.10182592062E+03  0.12555126299E+03  0.47000000000E+01 0. -1.
        -13    1    4    4    0    0 -0.23122133033E+03 -0.19653488797E+03  0.69921758793E+03  0.76222995287E+03  0.00000000000E+00 0.  1.
         14    1    4    4    0    0 -0.44445402884E+02 -0.16607079443E+02  0.56505073266E+02  0.73783549860E+02  0.00000000000E+00 0. -1.
         -5    1    5    5    0  502 -0.87534458641E+01  0.37801515058E+02  0.72739567171E+02  0.82575492656E+02  0.47000000000E+01 0.  1.
         13    1    6    6    0    0  0.81336851950E+02  0.56675564896E+02  0.52924415291E+03  0.53844886158E+03  0.00000000000E+00 0. -1.
        -14    1    6    6    0    0  0.20657312976E+03  0.19187918118E+03  0.95600972665E+03  0.99671694856E+03  0.00000000000E+00 0.  1.
</event>
<event>
12    1  0.1066489E+000  0.2850842E+03  0.7818608E-02  0.1092965E+00
         21   -1    0    0  503  502  0.00000000000E+00  0.00000000000E+00  0.47940122121E+03  0.47940122121E+03  0.00000000000E+00 0.  1.
         21   -1    0    0  501  503 -0.00000000000E+00 -0.00000000000E+00 -0.22181131011E+03  0.22181131011E+03  0.00000000000E+00 0.  1.
          6    2    1    2  501    0 -0.22435716335E+03 -0.32469555054E+02 -0.41597830563E+02  0.28794954752E+03  0.17260983070E+03 0.  0.
         24    2    3    3    0    0 -0.12289417672E+03  0.48333436150E+02 -0.93826596995E+01  0.15421934047E+03  0.79097856792E+02 0.  0.
         -6    2    1    2    0  502  0.22435716335E+03  0.32469555054E+02  0.29918774166E+03  0.41326298381E+03  0.17286578688E+03 0.  0.
        -24    2    5    5    0    0  0.21206858183E+03 -0.58122096695E+01  0.29571871932E+03  0.37263507638E+03  0.80002962524E+02 0.  0.
          5    1    3    3  501    0 -0.10146298663E+03 -0.80802991204E+02 -0.32215170863E+02  0.13373020705E+03  0.47000000000E+01 0. -1.
        -13    1    4    4    0    0 -0.12408903141E+03  0.22128047808E+02 -0.16284040412E+02  0.12709409187E+03  0.00000000000E+00 0.  1.
         14    1    4    4    0    0  0.11948546855E+01  0.26205388342E+02  0.69013807127E+01  0.27125248600E+02  0.00000000000E+00 0. -1.
         -5    1    5    5    0  502  0.12288581523E+02  0.38281764723E+02  0.34690223432E+01  0.40627907431E+02  0.47000000000E+01 0.  1.
         11    1    6    6    0    0  0.14593989515E+03 -0.38436385584E+02  0.17407011393E+03  0.23038275390E+03  0.00000000000E+00 0. -1.
        -12    1    6    6    0    0  0.66128686674E+02  0.32624175915E+02  0.12164860539E+03  0.14225232247E+03  0.00000000000E+00 0.  1.
</event>
<event>
12    1  0.1066489E+000  0.3258518E+03  0.7818608E-02  0.1073072E+00
         21   -1    0    0  501  502  0.00000000000E+00  0.00000000000E+00  0.13525090675E+04  0.13525090675E+04  0.00000000000E+00 0. -1.
         21   -1    0    0  502  503 -0.00000000000E+00 -0.00000000000E+00 -0.81548505240E+02  0.81548505240E+02  0.00000000000E+00 0.  1.
         -6    2    1    2    0  503 -0.25149952233E+03 -0.11204414597E+03  0.77735618183E+03  0.84259777199E+03  0.17286547244E+03 0.  0.
        -24    2    3    3    0    0 -0.10843012280E+03  0.11706518051E+02  0.34374365284E+03  0.36949630801E+03  0.80459236070E+02 0.  0.
          6    2    1    2  501    0  0.25149952233E+03  0.11204414597E+03  0.49360438043E+03  0.59145980075E+03  0.17427997918E+03 0.  0.
         24    2    5    5    0    0  0.26065162195E+03  0.75563717945E+02  0.39420366883E+03  0.48507759348E+03  0.79086001809E+02 0.  0.
          5    1    5    5  501    0 -0.91520996201E+01  0.36480428028E+02  0.99400711603E+02  0.10638220727E+03  0.47000000000E+01 0. -1.
        -13    1    6    6    0    0  0.10585931007E+03 -0.87466190427E+01  0.13970885782E+03  0.17550288267E+03  0.00000000000E+00 0.  1.
         14    1    6    6    0    0  0.15479231188E+03  0.84310336988E+02  0.25449481101E+03  0.30957471081E+03  0.00000000000E+00 0. -1.
         -5    1    3    3    0  503 -0.14306939952E+03 -0.12375066402E+03  0.43361252898E+03  0.47310146398E+03  0.47000000000E+01 0.  1.
         11    1    4    4    0    0 -0.65915163787E+02  0.26192716431E+02  0.29417569371E+03  0.30260569390E+03  0.00000000000E+00 0. -1.
        -12    1    4    4    0    0 -0.42514959016E+02 -0.14486198379E+02  0.49567959130E+02  0.66890614109E+02  0.00000000000E+00 0.  1.
</event>
<event>
12    1  0.1066489E+000  0.2379446E+03  0.7818608E-02  0.1121457E+00
         21   -1    0    0  501  502  0.00000000000E+00  0.00000000000E+00  0.61717179905E+02  0.61717179905E+02  0.00000000000E+00 0.  1.
         21   -1    0    0  502  503 -0.00000000000E+00 -0.00000000000E+00 -0.16821637516E+04  0.16821637516E+04  0.00000000000E+00 0. -1.
         -6    2    1    2    0  503  0.16828407374E+03 -0.33818642401E+02 -0.13990854013E+04  0.14188911075E+04  0.16232308727E+03 0.  0.
        -24    2    3    3    0    0  0.51618333380E+02 -0.40084721005E+01 -0.34073394839E+03  0.35370125157E+03  0.79526294934E+02 0.  0.
          6    2    1    2  501    0 -0.16828407374E+03  0.33818642401E+02 -0.22136117042E+03  0.32498982406E+03  0.16478588510E+03 0.  0.
         24    2    5    5    0    0 -0.46425265871E+02 -0.32290381016E+02 -0.10765456041E+03  0.14562635177E+03  0.80122131373E+02 0.  0.
          5    1    5    5  501    0 -0.12185880787E+03  0.66109023418E+02 -0.11370661001E+03  0.17936347229E+03  0.47000000000E+01 0. -1.
        -11    1    6    6    0    0  0.18949873884E+02  0.20355383660E+01 -0.59927891619E+01  0.19978855287E+02  0.00000000000E+00 0.  1.
         12    1    6    6    0    0 -0.65375139754E+02 -0.34325919382E+02 -0.10166177125E+03  0.12564749648E+03  0.00000000000E+00 0. -1.
         -5    1    3    3    0  503  0.11666574036E+03 -0.29810170301E+02 -0.10583514529E+04  0.10651898559E+04  0.47000000000E+01 0.  1.
         11    1    4    4    0    0  0.52049795334E+02  0.30533650940E+02 -0.21841141124E+03  0.22659441651E+03  0.00000000000E+00 0. -1.
        -12    1    4    4    0    0 -0.43146195339E+00 -0.34542123040E+02 -0.12232253715E+03  0.12710683506E+03  0.00000000000E+00 0.  1.
</event>
<event>
12    1  0.1066489E+000  0.2132324E+03  0.7818608E-02  0.1139289E+00
         21   -1    0    0  503  502  0.00000000000E+00  0.00000000000E+00  0.47837891707E+03  0.47837891707E+03  0.00000000000E+00 0.  1.
         21   -1    0    0  501  503 -0.00000000000E+00 -0.00000000000E+00 -0.11119873160E+03  0.11119873160E+03  0.00000000000E+00 0.  1.
          6    2    1    2  501    0 -0.65515664941E+02  0.10580358669E+03  0.68720544949E+02  0.22277225104E+03  0.17151752455E+03 0.  0.
         24    2    3    3    0    0  0.20743781387E+02  0.19548202411E+02  0.29787425661E+01  0.84118877556E+02  0.79086509408E+02 0.  0.
         -6    2    1    2    0  502  0.65515664941E+02 -0.10580358669E+03  0.29845964052E+03  0.36680539763E+03  0.17315120966E+03 0.  0.
        -24    2    5    5    0    0  0.10133114002E+03 -0.36570696584E+02  0.19457106017E+03  0.23684052371E+03  0.81425551448E+02 0.  0.
          5    1    3    3  501    0 -0.86259446328E+02  0.86255384280E+02  0.65741802383E+02  0.13865337348E+03  0.47000000000E+01 0. -1.
        -11    1    4    4    0    0  0.36816885033E+02 -0.90624950469E+01  0.24253747782E+02  0.45009511455E+02  0.00000000000E+00 0.  1.
         12    1    4    4    0    0 -0.16073103646E+02  0.28610697458E+02 -0.21275005216E+02  0.39109366101E+02  0.00000000000E+00 0. -1.
         -5    1    5    5    0  502 -0.35815475077E+02 -0.69232890108E+02  0.10388858035E+03  0.12996487393E+03  0.47000000000E+01 0.  1.
         11    1    6    6    0    0  0.77357286336E+02 -0.61931172786E+02  0.13022929233E+03  0.16364378538E+03  0.00000000000E+00 0. -1.
        -12    1    6    6    0    0  0.23973853682E+02  0.25360476202E+02  0.64341767832E+02  0.73196738325E+02  0.00000000000E+00 0.  1.
</event>
<event>
12    1  0.1066489E+000  0.1883519E+03  0.7818608E-02  0.1160297E+00
         21   -1    0    0  501  502  0.00000000000E+00  0.00000000000E+00  0.44508096649E+03  0.44508096649E+03  0.00000000000E+00 0. -1.
         21   -1    0    0  502  503 -0.00000000000E+00 -0.00000000000E+00 -0.96008805721E+02  0.96008805721E+02  0.00000000000E+00 0. -1.
         -6    2    1    2    0  503 -0.70004385894E+02  0.97536528290E+01  0.28871470077E+03  0.34472109616E+03  0.17458725014E+03 0.  0.
        -24    2    3    3    0    0 -0.13011967301E+02  0.17067868277E+02  0.27645400140E+03  0.28578003854E+03  0.69157733597E+02 0.  0.
          6    2    1    2  501    0  0.70004385894E+02 -0.97536528290E+01  0.60357460002E+02  0.19636867605E+03  0.17297943857E+03 0.  0.
         24    2    5    5    0    0  0.73657799926E+02  0.27983736029E+01  0.10411283029E+03  0.15046090732E+03  0.79785342111E+02 0.  0.
          5    1    5    5  501    0 -0.36534140323E+01 -0.12552026432E+02 -0.43755370284E+02  0.45907768736E+02  0.47000000000E+01 0. -1.
        -13    1    6    6    0    0 -0.68229216521E+01 -0.16774571867E+02  0.45562040461E+02  0.49028951163E+02  0.00000000000E+00 0.  1.
         14    1    6    6    0    0  0.80480721578E+02  0.19572945470E+02  0.58550789824E+02  0.10143195615E+03  0.00000000000E+00 0. -1.
         -5    1    3    3    0  503 -0.56992418592E+02 -0.73142154484E+01  0.12260699369E+02  0.58941057622E+02  0.47000000000E+01 0.  1.
         13    1    4    4    0    0 -0.35806782853E+02  0.26151663942E+02  0.13177305048E+03  0.13903298910E+03  0.00000000000E+00 0. -1.
        -14    1    4    4    0    0  0.22794815552E+02 -0.90837956650E+01  0.14468095092E+03  0.14674704944E+03  0.00000000000E+00 0.  1.
</event>
<event>
12    1  0.1066489E+000  0.2995505E+03  0.7818608E-02  0.1086704E+00
         21   -1    0    0  501  502  0.00000000000E+00  0.00000000000E+00  0.23881362374E+03  0.23881362374E+03  0.00000000000E+00 0. -1.
         21   -1    0    0  502  503 -0.00000000000E+00 -0.00000000000E+00 -0.55697687483E+03  0.55697687483E+03  0.00000000000E+00 0. -1.
         -6    2    1    2    0  503 -0.19981627916E+03  0.12226150487E+03 -0.39177359465E+03  0.48732821987E+03  0.17066875352E+03 0.  0.
        -24    2    3    3    0    0 -0.18178370411E+03  0.67555943176E+02 -0.37106089380E+03  0.42593621535E+03  0.78271016973E+02 0.  0.
          6    2    1    2  501    0  0.19981627916E+03 -0.12226150487E+03  0.73610343568E+02  0.30846227870E+03  0.18669781389E+03 0.  0.
         24    2    5    5    0    0  0.20695485904E+03 -0.13888534437E+03  0.38518285157E+02  0.26870232490E+03  0.92724476557E+02 0.  0.
          5    1    5    5  501    0 -0.71385798848E+01  0.16623839503E+02  0.35092058411E+02  0.39759953799E+02  0.47000000000E+01 0. -1.
        -13    1    6    6    0    0  0.10218695943E+03 -0.11106763318E+03 -0.71114317035E+01  0.15109191334E+03  0.00000000000E+00 0.  1.
         14    1    6    6    0    0  0.10476789962E+03 -0.27817711194E+02  0.45629716861E+02  0.11761041156E+03  0.00000000000E+00 0. -1.
         -5    1    3    3    0  503 -0.18032575043E+02  0.54705561694E+02 -0.20712700853E+02  0.61392004524E+02  0.47000000000E+01 0.  1.
         13    1    4    4    0    0  0.15309509917E+00  0.19197125739E+02 -0.52607338301E+02  0.56000759976E+02  0.00000000000E+00 0. -1.
        -14    1    4    4    0    0 -0.18193679921E+03  0.48358817437E+02 -0.31845355550E+03  0.36993545537E+03  0.00000000000E+00 0.  1.
</event>
<event>
12    1  0.1066489E+000  0.1888026E+03  0.7818608E-02  0.1159558E+00
         21   -1    0    0  501  502  0.00000000000E+00  0.00000000000E+00  0.36866006164E+03  0.36866006164E+03  0.00000000000E+00 0.  1.
         21   -1    0    0  502  503 -0.00000000000E+00 -0.00000000000E+00 -0.11465525693E+03  0.11465525693E+03  0.00000000000E+00 0.  1.
         -6    2    1    2    0  503  0.59611614252E+02  0.51634301749E+02  0.22271481495E+03  0.29193744285E+03  0.17148159105E+03 0.  0.
        -24    2    3    3    0    0  0.87845128987E+02  0.11808670150E+02  0.20855411695E+03  0.24089013485E+03  0.81713071129E+02 0.  0.
          6    2    1    2  501    0 -0.59611614252E+02 -0.51634301749E+02  0.31289989763E+02  0.19137787572E+03  0.17154236265E+03 0.  0.
         24    2    5    5    0    0 -0.27741238839E+02 -0.88983698963E+02 -0.15004624766E+02  0.12373188814E+03  0.79979787225E+02 0.  0.
          5    1    5    5  501    0 -0.31870375413E+02  0.37349397214E+02  0.46294614529E+02  0.67645987580E+02  0.47000000000E+01 0. -1.
        -13    1    6    6    0    0  0.19834984566E+02  0.22127277046E+01 -0.25195658490E+01  0.20116435785E+02  0.00000000000E+00 0.  1.
         14    1    6    6    0    0 -0.47576223405E+02 -0.91196426667E+02 -0.12485058917E+02  0.10361545235E+03  0.00000000000E+00 0. -1.
         -5    1    3    3    0  503 -0.28233514735E+02  0.39825631600E+02  0.14160698006E+02  0.51047308006E+02  0.47000000000E+01 0.  1.
         13    1    4    4    0    0  0.75144285343E+02 -0.19023927680E+01  0.75532288816E+02  0.10656176318E+03  0.00000000000E+00 0. -1.
        -14    1    4    4    0    0  0.12700843644E+02  0.13711062918E+02  0.13302182813E+03  0.13432837167E+03  0.00000000000E+00 0.  1.
</event>
<event>
12    1  0.1066489E+000  0.2481637E+03  0.7818608E-02  0.1115236E+00
         21   -1    0    0  503  502  0.00000000000E+00  0.00000000000E+00  0.22906167344E+03  0.22906167344E+03  0.00000000000E+00 0.  1.
         21   -1    0    0  501  503 -0.00000000000E+00 -0.00000000000E+00 -0.26862856980E+03  0.26862856980E+03  0.00000000000E+00 0.  1.
          6    2    1    2  501    0  0.12952020868E+03  0.11587744532E+03 -0.53551557480E+02  0.25387593482E+03  0.17715008943E+03 0.  0.
         24    2    3    3    0    0  0.82325824759E+02  0.74942364147E+02 -0.10587459079E+03  0.17225007765E+03  0.77889414610E+02 0.  0.
         -6    2    1    2    0  502 -0.12952020868E+03 -0.11587744532E+03  0.13984661127E+02  0.24381430841E+03  0.17043115751E+03 0.  0.
        -24    2    5    5    0    0 -0.12599842891E+03 -0.10067441310E+03 -0.43755976322E+02  0.18381758905E+03  0.76572704269E+02 0.  0.
          5    1    3    3  501    0  0.47194383922E+02  0.40935081172E+02  0.52323033314E+02  0.81625857174E+02  0.47000000000E+01 0. -1.
        -13    1    4    4    0    0  0.63982903324E+02  0.24146659509E+02 -0.95170380435E+02  0.11719332061E+03  0.00000000000E+00 0.  1.
         14    1    4    4    0    0  0.18342921435E+02  0.50795704638E+02 -0.10704210360E+02  0.55056757041E+02  0.00000000000E+00 0. -1.
         -5    1    5    5    0  502 -0.35217797690E+01 -0.15203032217E+02  0.57740637449E+02  0.59996719363E+02  0.47000000000E+01 0.  1.
         11    1    6    6    0    0 -0.10749235886E+02 -0.36801470975E+02  0.12811325011E+02  0.40423067506E+02  0.00000000000E+00 0. -1.
        -12    1    6    6    0    0 -0.11524919303E+03 -0.63872942127E+02 -0.56567301333E+02  0.14339452154E+03  0.00000000000E+00 0.  1.
</event>
<event>
12    1  0.1066489E+000  0.2197687E+03  0.7818608E-02  0.1134317E+00
         21   -1    0    0  501  502  0.00000000000E+00  0.00000000000E+00  0.64066992889E+03  0.64066992889E+03  0.00000000000E+00 0. -1.
         21   -1    0    0  502  503 -0.00000000000E+00 -0.00000000000E+00 -0.10113549748E+03  0.10113549748E+03  0.00000000000E+00 0. -1.
         -6    2    1    2    0  503  0.12978046338E+03  0.39088196484E+02  0.80251566207E+02  0.23265020791E+03  0.17121609032E+03 0.  0.
        -24    2    3    3    0    0  0.20081507601E+02  0.63185158911E+02  0.21190768566E+02  0.10566677468E+03  0.79503379459E+02 0.  0.
          6    2    1    2  501    0 -0.12978046338E+03 -0.39088196484E+02  0.45928286520E+03  0.50915521846E+03  0.17299546363E+03 0.  0.
         24    2    5    5    0    0 -0.14414817197E+03 -0.94533122379E+01  0.26303742660E+03  0.31010994827E+03  0.78175646003E+02 0.  0.
          5    1    5    5  501    0  0.14367708585E+02 -0.29634884246E+02  0.19624543860E+03  0.19904527019E+03  0.47000000000E+01 0. -1.
        -13    1    6    6    0    0 -0.61285502587E+02  0.12439211799E+02  0.18088439507E+03  0.19138916165E+03  0.00000000000E+00 0.  1.
         14    1    6    6    0    0 -0.82862669378E+02 -0.21892524037E+02  0.82153031533E+02  0.11872078662E+03  0.00000000000E+00 0. -1.
         -5    1    3    3    0  503  0.10969895578E+03 -0.24096962427E+02  0.59060797641E+02  0.12698343323E+03  0.47000000000E+01 0.  1.
         13    1    4    4    0    0 -0.11131561649E+02 -0.14989417769E+02 -0.72601471454E+00  0.18684790798E+02  0.00000000000E+00 0. -1.
        -14    1    4    4    0    0  0.31213069250E+02  0.78174576681E+02  0.21916783281E+02  0.86981983885E+02  0.00000000000E+00 0.  1.
</event>
<event>
12    1  0.1066489E+000  0.4477545E+03  0.7818608E-02  0.1028426E+00
         21   -1    0    0  501  502  0.00000000000E+00  0.00000000000E+00  0.55136126272E+02  0.55136126272E+02  0.00000000000E+00 0. -1.
         21   -1    0    0  502  503 -0.00000000000E+00 -0.00000000000E+00 -0.36958162836E+04  0.36958162836E+04  0.00000000000E+00 0. -1.
         -6    2    1    2    0  503 -0.40022480798E+03  0.10278039351E+03 -0.15759911964E+04  0.16383626967E+04  0.17245396079E+03 0.  0.
        -24    2    3    3    0    0 -0.41952752669E+02 -0.29675707481E+01 -0.37845680136E+03  0.38390974227E+03  0.48870234144E+02 0.  0.
          6    2    1    2  501    0  0.40022480798E+03 -0.10278039351E+03 -0.20646889609E+04  0.21125897132E+04  0.17132158244E+03 0.  0.
         24    2    5    5    0    0  0.40606230626E+03 -0.11690195451E+03 -0.20084748732E+04  0.20541465054E+04  0.83629456444E+02 0.  0.
          5    1    5    5  501    0 -0.58374982816E+01  0.14121561003E+02 -0.56214087722E+02  0.58443207730E+02  0.47000000000E+01 0. -1.
        -13    1    6    6    0    0  0.34638400447E+03 -0.73603529550E+02 -0.15631559440E+04  0.16027650680E+04  0.00000000000E+00 0.  1.
         14    1    6    6    0    0  0.59678301797E+02 -0.43298424964E+02 -0.44531892919E+03  0.45138143738E+03  0.00000000000E+00 0. -1.
         -5    1    3    3    0  503 -0.35827205531E+03  0.10574796426E+03 -0.11975343951E+04  0.12544529545E+04  0.47000000000E+01 0.  1.
         13    1    4    4    0    0 -0.49338589448E+02  0.79861528190E+01 -0.32630473049E+03  0.33011036365E+03  0.00000000000E+00 0. -1.
        -14    1    4    4    0    0  0.73858367798E+01 -0.10953723567E+02 -0.52152070862E+02  0.53799378622E+02  0.00000000000E+00 0.  1.
</event>
<event>
12    1  0.1066489E+000  0.1839152E+03  0.7818608E-02  0.1164219E+00
         21   -1    0    0  503  502  0.00000000000E+00  0.00000000000E+00  0.52381727560E+03  0.52381727560E+03  0.00000000000E+00 0. -1.
         21   -1    0    0  501  503 -0.00000000000E+00 -0.00000000000E+00 -0.64740651700E+02  0.64740651700E+02  0.00000000000E+00 0. -1.
          6    2    1    2  501    0 -0.17695651674E+02 -0.60873846642E+02  0.25209056219E+03  0.31166802411E+03  0.17195506510E+03 0.  0.
         24    2    3    3    0    0  0.67064647218E+01  0.15938729497E+02  0.19955396809E+03  0.21534658902E+03  0.79078109837E+02 0.  0.
         -6    2    1    2    0  502  0.17695651674E+02  0.60873846642E+02  0.20698606171E+03  0.27688990319E+03  0.17264422219E+03 0.  0.
        -24    2    5    5    0    0  0.17080341392E+01  0.10513101742E+03  0.13894695115E+03  0.19403031325E+03  0.85358415061E+02 0.  0.
          5    1    3    3  501    0 -0.24402116396E+02 -0.76812576139E+02  0.52536594102E+02  0.96321435089E+02  0.47000000000E+01 0. -1.
        -11    1    4    4    0    0 -0.20690935458E+02 -0.37673583267E+01  0.16745641744E+03  0.16877191574E+03  0.00000000000E+00 0.  1.
         12    1    4    4    0    0  0.27397400179E+02  0.19706087824E+02  0.32097550647E+02  0.46574673283E+02  0.00000000000E+00 0. -1.
         -5    1    5    5    0  502  0.15987617535E+02 -0.44257170777E+02  0.68039110559E+02  0.82859589941E+02  0.47000000000E+01 0.  1.
         13    1    6    6    0    0 -0.18087070313E+01  0.35474764622E+02  0.11488558518E+03  0.12025151986E+03  0.00000000000E+00 0. -1.
        -14    1    6    6    0    0  0.35167411705E+01  0.69656252797E+02  0.24061365973E+02  0.73778793394E+02  0.00000000000E+00 0.  1.
</event>
<event>
12    1  0.1066489E+000  0.2580489E+03  0.7818608E-02  0.1108453E+00
         21   -1    0    0  501  502  0.00000000000E+00  0.00000000000E+00  0.28708814417E+03  0.28708814417E+03  0.00000000000E+00 0. -1.
         21   -1    0    0  502  503 -0.00000000000E+00 -0.00000000000E+00 -0.30037620277E+03  0.30037620277E+03  0.00000000000E+00 0. -1.
         -6    2    1    2    0  503  0.50472628079E+02 -0.18555985162E+03 -0.14762724501E+03  0.29654124377E+03  0.17077166354E+03 0.  0.
        -24    2    3    3    0    0  0.79810373264E+02 -0.71965424547E+02 -0.52054787051E+02  0.14514579511E+03  0.82515955859E+02 0.  0.
          6    2    1    2  501    0 -0.50472628079E+02  0.18555985162E+03  0.13433918641E+03  0.29092310317E+03  0.17207350242E+03 0.  0.
         24    2    5    5    0    0 -0.92273414296E+02  0.14654098236E+03  0.13453547843E+03  0.23354796555E+03  0.80350574111E+02 0.  0.
          5    1    5    5  501    0  0.41800786217E+02  0.39018869259E+02 -0.19629202103E+00  0.57375137622E+02  0.47000000000E+01 0. -1.
        -11    1    6    6    0    0 -0.50205474351E+02  0.50320822991E+02  0.10061422909E+03  0.12319090054E+03  0.00000000000E+00 0.  1.
         12    1    6    6    0    0 -0.42067939945E+02  0.96220159374E+02  0.33921249339E+02  0.11035706501E+03  0.00000000000E+00 0. -1.
         -5    1    3    3    0  503 -0.29337745185E+02 -0.11359442708E+03 -0.95572457960E+02  0.15139544866E+03  0.47000000000E+01 0.  1.
         13    1    4    4    0    0  0.16076536841E+01 -0.18687649893E+02  0.19086128048E+02  0.26759915784E+02  0.00000000000E+00 0. -1.
        -14    1    4    4    0    0  0.78202719580E+02 -0.53277774654E+02 -0.71140915099E+02  0.11838587932E+03  0.00000000000E+00 0.  1.
</event>
<event>
12    1  0.1066489E+000  0.2108306E+03  0.7818608E-02  0.1141179E+00
         21   -1    0    0  503  502  0.00000000000E+00  0.00000000000E+00  0.47145251941E+03  0.47145251941E+03  0.00000000000E+00 0.  1.
         21   -1    0    0  501  503 -0.00000000000E+00 -0.00000000000E+00 -0.93880152140E+02  0.93880152140E+02  0.00000000000E+00 0.  1.
          6    2    1    2  501    0 -0.34412383351E+02 -0.11649116063E+03  0.20141171169E+03  0.29059254936E+03  0.17065447401E+03 0.  0.
         24    2    3    3    0    0 -0.57369627647E+02 -0.35072339508E+02  0.47994473605E+02  0.11533559959E+03  0.80482842029E+02 0.  0.
         -6    2    1    2    0  502  0.34412383351E+02  0.11649116063E+03  0.17616065558E+03  0.27474012219E+03  0.17232282361E+03 0.  0.
        -24    2    5    5    0    0 -0.21810002176E+02  0.12883838326E+03  0.13671058865E+03  0.20479865866E+03  0.78598348224E+02 0.  0.
          5    1    3    3  501    0  0.22957244296E+02 -0.81418821127E+02  0.15341723809E+03  0.17525694977E+03  0.47000000000E+01 0. -1.
        -13    1    4    4    0    0  0.76334153892E+01 -0.22583751631E+01 -0.16336448379E+02  0.18172749779E+02  0.00000000000E+00 0.  1.
         14    1    4    4    0    0 -0.65003043036E+02 -0.32813964344E+02  0.64330921984E+02  0.97162849810E+02  0.00000000000E+00 0. -1.
         -5    1    5    5    0  502  0.56222385527E+02 -0.12347222624E+02  0.39450066929E+02  0.69941463536E+02  0.47000000000E+01 0.  1.
         11    1    6    6    0    0 -0.56952798924E+01  0.12660083716E+03  0.90273556666E+02  0.15559409763E+03  0.00000000000E+00 0. -1.
        -12    1    6    6    0    0 -0.16114722284E+02  0.22375460959E+01  0.46437031981E+02  0.49204561029E+02  0.00000000000E+00 0.  1.
</event>
<event>
12    1  0.1066489E+000  0.1810768E+03  0.7818608E-02  0.1167057E+00
         21   -1    0    0  501  502  0.00000000000E+00  0.00000000000E+00  0.22966030195E+03  0.22966030195E+03  0.00000000000E+00 0. -1.
         21   -1    0    0  502  503 -0.00000000000E+00 -0.00000000000E+00 -0.17720574004E+03  0.17720574004E+03  0.00000000000E+00 0. -1.
         -6    2    1    2    0  503  0.38408619031E+02  0.41445704231E+02  0.11706653588E+03  0.21460704983E+03  0.17075902202E+03 0.  0.
        -24    2    3    3    0    0 -0.39372394664E+02  0.33622363491E+01  0.35947147570E+02  0.95852337183E+02  0.79586324392E+02 0.  0.
          6    2    1    2  501    0 -0.38408619031E+02 -0.41445704231E+02 -0.64611973972E+02  0.19225899216E+03  0.17203442816E+03 0.  0.
         24    2    5    5    0    0  0.34725068109E+02 -0.52338866987E+02 -0.16620381396E+02  0.10398396655E+03  0.81186457420E+02 0.  0.
          5    1    5    5  501    0 -0.73133687140E+02  0.10893162756E+02 -0.47991592576E+02  0.88275025616E+02  0.47000000000E+01 0. -1.
        -11    1    6    6    0    0  0.50622469954E+02 -0.54160336954E+02 -0.32944421691E+02  0.81125282642E+02  0.00000000000E+00 0.  1.
         12    1    6    6    0    0 -0.15897401846E+02  0.18214699672E+01  0.16324040295E+02  0.22858683904E+02  0.00000000000E+00 0. -1.
         -5    1    3    3    0  503  0.77781013695E+02  0.38083467882E+02  0.81119388310E+02  0.11875471265E+03  0.47000000000E+01 0.  1.
         11    1    4    4    0    0  0.21477485784E+02  0.40546933473E+01 -0.51063114846E+01  0.22445430508E+02  0.00000000000E+00 0. -1.
        -12    1    4    4    0    0 -0.60849880447E+02 -0.69245699822E+00  0.41053459054E+02  0.73406906674E+02  0.00000000000E+00 0.  1.
</event>
<event>
12    1  0.1066489E+000  0.2832561E+03  0.7818608E-02  0.1094051E+00
         21   -1    0    0  501  502  0.00000000000E+00  0.00000000000E+00  0.25195813164E+03  0.25195813164E+03  0.00000000000E+00 0. -1.
         21   -1    0    0  502  503 -0.00000000000E+00 -0.00000000000E+00 -0.31772293439E+03  0.31772293439E+03  0.00000000000E+00 0.  1.
         -6    2    1    2    0  503 -0.22393556465E+03 -0.13847824689E+02 -0.42325332453E+02  0.28640087335E+03  0.17290207380E+03 0.  0.
        -24    2    3    3    0    0 -0.17600535128E+03 -0.42003336457E+02 -0.85555967640E+02  0.21582455994E+03  0.80735699157E+02 0.  0.
          6    2    1    2  501    0  0.22393556465E+03  0.13847824689E+02 -0.23439470300E+02  0.28328019268E+03  0.17134573072E+03 0.  0.
         24    2    5    5    0    0  0.19700906136E+03 -0.57791118255E+01 -0.72301800320E+02  0.22395169606E+03  0.77979763070E+02 0.  0.
          5    1    5    5  501    0  0.26926503290E+02  0.19626936515E+02  0.48862330020E+02  0.59328496622E+02  0.47000000000E+01 0. -1.
        -13    1    6    6    0    0  0.90658235316E+02 -0.18282950881E+02 -0.71443857054E+02  0.11686490762E+03  0.00000000000E+00 0.  1.
         14    1    6    6    0    0  0.10635082604E+03  0.12503839055E+02 -0.85794326657E+00  0.10708678844E+03  0.00000000000E+00 0. -1.
         -5    1    3    3    0  503 -0.47930213363E+02  0.28155511768E+02  0.43230635187E+02  0.70576313411E+02  0.47000000000E+01 0.  1.
         11    1    4    4    0    0  0.66149712694E+01  0.64098088106E+01 -0.37382659331E+01  0.99407306607E+01  0.00000000000E+00 0. -1.
        -12    1    4    4    0    0 -0.18262032255E+03 -0.48413145268E+02 -0.81817701707E+02  0.20588382928E+03  0.00000000000E+00 0.  1.
</event>
<event>
12    1  0.1066489E+000  0.2159039E+03  0.7818608E-02  0.1137724E+00
         21   -1    0    0  503  502  0.00000000000E+00  0.00000000000E+00  0.10375020457E+03  0.10375020457E+03  0.00000000000E+00 0. -1.
         21   -1    0    0  501  503 -0.00000000000E+00 -0.00000000000E+00 -0.44798467932E+03  0.44798467932E+03  0.00000000000E+00 0. -1.
          6    2    1    2  501    0  0.67035380011E+01 -0.12476295326E+03 -0.13674173522E+03  0.25228919101E+03  0.17129156962E+03 0.  0.
         24    2    3    3    0    0  0.14955782276E+02 -0.10538346281E+03 -0.16778259167E+03  0.21448325292E+03  0.80763346016E+02 0.  0.
         -6    2    1    2    0  502 -0.67035380011E+01  0.12476295326E+03 -0.20749273953E+03  0.29944569287E+03  0.17607882921E+03 0.  0.
        -24    2    5    5    0    0 -0.29124286195E+02  0.21074091415E+02 -0.31616467754E+02  0.93998320068E+02  0.80893397549E+02 0.  0.
          5    1    3    3  501    0 -0.82522442745E+01 -0.19379490447E+02  0.31040856451E+02  0.37805938089E+02  0.47000000000E+01 0. -1.
        -13    1    4    4    0    0 -0.26723470838E+02 -0.26602969169E+02 -0.22119378535E+02  0.43716458789E+02  0.00000000000E+00 0.  1.
         14    1    4    4    0    0  0.41679253113E+02 -0.78780493645E+02 -0.14566321313E+03  0.17076679414E+03  0.00000000000E+00 0. -1.
         -5    1    5    5    0  502  0.22420748194E+02  0.10368886185E+03 -0.17587627177E+03  0.20544737281E+03  0.47000000000E+01 0.  1.
         13    1    6    6    0    0 -0.44833774955E+02 -0.86047103248E+01 -0.38501203632E+02  0.59719771413E+02  0.00000000000E+00 0. -1.
        -14    1    6    6    0    0  0.15709488760E+02  0.29678801740E+02  0.68847358779E+01  0.34278548655E+02  0.00000000000E+00 0.  1.
</event>
<event>
12    1  0.1066489E+000  0.2407711E+03  0.7818608E-02  0.1119520E+00
         21   -1    0    0  503  502  0.00000000000E+00  0.00000000000E+00  0.29126313495E+02  0.29126313495E+02  0.00000000000E+00 0.  1.
         21   -1    0    0  501  503 -0.00000000000E+00 -0.00000000000E+00 -0.21480736946E+04  0.21480736946E+04  0.00000000000E+00 0.  1.
          6    2    1    2  501    0  0.22891543215E+02  0.16636597598E+03 -0.75062540589E+03  0.78785637313E+03  0.17052127141E+03 0.  0.
         24    2    3    3    0    0 -0.49419737681E+02  0.12039548182E+03 -0.51034512292E+03  0.53271148868E+03  0.79950004175E+02 0.  0.
         -6    2    1    2    0  502 -0.22891543215E+02 -0.16636597598E+03 -0.13683219752E+04  0.13893436349E+04  0.17253709004E+03 0.  0.
        -24    2    5    5    0    0 -0.63340535435E+02 -0.11073319039E+03 -0.11649712696E+04  0.11746235212E+04  0.79426031883E+02 0.  0.
          5    1    3    3  501    0  0.72311280896E+02  0.45970494168E+02 -0.24028028297E+03  0.25514488445E+03  0.47000000000E+01 0. -1.
        -13    1    4    4    0    0  0.77313510030E+01  0.18678061197E+02 -0.20236384032E+03  0.20337100981E+03  0.00000000000E+00 0.  1.
         14    1    4    4    0    0 -0.57151088684E+02  0.10171742062E+03 -0.30798128260E+03  0.32934047888E+03  0.00000000000E+00 0. -1.
         -5    1    5    5    0  502  0.40448992220E+02 -0.55632785595E+02 -0.20335070556E+03  0.21472011376E+03  0.47000000000E+01 0.  1.
         13    1    6    6    0    0 -0.26441232896E+02  0.14160744457E+01 -0.36840198268E+03  0.36935235874E+03  0.00000000000E+00 0. -1.
        -14    1    6    6    0    0 -0.36899302539E+02 -0.11214926484E+03 -0.79656928695E+03  0.80527116243E+03  0.00000000000E+00 0.  1.
</event>
<event>
12    1  0.1066489E+000  0.3061323E+03  0.7818608E-02  0.1082294E+00
         21   -1    0    0  501  502  0.00000000000E+00  0.00000000000E+00  0.21041729138E+04  0.21041729138E+04  0.00000000000E+00 0. -1.
         21   -1    0    0  502  503 -0.00000000000E+00 -0.00000000000E+00 -0.49299626188E+02  0.49299626188E+02  0.00000000000E+00 0. -1.
         -6    2    1    2    0  503  0.99726258519E+02 -0.23139273238E+03  0.13643606802E+04  0.13981417323E+04  0.17272033611E+03 0.  0.
        -24    2    3    3    0    0 -0.14057387044E+01 -0.16897280489E+03  0.88295082996E+03  0.90225720725E+03  0.76890279076E+02 0.  0.
          6    2    1    2  501    0 -0.99726258519E+02  0.23139273238E+03  0.69051260740E+03  0.75533080774E+03  0.17386501922E+03 0.  0.
         24    2    5    5    0    0  0.61343539693E+01  0.14493191906E+03  0.43531759957E+03  0.46579924895E+03  0.80153829377E+02 0.  0.
          5    1    5    5  501    0 -0.10586061249E+03  0.86460813318E+02  0.25519500784E+03  0.28953155880E+03  0.47000000000E+01 0. -1.
        -13    1    6    6    0    0 -0.19779677226E+02  0.97201718339E+02  0.18773429508E+03  0.21232893168E+03  0.00000000000E+00 0.  1.
         14    1    6    6    0    0  0.25914031195E+02  0.47730200724E+02  0.24758330449E+03  0.25347031727E+03  0.00000000000E+00 0. -1.
         -5    1    3    3    0  503  0.10113199722E+03 -0.62419927492E+02  0.48140985028E+03  0.49588452502E+03  0.47000000000E+01 0.  1.
         13    1    4    4    0    0 -0.13307694087E+02 -0.10887161811E+03  0.37764051280E+03  0.39324608181E+03  0.00000000000E+00 0. -1.
        -14    1    4    4    0    0  0.11901955383E+02 -0.60101186783E+02  0.50531031716E+03  0.50901112545E+03  0.00000000000E+00 0.  1.
</event>
<event>
12    1  0.1066489E+000  0.2401911E+03  0.7818608E-02  0.1119914E+00
         21   -1    0    0  503  502  0.00000000000E+00  0.00000000000E+00  0.48473087335E+02  0.48473087335E+02  0.00000000000E+00 0. -1.
         21   -1    0    0  501  503 -0.00000000000E+00 -0.00000000000E+00 -0.13794038448E+04  0.13794038448E+04  0.00000000000E+00 0. -1.
          6    2    1    2  501    0  0.19382608493E+02  0.16565013661E+03 -0.93321317053E+03  0.96325770775E+03  0.17077159193E+03 0.  0.
         24    2    3    3    0    0  0.30737612478E+02  0.17068246749E+03 -0.93021930381E+03  0.94964471001E+03  0.80248467448E+02 0.  0.
         -6    2    1    2    0  502 -0.19382608493E+02 -0.16565013661E+03 -0.39771758694E+03  0.46461922439E+03  0.17284701746E+03 0.  0.
        -24    2    5    5    0    0 -0.27351091389E+02 -0.13264309050E+02 -0.14882186335E+03  0.17263273775E+03  0.82037132065E+02 0.  0.
          5    1    3    3  501    0 -0.11355003985E+02 -0.50323308798E+01 -0.29938667191E+01  0.13612997742E+02  0.47000000000E+01 0. -1.
        -11    1    4    4    0    0  0.30121222049E+02  0.42054297374E+02 -0.14480698449E+03  0.15376903037E+03  0.00000000000E+00 0.  1.
         12    1    4    4    0    0  0.61639042907E+00  0.12862817012E+03 -0.78541231933E+03  0.79587567964E+03  0.00000000000E+00 0. -1.
         -5    1    5    5    0  502  0.79684828962E+01 -0.15238582756E+03 -0.24889572359E+03  0.29198648664E+03  0.47000000000E+01 0.  1.
         11    1    6    6    0    0 -0.30549137661E+02  0.16122848822E+02 -0.18869328366E+02  0.39360482961E+02  0.00000000000E+00 0. -1.
        -12    1    6    6    0    0  0.31980462723E+01 -0.29387157872E+02 -0.12995253498E+03  0.13327225479E+03  0.00000000000E+00 0.  1.
</event>
<event>
12    1  0.1066489E+000  0.1846200E+03  0.7818608E-02  0.1163865E+00
         21   -1    0    0  501  502  0.00000000000E+00  0.00000000000E+00  0.24007092455E+03  0.24007092455E+03  0.00000000000E+00 0.  1.
         21   -1    0    0  502  503 -0.00000000000E+00 -0.00000000000E+00 -0.18784435696E+03  0.18784435696E+03  0.00000000000E+00 0.  1.
         -6    2    1    2    0  503  0.62229517782E+02 -0.45493397932E+01  0.13344685305E+03  0.22621925735E+03  0.17167958654E+03 0.  0.
        -24    2    3    3    0    0 -0.10133839176E+02 -0.50463794789E+02  0.63759469909E+02  0.11566151689E+03  0.81627367990E+02 0.  0.
          6    2    1    2  501    0 -0.62229517782E+02  0.45493397932E+01 -0.81220285456E+02  0.20169602415E+03  0.17375655963E+03 0.  0.
         24    2    5    5    0    0  0.70394038022E+01 -0.10369793469E+02 -0.10006199325E+03  0.12822586703E+03  0.79198387997E+02 0.  0.
          5    1    5    5  501    0 -0.69268921584E+02  0.14919133262E+02  0.18841707791E+02  0.73470157120E+02  0.47000000000E+01 0. -1.
        -13    1    6    6    0    0 -0.15409298224E+02 -0.36175205556E+02 -0.27427633919E+02  0.47941287750E+02  0.00000000000E+00 0.  1.
         14    1    6    6    0    0  0.22448702026E+02  0.25805412087E+02 -0.72634359328E+02  0.80284579283E+02  0.00000000000E+00 0. -1.
         -5    1    3    3    0  503  0.72363356958E+02  0.45914454995E+02  0.69687383142E+02  0.11055774047E+03  0.47000000000E+01 0.  1.
         11    1    4    4    0    0  0.71777636533E+01 -0.63560109152E+02  0.68202795710E+02  0.93504166266E+02  0.00000000000E+00 0. -1.
        -12    1    4    4    0    0 -0.17311602829E+02  0.13096314363E+02 -0.44433258008E+01  0.22157350622E+02  0.00000000000E+00 0.  1.
</event>
<event>
12    1  0.1066489E+000  0.2203352E+03  0.7818608E-02  0.1133942E+00
         21   -1    0    0  503  502  0.00000000000E+00  0.00000000000E+00  0.51510968495E+02  0.51510968495E+02  0.00000000000E+00 0.  1.
         21   -1    0    0  501  503 -0.00000000000E+00 -0.00000000000E+00 -0.12871964488E+04  0.12871964488E+04  0.00000000000E+00 0.  1.
          6    2    1    2  501    0  0.13687542632E+03 -0.18735448039E+01 -0.26623747648E+03  0.34453589583E+03  0.17054089578E+03 0.  0.
         24    2    3    3    0    0  0.13878704351E+03 -0.24767661027E+02 -0.27586832081E+03  0.31918559010E+03  0.76816860260E+02 0.  0.
         -6    2    1    2    0  502 -0.13687542632E+03  0.18735448039E+01 -0.96944800384E+03  0.99417152147E+03  0.17265337954E+03 0.  0.
        -24    2    5    5    0    0 -0.22512227260E+02  0.41257446884E+02 -0.31336735987E+03  0.32701791515E+03  0.80824731968E+02 0.  0.
          5    1    3    3  501    0 -0.19116171920E+01  0.22894116223E+02  0.96308443366E+01  0.25350305729E+02  0.47000000000E+01 0. -1.
        -13    1    4    4    0    0  0.10892528964E+03 -0.51347776561E+02 -0.21295404452E+03  0.24464410469E+03  0.00000000000E+00 0.  1.
         14    1    4    4    0    0  0.29861753867E+02  0.26580115534E+02 -0.62914276297E+02  0.74541485414E+02  0.00000000000E+00 0. -1.
         -5    1    5    5    0  502 -0.11436319906E+03 -0.39383902080E+02 -0.65608064397E+03  0.66715360632E+03  0.47000000000E+01 0.  1.
         11    1    6    6    0    0 -0.34784477920E+02  0.81201435652E+01 -0.50902095121E+02  0.62184563385E+02  0.00000000000E+00 0. -1.
        -12    1    6    6    0    0  0.12272250660E+02  0.33137303319E+02 -0.26246526475E+03  0.26483335176E+03  0.00000000000E+00 0.  1.
</event>
<event>
12    1  0.1066489E+000  0.6140059E+03  0.7818608E-02  0.9876872E-01
         21   -1    0    0  501  502  0.00000000000E+00  0.00000000000E+00  0.19292547359E+04  0.19292547359E+04  0.00000000000E+00 0. -1.
         21   -1    0    0  502  503 -0.00000000000E+00 -0.00000000000E+00 -0.20071574287E+03  0.20071574287E+03  0.00000000000E+00 0.  1.
         -6    2    1    2    0  503  0.33336728301E+03 -0.48579461321E+03  0.10382971530E+04  0.12061538947E+04  0.17209325429E+03 0.  0.
        -24    2    3    3    0    0  0.13829172351E+03 -0.16081107950E+03  0.48693983541E+03  0.53706066297E+03  0.79617512614E+02 0.  0.
          6    2    1    2  501    0 -0.33336728301E+03  0.48579461321E+03  0.69024184003E+03  0.92381658407E+03  0.17283845544E+03 0.  0.
         24    2    5    5    0    0 -0.30748833909E+03  0.49287150963E+03  0.65070336550E+03  0.87580426097E+03  0.78401721794E+02 0.  0.
          5    1    5    5  501    0 -0.25878943924E+02 -0.70768964243E+01  0.39538474523E+02  0.48012323098E+02  0.47000000000E+01 0. -1.
        -13    1    6    6    0    0 -0.21317285316E+03  0.33655729921E+03  0.38976810222E+03  0.55734428721E+03  0.00000000000E+00 0.  1.
         14    1    6    6    0    0 -0.94315485930E+02  0.15631421042E+03  0.26093526328E+03  0.31845997377E+03  0.00000000000E+00 0. -1.
         -5    1    3    3    0  503  0.19507555950E+03 -0.32498353371E+03  0.55135731761E+03  0.66909323175E+03  0.47000000000E+01 0.  1.
         13    1    4    4    0    0 -0.94977212551E+01 -0.13013562288E+02  0.53233487891E+02  0.55618016375E+02  0.00000000000E+00 0. -1.
        -14    1    4    4    0    0  0.14778944476E+03 -0.14779751721E+03  0.43370634752E+03  0.48144264659E+03  0.00000000000E+00 0.  1.
</event>
<event>
12    1  0.1066489E+000  0.1963759E+03  0.7818608E-02  0.1152907E+00
         21   -1    0    0  503  502  0.00000000000E+00  0.00000000000E+00  0.10047123223E+04  0.10047123223E+04  0.00000000000E+00 0. -1.
         21   -1    0    0  501  503 -0.00000000000E+00 -0.00000000000E+00 -0.38816416172E+02  0.38816416172E+02  0.00000000000E+00 0. -1.
          6    2    1    2  501    0 -0.26342910286E+02 -0.90692991368E+02  0.42412581511E+03  0.46738229016E+03  0.17217529007E+03 0.  0.
         24    2    3    3    0    0 -0.14987697918E+02  0.13002650837E+02  0.26088282279E+03  0.27359866960E+03  0.80016777983E+02 0.  0.
         -6    2    1    2    0  502  0.26342910286E+02  0.90692991368E+02  0.54177009098E+03  0.57614644826E+03  0.17178687600E+03 0.  0.
        -24    2    5    5    0    0 -0.22743268057E+02 -0.43688036115E+01  0.18436254456E+03  0.20303997283E+03  0.81849496313E+02 0.  0.
          5    1    3    3  501    0 -0.11355212368E+02 -0.10369564220E+03  0.16324299232E+03  0.19378362057E+03  0.47000000000E+01 0. -1.
        -11    1    4    4    0    0  0.18405471451E+02 -0.21646469452E+02  0.52123698831E+02  0.59365065475E+02  0.00000000000E+00 0.  1.
         12    1    4    4    0    0 -0.33393169369E+02  0.34649120290E+02  0.20875912396E+03  0.21423360412E+03  0.00000000000E+00 0. -1.
         -5    1    5    5    0  502  0.49086178342E+02  0.95061794979E+02  0.35740754642E+03  0.37310647543E+03  0.47000000000E+01 0.  1.
         11    1    6    6    0    0 -0.21235871298E+02 -0.40159088913E+02  0.13198555377E+03  0.13958474507E+03  0.00000000000E+00 0. -1.
        -12    1    6    6    0    0 -0.15073967584E+01  0.35790285302E+02  0.52376990787E+02  0.63455227767E+02  0.00000000000E+00 0.  1.
</event>
<event>
12    1  0.1066489E+000  0.2380134E+03  0.7818608E-02  0.1121321E+00
         21   -1    0    0  503  502  0.00000000000E+00  0.00000000000E+00  0.33453548960E+03  0.33453548960E+03  0.00000000000E+00 0. -1.
         21   -1    0    0  501  503 -0.00000000000E+00 -0.00000000000E+00 -0.16891873144E+03  0.16891873144E+03  0.00000000000E+00 0. -1.
          6    2    1    2  501    0  0.15070647008E+03  0.67221410845E+02  0.70622426097E+02  0.24826984920E+03  0.17152035667E+03 0.  0.
         24    2    3    3    0    0  0.39723209463E+02  0.84390926839E+02  0.55546932334E+02  0.13486157380E+03  0.80015126652E+02 0.  0.
         -6    2    1    2    0  502 -0.15070647008E+03 -0.67221410845E+02  0.94994332069E+02  0.25518437184E+03  0.16989403259E+03 0.  0.
        -24    2    5    5    0    0 -0.13336843354E+03 -0.15317091831E+02  0.11758591811E+03  0.19579467911E+03  0.80544123691E+02 0.  0.
          5    1    3    3  501    0  0.11098326062E+03 -0.17169515995E+02  0.15075493763E+02  0.11340827540E+03  0.47000000000E+01 0. -1.
        -13    1    4    4    0    0  0.40712029565E+02  0.65922490237E+01  0.35743611209E+02  0.54575936462E+02  0.00000000000E+00 0.  1.
         14    1    4    4    0    0 -0.98882010256E+00  0.77798677815E+02  0.19803321125E+02  0.80285637337E+02  0.00000000000E+00 0. -1.
         -5    1    5    5    0  502 -0.17338036534E+02 -0.51904319014E+02 -0.22591586042E+02  0.59389692734E+02  0.47000000000E+01 0.  1.
         13    1    6    6    0    0 -0.23025290708E+02  0.28656195545E+02  0.18728456825E+02  0.41256474041E+02  0.00000000000E+00 0. -1.
        -14    1    6    6    0    0 -0.11034314284E+03 -0.43973287375E+02  0.98857461287E+02  0.15453820507E+03  0.00000000000E+00 0.  1.
</event>
<event>
12    1  0.1066489E+000  0.4221300E+03  0.7818608E-02  0.1036410E+00
         21   -1    0    0  503  502  0.00000000000E+00  0.00000000000E+00  0.19961372391E+04  0.19961372391E+04  0.00000000000E+00 0.  1.
         21   -1    0    0  501  503 -0.00000000000E+00 -0.00000000000E+00 -0.89180997935E+02  0.89180997935E+02  0.00000000000E+00 0.  1.
          6    2    1    2  501    0 -0.24808898937E+03 -0.29458414220E+03  0.94965925138E+03  0.10392528213E+04  0.17281715601E+03 0.  0.
         24    2    3    3    0    0 -0.16914247587E+03 -0.14718215458E+03  0.41219020694E+03  0.47635410780E+03  0.82101799948E+02 0.  0.
         -6    2    1    2    0  502  0.24808898937E+03  0.29458414220E+03  0.95729698980E+03  0.10460654157E+04  0.17177707595E+03 0.  0.
        -24    2    5    5    0    0  0.18902355729E+03  0.16974259421E+03  0.74964609453E+03  0.79663582310E+03  0.90093918271E+02 0.  0.
          5    1    3    3  501    0 -0.78946513503E+02 -0.14740198762E+03  0.53746904444E+03  0.56289871352E+03  0.47000000000E+01 0. -1.
        -11    1    4    4    0    0 -0.37771749366E+02 -0.23258462268E+01  0.11076183700E+03  0.11704827699E+03  0.00000000000E+00 0.  1.
         12    1    4    4    0    0 -0.13137072650E+03 -0.14485630835E+03  0.30142836994E+03  0.35930583081E+03  0.00000000000E+00 0. -1.
         -5    1    5    5    0  502  0.59065432080E+02  0.12484154799E+03  0.20765089527E+03  0.24942959263E+03  0.47000000000E+01 0.  1.
         11    1    6    6    0    0  0.56856542944E+02  0.10363288990E+03  0.27002240520E+03  0.29476183887E+03  0.00000000000E+00 0. -1.
        -12    1    6    6    0    0  0.13216701434E+03  0.66109704316E+02  0.47962368932E+03  0.50187398423E+03  0.00000000000E+00 0.  1.
</event>
<event>
12    1  0.1066489E+000  0.1817900E+03  0.7818608E-02  0.1166281E+00
         21   -1    0    0  503  502  0.00000000000E+00  0.00000000000E+00  0.24332688538E+03  0.24332688538E+03  0.00000000000E+00 0.  1.
         21   -1    0    0  501  503 -0.00000000000E+00 -0.00000000000E+00 -0.14748194985E+03  0.14748194985E+03  0.00000000000E+00 0.  1.
          6    2    1    2  501    0  0.54344967817E+02  0.18195962291E+02  0.10421955494E+03  0.20882601988E+03  0.17164533894E+03 0.  0.
         24    2    3    3    0    0 -0.24098644073E+02 -0.22044218800E+02  0.25138582525E+02  0.90299387356E+02  0.80345123043E+02 0.  0.
         -6    2    1    2    0  502 -0.54344967817E+02 -0.18195962291E+02 -0.83746194058E+01  0.18198281535E+03  0.17251997641E+03 0.  0.
        -24    2    5    5    0    0  0.36966289993E+02 -0.25767433189E+01 -0.79373298590E+01  0.89225136278E+02  0.80777333062E+02 0.  0.
          5    1    3    3  501    0  0.78443611890E+02  0.40240181091E+02  0.79080972412E+02  0.11852663253E+03  0.47000000000E+01 0. -1.
        -11    1    4    4    0    0 -0.34726487743E+02  0.10546127839E+02 -0.13431002638E+02  0.38698082578E+02  0.00000000000E+00 0.  1.
         12    1    4    4    0    0  0.10627843670E+02 -0.32590346640E+02  0.38569585163E+02  0.51601304778E+02  0.00000000000E+00 0. -1.
         -5    1    5    5    0  502 -0.91311257810E+02 -0.15619218972E+02 -0.43728954685E+00  0.92757679069E+02  0.47000000000E+01 0.  1.
         13    1    6    6    0    0  0.25488091627E+02 -0.39018452297E+02  0.89425717937E+01  0.47455790213E+02  0.00000000000E+00 0. -1.
        -14    1    6    6    0    0  0.11478198366E+02  0.36441708978E+02 -0.16879901653E+02  0.41769346066E+02  0.00000000000E+00 0.  1.
</event>
<event>
12    1  0.1066489E+000  0.2845776E+03  0.7818608E-02  0.1093287E+00
         21   -1    0    0  501  502  0.00000000000E+00  0.00000000000E+00  0.25079084709E+03  0.25079084709E+03  0.00000000000E+00 0. -1.
         21   -1    0    0  502  503 -0.00000000000E+00 -0.00000000000E+00 -0.49100038246E+03  0.49100038246E+03  0.00000000000E+00 0. -1.
         -6    2    1    2    0  503 -0.20543421815E+03 -0.92506956614E+02  0.97224687880E+02  0.30072755863E+03  0.17384956019E+03 0.  0.
        -24    2    3    3    0    0 -0.13734348405E+03 -0.92023971197E+02  0.12999855720E+03  0.22501231674E+03  0.79995461887E+02 0.  0.
          6    2    1    2  501    0  0.20543421815E+03  0.92506956614E+02 -0.33743422325E+03  0.44106367091E+03  0.17295823706E+03 0.  0.
         24    2    5    5    0    0  0.43052876890E+02  0.51241571262E+02 -0.72097078234E+02  0.12722227379E+03  0.80673845983E+02 0.  0.
          5    1    5    5  501    0  0.16238134126E+03  0.41265385352E+02 -0.26533714502E+03  0.31384139712E+03  0.47000000000E+01 0. -1.
        -13    1    6    6    0    0  0.36791553470E+02 -0.12890396003E+02 -0.17360223790E+02  0.42675028833E+02  0.00000000000E+00 0.  1.
         14    1    6    6    0    0  0.62613234200E+01  0.64131967265E+02 -0.54736854444E+02  0.84547244962E+02  0.00000000000E+00 0. -1.
         -5    1    3    3    0  503 -0.68090734102E+02 -0.48298541704E+00 -0.32773869321E+02  0.75715241898E+02  0.47000000000E+01 0.  1.
         11    1    4    4    0    0  0.98388603308E+01 -0.13719340365E+02  0.13666602959E+02  0.21720946321E+02  0.00000000000E+00 0. -1.
        -12    1    4    4    0    0 -0.14718234438E+03 -0.78304630832E+02  0.11633195424E+03  0.20329137041E+03  0.00000000000E+00 0.  1.
</event>
<event>
12    1  0.1066489E+000  0.2148806E+03  0.7818608E-02  0.1137882E+00
         21   -1    0    0  503  502  0.00000000000E+00  0.00000000000E+00  0.61746082192E+02  0.61746082192E+02  0.00000000000E+00 0.  1.
         21   -1    0    0  501  503 -0.00000000000E+00 -0.00000000000E+00 -0.95265104873E+03  0.95265104873E+03  0.00000000000E+00 0.  1.
          6    2    1    2  501    0  0.14305456392E+02  0.12759927784E+03 -0.68244454421E+03  0.71547484033E+03  0.17230052069E+03 0.  0.
         24    2    3    3    0    0 -0.37738518458E+02  0.21433325193E+02 -0.21103483807E+03  0.22944090543E+03  0.78891336692E+02 0.  0.
         -6    2    1    2    0  502 -0.14305456392E+02 -0.12759927784E+03 -0.20846042233E+03  0.29892229059E+03  0.17150092230E+03 0.  0.
        -24    2    5    5    0    0 -0.37973796776E+02 -0.54159813627E+02 -0.19559281413E+03  0.22055641421E+03  0.77545394823E+02 0.  0.
          5    1    3    3  501    0  0.52043974850E+02  0.10616595265E+03 -0.47140970615E+03  0.48603393490E+03  0.47000000000E+01 0. -1.
        -13    1    4    4    0    0  0.43443848358E+01 -0.25584857937E+02 -0.77911997867E+02  0.82120265750E+02  0.00000000000E+00 0.  1.
         14    1    4    4    0    0 -0.42082903294E+02  0.47018183130E+02 -0.13312284020E+03  0.14732063968E+03  0.00000000000E+00 0. -1.
         -5    1    5    5    0  502  0.23668340385E+02 -0.73439464214E+02 -0.12867608202E+02  0.78365876384E+02  0.47000000000E+01 0.  1.
         13    1    6    6    0    0  0.12755036761E+01 -0.52828878998E+02 -0.15634687288E+03  0.16503594161E+03  0.00000000000E+00 0. -1.
        -14    1    6    6    0    0 -0.39249300453E+02 -0.13309346297E+01 -0.39245941249E+02  0.55520472599E+02  0.00000000000E+00 0.  1.
</event>
<event>
12    1  0.1066489E+000  0.2156196E+03  0.7818608E-02  0.1137425E+00
         21   -1    0    0  503  502  0.00000000000E+00  0.00000000000E+00  0.26734588445E+03  0.26734588445E+03  0.00000000000E+00 0.  1.
         21   -1    0    0  501  503 -0.00000000000E+00 -0.00000000000E+00 -0.17339198012E+03  0.17339198012E+03  0.00000000000E+00 0.  1.
          6    2    1    2  501    0  0.89203332620E+02 -0.94758119622E+02  0.58332136839E+02  0.22219561127E+03  0.17038754560E+03 0.  0.
         24    2    3    3    0    0  0.54876959680E+02 -0.28458218524E+02  0.95304874522E+02  0.13875071870E+03  0.79670521066E+02 0.  0.
         -6    2    1    2    0  502 -0.89203332620E+02  0.94758119622E+02  0.35621767493E+02  0.21854225329E+03  0.17191704502E+03 0.  0.
        -24    2    5    5    0    0 -0.13974204376E+02  0.10858064549E+03  0.29890895188E+01  0.13525080337E+03  0.79365043906E+02 0.  0.
          5    1    3    3  501    0  0.34326372940E+02 -0.66299901098E+02 -0.36972737683E+02  0.83444892573E+02  0.47000000000E+01 0. -1.
        -13    1    4    4    0    0  0.32430992831E+02  0.22335791983E+02  0.17331954173E+02  0.43023871688E+02  0.00000000000E+00 0.  1.
         14    1    4    4    0    0  0.22445966849E+02 -0.50794010507E+02  0.77972920349E+02  0.95726847013E+02  0.00000000000E+00 0. -1.
         -5    1    5    5    0  502 -0.75229128244E+02 -0.13822525866E+02  0.32632677974E+02  0.83291449918E+02  0.47000000000E+01 0.  1.
         11    1    6    6    0    0 -0.46585731292E+02  0.51568478767E+02 -0.16024447890E+00  0.69495064865E+02  0.00000000000E+00 0. -1.
        -12    1    6    6    0    0  0.32611526916E+02  0.57012166720E+02  0.31493339977E+01  0.65755738507E+02  0.00000000000E+00 0.  1.
</event>
<event>
12    1  0.1066489E+000  0.1806678E+03  0.7818608E-02  0.1167617E+00
         21   -1    0    0  501  502  0.00000000000E+00  0.00000000000E+00  0.68193560632E+02  0.68193560632E+02  0.00000000000E+00 0. -1.
         21   -1    0    0  502  503 -0.00000000000E+00 -0.00000000000E+00 -0.47482110432E+03  0.47482110432E+03  0.00000000000E+00 0. -1.
         -6    2    1    2    0  503  0.37378210335E+02 -0.32528609692E+02 -0.18872966087E+03  0.25995930309E+03  0.17176936081E+03 0.  0.
        -24    2    3    3    0    0 -0.30791988170E+02 -0.58205890223E+02 -0.11026570057E+03  0.15279036279E+03  0.82766527323E+02 0.  0.
          6    2    1    2  501    0 -0.37378210335E+02  0.32528609692E+02 -0.21789788282E+03  0.28305536187E+03  0.17374006299E+03 0.  0.
         24    2    5    5    0    0 -0.42649979757E+02  0.34107103404E+02 -0.24064607739E+03  0.25918375631E+03  0.79267709040E+02 0.  0.
          5    1    5    5  501    0  0.52717694214E+01 -0.15784937123E+01  0.22748194575E+02  0.23871605553E+02  0.47000000000E+01 0. -1.
        -11    1    6    6    0    0  0.23124554172E+01 -0.16983770091E+02 -0.12805939829E+02  0.21395980731E+02  0.00000000000E+00 0.  1.
         12    1    6    6    0    0 -0.44962435174E+02  0.51090873495E+02 -0.22784013756E+03  0.23778777558E+03  0.00000000000E+00 0. -1.
         -5    1    3    3    0  503  0.68170198505E+02  0.25677280532E+02 -0.78463960297E+02  0.10716894030E+03  0.47000000000E+01 0.  1.
         11    1    4    4    0    0 -0.55236120774E+02 -0.41262186045E+02 -0.48683271798E+02  0.84401765315E+02  0.00000000000E+00 0. -1.
        -12    1    4    4    0    0  0.24444132604E+02 -0.16943704178E+02 -0.61582428776E+02  0.68388597471E+02  0.00000000000E+00 0.  1.
</event>
<event>
12    1  0.1066489E+000  0.1973002E+03  0.7818608E-02  0.1152211E+00
         21   -1    0    0  503  502  0.00000000000E+00  0.00000000000E+00  0.42904436303E+03  0.42904436303E+03  0.00000000000E+00 0. -1.
         21   -1    0    0  501  503 -0.00000000000E+00 -0.00000000000E+00 -0.12305316516E+03  0.12305316516E+03  0.00000000000E+00 0. -1.
          6    2    1    2  501    0 -0.17289705151E+02  0.93362803868E+02  0.10935147815E+02  0.19760296548E+03  0.17295030343E+03 0.  0.
         24    2    3    3    0    0 -0.72456305598E+02  0.32371640347E+02  0.21088514985E+02  0.11460623845E+03  0.79950141386E+02 0.  0.
         -6    2    1    2    0  502  0.17289705151E+02 -0.93362803868E+02  0.29505605005E+03  0.35449456271E+03  0.17202550762E+03 0.  0.
        -24    2    5    5    0    0  0.48963628863E+02 -0.99963260163E+02  0.29616550732E+03  0.32178180737E+03  0.58646683579E+02 0.  0.
          5    1    3    3  501    0  0.55166600447E+02  0.60991163520E+02 -0.10153367170E+02  0.82996727028E+02  0.47000000000E+01 0. -1.
        -13    1    4    4    0    0  0.16570146804E+02  0.98898428778E+01  0.11052454640E+02  0.22238154394E+02  0.00000000000E+00 0.  1.
         14    1    4    4    0    0 -0.89026452403E+02  0.22481797469E+02  0.10036060345E+02  0.92368084056E+02  0.00000000000E+00 0. -1.
         -5    1    5    5    0  502 -0.31673923712E+02  0.66004562957E+01 -0.11094572699E+01  0.32712755342E+02  0.47000000000E+01 0.  1.
         13    1    6    6    0    0  0.47402195457E+01 -0.72628069034E+02  0.15196136000E+03  0.16849202066E+03  0.00000000000E+00 0. -1.
        -14    1    6    6    0    0  0.44223409317E+02 -0.27335191129E+02  0.14420414732E+03  0.15328978671E+03  0.00000000000E+00 0.  1.
</event>
<event>
12    1  0.1066489E+000  0.3565603E+03  0.7818608E-02  0.1060011E+00
         21   -1    0    0  501  502  0.00000000000E+00  0.00000000000E+00  0.14017310264E+04  0.14017310264E+04  0.00000000000E+00 0. -1.
         21   -1    0    0  502  503 -0.00000000000E+00 -0.00000000000E+00 -0.37810873554E+03  0.37810873554E+03  0.00000000000E+00 0. -1.
         -6    2    1    2    0  503 -0.26338680016E+03  0.16723609284E+03 -0.26416425985E+03  0.44375442625E+03  0.17261146365E+03 0.  0.
        -24    2    3    3    0    0 -0.12468604380E+03  0.13364057647E+03 -0.15950311571E+03  0.26671600209E+03  0.11085922899E+03 0.  0.
          6    2    1    2  501    0  0.26338680016E+03 -0.16723609284E+03  0.12877865507E+04  0.13360853357E+04  0.17143309724E+03 0.  0.
         24    2    5    5    0    0  0.26731381402E+03 -0.16005448998E+03  0.10410736352E+04  0.10891919386E+04  0.73692945720E+02 0.  0.
          5    1    5    5  501    0 -0.39270138596E+01 -0.71816028652E+01  0.24671291548E+03  0.24689339708E+03  0.47000000000E+01 0. -1.
        -13    1    6    6    0    0  0.53172207267E+02 -0.46254268369E+02  0.34389710316E+03  0.35104409770E+03  0.00000000000E+00 0.  1.
         14    1    6    6    0    0  0.21414160675E+03 -0.11380022161E+03  0.69717653203E+03  0.73814784088E+03  0.00000000000E+00 0. -1.
         -5    1    3    3    0  503 -0.13870075636E+03  0.33595516375E+02 -0.10466114414E+03  0.17703842416E+03  0.47000000000E+01 0.  1.
         13    1    4    4    0    0  0.62154628279E+01  0.10704300587E+00  0.11660316957E+02  0.13213872555E+02  0.00000000000E+00 0. -1.
        -14    1    4    4    0    0 -0.13090150663E+03  0.13353353346E+03 -0.17116343267E+03  0.25350212954E+03  0.00000000000E+00 0.  1.
</event>
<event>
12    1  0.1066489E+000  0.2915365E+03  0.7818608E-02  0.1089690E+00
         21   -1    0    0  501  502  0.00000000000E+00  0.00000000000E+00  0.36358135031E+03  0.36358135031E+03  0.00000000000E+00 0.  1.
         21   -1    0    0  502  503 -0.00000000000E+00 -0.00000000000E+00 -0.29039980874E+03  0.29039980874E+03  0.00000000000E+00 0.  1.
         -6    2    1    2    0  503  0.10597389806E+03  0.20883833099E+03  0.18214857178E+03  0.34376098468E+03  0.17363639258E+03 0.  0.
        -24    2    3    3    0    0  0.11296601148E+03  0.22919229452E+03  0.15046097843E+03  0.30516866609E+03  0.72103960512E+02 0.  0.
          6    2    1    2  501    0 -0.10597389806E+03 -0.20883833099E+03 -0.10896703021E+03  0.31022017436E+03  0.17181044016E+03 0.  0.
         24    2    5    5    0    0 -0.74728410726E+02 -0.43879605443E+02 -0.14723125334E+02  0.11762820875E+03  0.78165656974E+02 0.  0.
          5    1    5    5  501    0 -0.31245487332E+02 -0.16495872554E+03 -0.94243904878E+02  0.19259196561E+03  0.47000000000E+01 0. -1.
        -13    1    6    6    0    0 -0.77336259716E+01 -0.46436572211E+01  0.27716313483E+02  0.29147325025E+02  0.00000000000E+00 0.  1.
         14    1    6    6    0    0 -0.66994784755E+02 -0.39235948222E+02 -0.42439438817E+02  0.88480883722E+02  0.00000000000E+00 0. -1.
         -5    1    3    3    0  503 -0.69921134172E+01 -0.20353963529E+02  0.31687593358E+02  0.38592318591E+02  0.47000000000E+01 0.  1.
         13    1    4    4    0    0  0.35971484370E+02  0.10831476938E+03  0.10427540302E+03  0.15459429688E+03  0.00000000000E+00 0. -1.
        -14    1    4    4    0    0  0.76994527106E+02  0.12087752514E+03  0.46185575405E+02  0.15057436921E+03  0.00000000000E+00 0.  1.
</event>
<event>
12    1  0.1066489E+000  0.3064327E+03  0.7818608E-02  0.1082099E+00
         21   -1    0    0  503  502  0.00000000000E+00  0.00000000000E+00  0.77726919860E+03  0.77726919860E+03  0.00000000000E+00 0.  1.
         21   -1    0    0  501  503 -0.00000000000E+00 -0.00000000000E+00 -0.13135005883E+03  0.13135005883E+03  0.00000000000E+00 0. -1.
          6    2    1    2  501    0 -0.19125246053E+03 -0.16700829150E+03  0.19378225773E+03  0.36256389980E+03  0.17155682713E+03 0.  0.
         24    2    3    3    0    0 -0.16497114144E+03 -0.19325818908E+03  0.14860601476E+03  0.30388896661E+03  0.75501994995E+02 0.  0.
         -6    2    1    2    0  502  0.19125246053E+03  0.16700829150E+03  0.45213688203E+03  0.54605535764E+03  0.17111230353E+03 0.  0.
        -24    2    5    5    0    0  0.13796133439E+03  0.16776741388E+03  0.43014311346E+03  0.48820783178E+03  0.78387205607E+02 0.  0.
          5    1    3    3  501    0 -0.26281319095E+02  0.26249897576E+02  0.45176242974E+02  0.58674933195E+02  0.47000000000E+01 0. -1.
        -13    1    4    4    0    0 -0.17040205226E+03 -0.16881736954E+03  0.13768051835E+03  0.27657203186E+03  0.00000000000E+00 0.  1.
         14    1    4    4    0    0  0.54309108231E+01 -0.24440819542E+02  0.10925496407E+02  0.27316934748E+02  0.00000000000E+00 0. -1.
         -5    1    5    5    0  502  0.53291126140E+02 -0.75912237359E+00  0.21993768570E+02  0.57847525859E+02  0.47000000000E+01 0.  1.
         11    1    6    6    0    0  0.65658325587E+02  0.26826748437E+02  0.16060267328E+03  0.17556739110E+03  0.00000000000E+00 0. -1.
        -12    1    6    6    0    0  0.72303008805E+02  0.14094066544E+03  0.26954044018E+03  0.31264044068E+03  0.00000000000E+00 0.  1.
</event>
<event>
12    1  0.1066489E+000  0.1823772E+03  0.7818608E-02  0.1166531E+00
         21   -1    0    0  503  502  0.00000000000E+00  0.00000000000E+00  0.86061545159E+03  0.86061545159E+03  0.00000000000E+00 0. -1.
         21   -1    0    0  501  503 -0.00000000000E+00 -0.00000000000E+00 -0.46859316207E+02  0.46859316207E+02  0.00000000000E+00 0. -1.
          6    2    1    2  501    0 -0.52125523540E+02  0.31430292596E+02  0.60294122527E+03  0.62871976437E+03  0.16746786997E+03 0.  0.
         24    2    3    3    0    0 -0.78547143187E+02  0.69465995391E+02  0.43298922404E+03  0.45250799009E+03  0.79300912583E+02 0.  0.
         -6    2    1    2    0  502  0.52125523540E+02 -0.31430292596E+02  0.21081491011E+03  0.27875500344E+03  0.17192001663E+03 0.  0.
        -24    2    5    5    0    0  0.33933207326E+02  0.36670803023E+02  0.17828515081E+03  0.20097971923E+03  0.78173155153E+02 0.  0.
          5    1    3    3  501    0  0.26421619647E+02 -0.38035702795E+02  0.16995200123E+03  0.17621177428E+03  0.47000000000E+01 0. -1.
        -13    1    4    4    0    0 -0.66989444875E+02  0.10904617003E+02  0.28419885719E+03  0.29219083973E+03  0.00000000000E+00 0.  1.
         14    1    4    4    0    0 -0.11557698312E+02  0.58561378387E+02  0.14879036686E+03  0.16031715036E+03  0.00000000000E+00 0. -1.
         -5    1    5    5    0  502  0.18192316214E+02 -0.68101095619E+02  0.32529759301E+02  0.77775284210E+02  0.47000000000E+01 0.  1.
         11    1    6    6    0    0 -0.19054742150E+02  0.51010850311E+01  0.10779365416E+02  0.22478856414E+02  0.00000000000E+00 0. -1.
        -12    1    6    6    0    0  0.52987949476E+02  0.31569717992E+02  0.16750578539E+03  0.17850086281E+03  0.00000000000E+00 0.  1.
</event>
<event>
12    1  0.1066489E+000  0.2118261E+03  0.7818608E-02  0.1141966E+00
         21   -1    0    0  503  502  0.00000000000E+00  0.00000000000E+00  0.35507620107E+02  0.35507620107E+02  0.00000000000E+00 0.  1.
         21   -1    0    0  501  503 -0.00000000000E+00 -0.00000000000E+00 -0.13056967090E+04  0.13056967090E+04  0.00000000000E+00 0.  1.
          6    2    1    2  501    0 -0.33683216670E+02 -0.11775233961E+03 -0.44017556770E+03  0.48458728388E+03  0.16146248088E+03 0.  0.
         24    2    3    3    0    0 -0.75492999644E+02 -0.80260487830E+02 -0.23636268575E+03  0.27312693831E+03  0.81179223399E+02 0.  0.
         -6    2    1    2    0  502  0.33683216670E+02  0.11775233961E+03 -0.83001352118E+03  0.85661704521E+03  0.17282981294E+03 0.  0.
        -24    2    5    5    0    0  0.52431114436E+02  0.42362356544E+02 -0.24004359756E+03  0.26153576170E+03  0.78971101695E+02 0.  0.
          5    1    3    3  501    0  0.41809782974E+02 -0.37491851777E+02 -0.20381288195E+03  0.21146034557E+03  0.47000000000E+01 0. -1.
        -11    1    4    4    0    0 -0.58533433874E+02 -0.57005769551E+02 -0.80752283869E+02  0.11487711693E+03  0.00000000000E+00 0.  1.
         12    1    4    4    0    0 -0.16959565770E+02 -0.23254718279E+02 -0.15561040188E+03  0.15824982138E+03  0.00000000000E+00 0. -1.
         -5    1    5    5    0  502 -0.18747897767E+02  0.75389983063E+02 -0.58996992362E+03  0.59508128352E+03  0.47000000000E+01 0.  1.
         11    1    6    6    0    0  0.29918900401E+02 -0.20436921007E+02 -0.10134426114E+03  0.10762651907E+03  0.00000000000E+00 0. -1.
        -12    1    6    6    0    0  0.22512214035E+02  0.62799277550E+02 -0.13869933642E+03  0.15390924262E+03  0.00000000000E+00 0.  1.
</event>
<event>
12    1  0.1066489E+000  0.1720276E+03  0.7818608E-02  0.1175824E+00
         21   -1    0    0  503  502  0.00000000000E+00  0.00000000000E+00  0.20363413970E+03  0.20363413970E+03  0.00000000000E+00 0.  1.
         21   -1    0    0  501  503 -0.00000000000E+00 -0.00000000000E+00 -0.16443287305E+03  0.16443287305E+03  0.00000000000E+00 0.  1.
          6    2    1    2  501    0 -0.18483062296E+02 -0.68498388293E+01 -0.43514745273E+02  0.17744586199E+03  0.17089457861E+03 0.  0.
         24    2    3    3    0    0  0.11750663763E+00 -0.27852068975E+02 -0.91227547178E+02  0.12189699790E+03  0.75899019619E+02 0.  0.
         -6    2    1    2    0  502  0.18483062296E+02  0.68498388293E+01  0.82716011925E+02  0.19062115076E+03  0.17060463243E+03 0.  0.
        -24    2    5    5    0    0 -0.55123224519E+02  0.14377956527E+02  0.30897121490E+02  0.10016759682E+03  0.76378137064E+02 0.  0.
          5    1    3    3  501    0 -0.18600568933E+02  0.21002230146E+02  0.47712801905E+02  0.55548864088E+02  0.47000000000E+01 0. -1.
        -11    1    4    4    0    0  0.28815162626E+02 -0.34484525072E+02 -0.30229979469E+02  0.54160388895E+02  0.00000000000E+00 0.  1.
         12    1    4    4    0    0 -0.28697655989E+02  0.66324560967E+01 -0.60997567709E+02  0.67736609005E+02  0.00000000000E+00 0. -1.
         -5    1    5    5    0  502  0.73606286815E+02 -0.75281176973E+01  0.51818890435E+02  0.90453553942E+02  0.47000000000E+01 0.  1.
         13    1    6    6    0    0  0.12719298919E+02  0.61928170372E+01  0.28468752906E+02  0.31789958160E+02  0.00000000000E+00 0. -1.
        -14    1    6    6    0    0 -0.67842523438E+02  0.81851394894E+01  0.24283685845E+01  0.68377638661E+02  0.00000000000E+00 0.  1.
</event>
<event>
12    1  0.1066489E+000  0.2017219E+03  0.7818608E-02  0.1148343E+00
         21   -1    0    0  503  502  0.00000000000E+00  0.00000000000E+00  0.21810158928E+03  0.21810158928E+03  0.00000000000E+00 0.  1.
         21   -1    0    0  501  503 -0.00000000000E+00 -0.00000000000E+00 -0.18933990009E+03  0.18933990009E+03  0.00000000000E+00 0.  1.
          6    2    1    2  501    0  0.16089453591E+02 -0.10561511073E+03  0.39959694405E+02  0.20564172371E+03  0.17110908575E+03 0.  0.
         24    2    3    3    0    0  0.41350560990E+02 -0.48526392736E+02  0.81246820442E+02  0.13064864373E+03  0.80020888468E+02 0.  0.
         -6    2    1    2    0  502 -0.16089453591E+02  0.10561511073E+03 -0.11198005215E+02  0.20179976565E+03  0.17083421193E+03 0.  0.
        -24    2    5    5    0    0 -0.69265177990E+02  0.79984334750E+02  0.21487089733E+02  0.13416102103E+03  0.79638720797E+02 0.  0.
          5    1    3    3  501    0 -0.25261107399E+02 -0.57088717990E+02 -0.41287126037E+02  0.74993079981E+02  0.47000000000E+01 0. -1.
        -11    1    4    4    0    0 -0.55450073152E+01  0.18285700758E+02  0.71364598410E+01  0.20397132577E+02  0.00000000000E+00 0.  1.
         12    1    4    4    0    0  0.46895568305E+02 -0.66812093494E+02  0.74110360601E+02  0.11025151116E+03  0.00000000000E+00 0. -1.
         -5    1    5    5    0  502  0.53175724399E+02  0.25630775975E+02 -0.32685094948E+02  0.67638744623E+02  0.47000000000E+01 0.  1.
         11    1    6    6    0    0 -0.79744688625E+02  0.68670881322E+02 -0.29341871308E+01  0.10527827297E+03  0.00000000000E+00 0. -1.
        -12    1    6    6    0    0  0.10479510635E+02  0.11313453428E+02  0.24421276864E+02  0.28882748057E+02  0.00000000000E+00 0.  1.
</event>
<event>
12    1  0.1066489E+000  0.1982143E+03  0.7818608E-02  0.1151983E+00
         21   -1    0    0  503  502  0.00000000000E+00  0.00000000000E+00  0.18723013436E+03  0.18723013436E+03  0.00000000000E+00 0.  1.
         21   -1    0    0  501  503 -0.00000000000E+00 -0.00000000000E+00 -0.21624016048E+03  0.21624016048E+03  0.00000000000E+00 0.  1.
          6    2    1    2  501    0  0.54483779517E+02 -0.79631464911E+02  0.28675568132E+02  0.20027779281E+03  0.17314518085E+03 0.  0.
         24    2    3    3    0    0  0.92664271506E+02 -0.16297980213E+02  0.25017297733E+02  0.12608646452E+03  0.80122655818E+02 0.  0.
         -6    2    1    2    0  502 -0.54483779517E+02  0.79631464911E+02 -0.57685594255E+02  0.20319250202E+03  0.16926285080E+03 0.  0.
        -24    2    5    5    0    0 -0.24954181715E+02 -0.12521602948E+02  0.70909203382E+01  0.86649497494E+02  0.81721187824E+02 0.  0.
          5    1    3    3  501    0 -0.38180491988E+02 -0.63333484698E+02  0.36582703996E+01  0.74191328299E+02  0.47000000000E+01 0. -1.
        -11    1    4    4    0    0  0.21542955144E+02  0.25987166561E+02 -0.11477454897E+02  0.35653382912E+02  0.00000000000E+00 0.  1.
         12    1    4    4    0    0  0.71121316362E+02 -0.42285146773E+02  0.36494752630E+02  0.90433081603E+02  0.00000000000E+00 0. -1.
         -5    1    5    5    0  502 -0.29529597802E+02  0.92153067859E+02 -0.64776514593E+02  0.11654300453E+03  0.47000000000E+01 0.  1.
         11    1    6    6    0    0 -0.11573961785E+02 -0.11844891844E+02 -0.37016557440E+02  0.40552232724E+02  0.00000000000E+00 0. -1.
        -12    1    6    6    0    0 -0.13380219930E+02 -0.67671110381E+00  0.44107477778E+02  0.46097264770E+02  0.00000000000E+00 0.  1.
</event>
<event>
12    1  0.1066489E+000  0.1754498E+03  0.7818608E-02  0.1172849E+00
         21   -1    0    0  501  502  0.00000000000E+00  0.00000000000E+00  0.25910941349E+03  0.25910941349E+03  0.00000000000E+00 0. -1.
         21   -1    0    0  502  503 -0.00000000000E+00 -0.00000000000E+00 -0.14502205561E+03  0.14502205561E+03  0.00000000000E+00 0. -1.
         -6    2    1    2    0  503 -0.12466201310E+02  0.75576555956E+01 -0.31632914105E+02  0.17605903764E+03  0.17257931262E+03 0.  0.
        -24    2    3    3    0    0 -0.28052659747E+01  0.34666418307E+02  0.42193670511E+02  0.96682257131E+02  0.79734076387E+02 0.  0.
          6    2    1    2  501    0  0.12466201310E+02 -0.75576555956E+01  0.14572027198E+03  0.22807243146E+03  0.17484310680E+03 0.  0.
         24    2    5    5    0    0  0.57537251343E+02  0.20457815215E+02  0.37846581960E+02  0.10775996680E+03  0.80316805112E+02 0.  0.
          5    1    5    5  501    0 -0.45071050033E+02 -0.28015470811E+02  0.10787369002E+03  0.12031246466E+03  0.47000000000E+01 0. -1.
        -13    1    6    6    0    0 -0.29039585558E+01  0.22761155254E+02 -0.15022402452E+02  0.27425822490E+02  0.00000000000E+00 0.  1.
         14    1    6    6    0    0  0.60441209899E+02 -0.23033400390E+01  0.52868984412E+02  0.80334144311E+02  0.00000000000E+00 0. -1.
         -5    1    3    3    0  503 -0.96609353350E+01 -0.27108762711E+02 -0.73826584616E+02  0.79376780505E+02  0.47000000000E+01 0.  1.
         13    1    4    4    0    0 -0.33731361734E+02  0.25624476557E+01  0.39526023679E+02  0.52025738345E+02  0.00000000000E+00 0. -1.
        -14    1    4    4    0    0  0.30926095759E+02  0.32103970651E+02  0.26676468317E+01  0.44656518786E+02  0.00000000000E+00 0.  1.
</event>
<event>
12    1  0.1066489E+000  0.4779182E+03  0.7818608E-02  0.1019766E+00
         21   -1    0    0  501  502  0.00000000000E+00  0.00000000000E+00  0.32429820218E+03  0.32429820218E+03  0.00000000000E+00 0.  1.
         21   -1    0    0  502  503 -0.00000000000E+00 -0.00000000000E+00 -0.74143061275E+03  0.74143061275E+03  0.00000000000E+00 0. -1.
         -6    2    1    2    0  503  0.44025882569E+03 -0.70346427069E+02 -0.87562232890E+02  0.48587340777E+03  0.17213184002E+03 0.  0.
        -24    2    3    3    0    0  0.17350090169E+03 -0.28293305897E+02  0.22281387762E+02  0.19429843282E+03  0.79701610467E+02 0.  0.
          6    2    1    2  501    0 -0.44025882569E+03  0.70346427069E+02 -0.32957017767E+03  0.57985540716E+03  0.16982148805E+03 0.  0.
         24    2    5    5    0    0 -0.10394818934E+03 -0.58712607485E+01 -0.83663412356E+02  0.15629170795E+03  0.81165470726E+02 0.  0.
          5    1    5    5  501    0 -0.33631063635E+03  0.76217687818E+02 -0.24590676531E+03  0.42356369921E+03  0.47000000000E+01 0. -1.
        -11    1    6    6    0    0 -0.78587574137E+02 -0.31018276346E+02 -0.85926846549E+02  0.12050544898E+03  0.00000000000E+00 0.  1.
         12    1    6    6    0    0 -0.25360615203E+02  0.25147015597E+02  0.22634341927E+01  0.35786258973E+02  0.00000000000E+00 0. -1.
         -5    1    3    3    0  503  0.26675792400E+03 -0.42053121172E+02 -0.10984362065E+03  0.29157497495E+03  0.47000000000E+01 0.  1.
         13    1    4    4    0    0  0.15355614018E+03 -0.18104939659E+02 -0.10074281467E+02  0.15494763042E+03  0.00000000000E+00 0. -1.
        -14    1    4    4    0    0  0.19944761513E+02 -0.10188366239E+02  0.32355669228E+02  0.39350802401E+02  0.00000000000E+00 0.  1.
</event>
<event>
12    1  0.1066489E+000  0.2059049E+03  0.7818608E-02  0.1144891E+00
         21   -1    0    0  503  502  0.00000000000E+00  0.00000000000E+00  0.17829713497E+04  0.17829713497E+04  0.00000000000E+00 0. -1.
         21   -1    0    0  501  503 -0.00000000000E+00 -0.00000000000E+00 -0.24120829200E+02  0.24120829200E+02  0.00000000000E+00 0. -1.
          6    2    1    2  501    0 -0.39959634485E+02 -0.10549171218E+03  0.76867842390E+03  0.79577845724E+03  0.17225434657E+03 0.  0.
         24    2    3    3    0    0  0.40095131415E+02 -0.46225519028E+02  0.47832517453E+03  0.48877952139E+03  0.79787403566E+02 0.  0.
         -6    2    1    2    0  502  0.39959634485E+02  0.10549171218E+03  0.99017209665E+03  0.10113137217E+04  0.17201566500E+03 0.  0.
        -24    2    5    5    0    0  0.14632117334E+02 -0.15236778334E+02  0.42794817850E+03  0.43569694321E+03  0.79031162023E+02 0.  0.
          5    1    3    3  501    0 -0.80054765900E+02 -0.59266193155E+02  0.29035324937E+03  0.30699893585E+03  0.47000000000E+01 0. -1.
        -11    1    4    4    0    0 -0.18328316092E+01  0.71985420994E+00 -0.28725271057E+01  0.34826532650E+01  0.00000000000E+00 0.  1.
         12    1    4    4    0    0  0.41927963024E+02 -0.46945373238E+02  0.48119770163E+03  0.48529686812E+03  0.00000000000E+00 0. -1.
         -5    1    5    5    0  502  0.25327517151E+02  0.12072849052E+03  0.56222391815E+03  0.57561677850E+03  0.47000000000E+01 0.  1.
         13    1    6    6    0    0  0.10508504236E+01  0.18638412238E+02  0.25529730611E+02  0.31626916423E+02  0.00000000000E+00 0. -1.
        -14    1    6    6    0    0  0.13581266910E+02 -0.33875190572E+02  0.40241844789E+03  0.40407002679E+03  0.00000000000E+00 0.  1.
</event>
<event>
12    1  0.1066489E+000  0.3489112E+03  0.7818608E-02  0.1063089E+00
         21   -1    0    0  503  502  0.00000000000E+00  0.00000000000E+00  0.12968737686E+04  0.12968737686E+04  0.00000000000E+00 0. -1.
         21   -1    0    0  501  503 -0.00000000000E+00 -0.00000000000E+00 -0.10084264232E+03  0.10084264232E+03  0.00000000000E+00 0. -1.
          6    2    1    2  501    0 -0.20016654856E+03  0.22809006094E+03  0.41317250338E+03  0.54062441836E+03  0.17167271511E+03 0.  0.
         24    2    3    3    0    0 -0.18659598310E+03  0.19241474310E+03  0.41700515975E+03  0.50197641963E+03  0.79028655218E+02 0.  0.
         -6    2    1    2    0  502  0.20016654856E+03 -0.22809006094E+03  0.78285862296E+03  0.85709199261E+03  0.17218402131E+03 0.  0.
        -24    2    5    5    0    0  0.12199345744E+03 -0.18652521908E+03  0.40582963947E+03  0.46977866642E+03  0.79499925418E+02 0.  0.
          5    1    3    3  501    0 -0.13570565466E+02  0.35675317845E+02 -0.38326563696E+01  0.38647998722E+02  0.47000000000E+01 0. -1.
        -11    1    4    4    0    0 -0.19409339479E+03  0.18372404267E+03  0.40604432371E+03  0.48610571131E+03  0.00000000000E+00 0.  1.
         12    1    4    4    0    0  0.74974116924E+01  0.86907004232E+01  0.10960836038E+02  0.15870708320E+02  0.00000000000E+00 0. -1.
         -5    1    5    5    0  502  0.78173091122E+02 -0.41564841863E+02  0.37702898348E+03  0.38731332618E+03  0.47000000000E+01 0.  1.
         11    1    6    6    0    0  0.18827552970E+02 -0.50385027644E+01  0.91729032993E+01  0.21540784942E+02  0.00000000000E+00 0. -1.
        -12    1    6    6    0    0  0.10316590447E+03 -0.18148671631E+03  0.39665673617E+03  0.44823788148E+03  0.00000000000E+00 0.  1.
</event>
<event>
12    1  0.1066489E+000  0.2421107E+03  0.7818608E-02  0.1119565E+00
         21   -1    0    0  503  502  0.00000000000E+00  0.00000000000E+00  0.27258865524E+03  0.27258865524E+03  0.00000000000E+00 0. -1.
         21   -1    0    0  501  503 -0.00000000000E+00 -0.00000000000E+00 -0.21041467316E+03  0.21041467316E+03  0.00000000000E+00 0. -1.
          6    2    1    2  501    0 -0.12307232406E+03 -0.10989622378E+03  0.52235707457E+02  0.24768153809E+03  0.17718238691E+03 0.  0.
         24    2    3    3    0    0 -0.39762535771E+02  0.20556937921E+01 -0.18059984020E+02  0.91357109702E+02  0.80216415667E+02 0.  0.
         -6    2    1    2    0  502  0.12307232406E+03  0.10989622378E+03  0.99382746209E+01  0.23532179030E+03  0.16749208560E+03 0.  0.
        -24    2    5    5    0    0  0.12594925876E+03  0.13213384909E+03  0.34297916211E+02  0.20188123302E+03  0.79101930019E+02 0.  0.
          5    1    3    3  501    0 -0.83309788284E+02 -0.11195191757E+03  0.70295691477E+02  0.15632442839E+03  0.47000000000E+01 0. -1.
        -11    1    4    4    0    0 -0.15817202355E+02 -0.35628640833E+02 -0.24801111962E+02  0.46202587509E+02  0.00000000000E+00 0.  1.
         12    1    4    4    0    0 -0.23945333416E+02  0.37684334626E+02  0.67411279416E+01  0.45154522194E+02  0.00000000000E+00 0. -1.
         -5    1    5    5    0  502 -0.28769347020E+01 -0.22237625312E+02 -0.24359641591E+02  0.33440557280E+02  0.47000000000E+01 0.  1.
         11    1    6    6    0    0  0.54989671119E+02  0.52391737009E+02 -0.24764473732E+02  0.79887653588E+02  0.00000000000E+00 0. -1.
        -12    1    6    6    0    0  0.70959587638E+02  0.79742112083E+02  0.59062389944E+02  0.12199357943E+03  0.00000000000E+00 0.  1.
</event>
<event>
12    1  0.1066489E+000  0.2065510E+03  0.7818608E-02  0.1144677E+00
         21   -1    0    0  503  502  0.00000000000E+00  0.00000000000E+00  0.12014199883E+03  0.12014199883E+03  0.00000000000E+00 0.  1.
         21   -1    0    0  501  503 -0.00000000000E+00 -0.00000000000E+00 -0.40188003810E+03  0.40188003810E+03  0.00000000000E+00 0.  1.
          6    2    1    2  501    0 -0.69574572076E+02 -0.92654726665E+02 -0.48533167546E+02  0.21049700699E+03  0.16890234500E+03 0.  0.
         24    2    3    3    0    0  0.94728616700E+00 -0.62135123325E+02 -0.77911694663E+02  0.12809575376E+03  0.80477444440E+02 0.  0.
         -6    2    1    2    0  502  0.69574572076E+02  0.92654726665E+02 -0.23320487173E+03  0.31152502994E+03  0.17099067995E+03 0.  0.
        -24    2    5    5    0    0  0.10737563179E+03  0.40387465579E+02 -0.17850213461E+03  0.22681808722E+03  0.80142117215E+02 0.  0.
          5    1    3    3  501    0 -0.70521858243E+02 -0.30519603340E+02  0.29378527118E+02  0.82401253229E+02  0.47000000000E+01 0. -1.
        -13    1    4    4    0    0  0.17146069408E+02  0.79717332770E+01 -0.45316617827E+02  0.49103279716E+02  0.00000000000E+00 0.  1.
         14    1    4    4    0    0 -0.16198783241E+02 -0.70106856602E+02 -0.32595076837E+02  0.78992474041E+02  0.00000000000E+00 0. -1.
         -5    1    5    5    0  502 -0.37801059714E+02  0.52267261086E+02 -0.54702737119E+02  0.84706942721E+02  0.47000000000E+01 0.  1.
         13    1    6    6    0    0  0.20114267061E+02  0.41811128129E+02 -0.96452555185E+02  0.10703200258E+03  0.00000000000E+00 0. -1.
        -14    1    6    6    0    0  0.87261364729E+02 -0.14236625496E+01 -0.82049579428E+02  0.11978608464E+03  0.00000000000E+00 0.  1.
</event>
<event>
12    1  0.1066489E+000  0.4269799E+03  0.7818608E-02  0.1034887E+00
         21   -1    0    0  501  502  0.00000000000E+00  0.00000000000E+00  0.13557259224E+04  0.13557259224E+04  0.00000000000E+00 0. -1.
         21   -1    0    0  502  503 -0.00000000000E+00 -0.00000000000E+00 -0.18079895614E+03  0.18079895614E+03  0.00000000000E+00 0. -1.
         -6    2    1    2    0  503 -0.38182209916E+03  0.81636279986E+02  0.19700664875E+03  0.46945411481E+03  0.17065447150E+03 0.  0.
        -24    2    3    3    0    0 -0.16737225454E+03  0.14280718533E+02  0.15289897370E+03  0.24034042139E+03  0.78536688764E+02 0.  0.
          6    2    1    2  501    0  0.38182209916E+03 -0.81636279986E+02  0.97792031750E+03  0.10670707637E+04  0.17279835002E+03 0.  0.
         24    2    5    5    0    0  0.24143864208E+03  0.11700058575E+02  0.61667603964E+03  0.66839958918E+03  0.89661383471E+02 0.  0.
          5    1    5    5  501    0  0.14038345708E+03 -0.93336338562E+02  0.36124427786E+03  0.39867117454E+03  0.47000000000E+01 0. -1.
        -11    1    6    6    0    0  0.52734293585E+02 -0.30906331266E+02  0.10675445096E+03  0.12301471388E+03  0.00000000000E+00 0.  1.
         12    1    6    6    0    0  0.18870434849E+03  0.42606389842E+02  0.50992158868E+03  0.54538487529E+03  0.00000000000E+00 0. -1.
         -5    1    3    3    0  503 -0.21444984461E+03  0.67355561453E+02  0.44107675046E+02  0.22911369342E+03  0.47000000000E+01 0.  1.
         13    1    4    4    0    0 -0.54142518103E+02  0.41025984580E+02  0.43674879909E+02  0.80759140736E+02  0.00000000000E+00 0. -1.
        -14    1    4    4    0    0 -0.11322973644E+03 -0.26745266047E+02  0.10922409379E+03  0.15958128065E+03  0.00000000000E+00 0.  1.
</event>
<event>
12    1  0.1066489E+000  0.1795222E+03  0.7818608E-02  0.1168985E+00
         21   -1    0    0  501  502  0.00000000000E+00  0.00000000000E+00  0.83071202887E+02  0.83071202887E+02  0.00000000000E+00 0. -1.
         21   -1    0    0  502  503 -0.00000000000E+00 -0.00000000000E+00 -0.67513454500E+03  0.67513454500E+03  0.00000000000E+00 0. -1.
         -6    2    1    2    0  503 -0.52026634551E+02 -0.11367743533E+02 -0.47462211381E+02  0.18569025982E+03  0.17144157835E+03 0.  0.
        -24    2    3    3    0    0 -0.10714342514E+02  0.55465192232E+02 -0.41630523955E+02  0.10676342436E+03  0.80462062939E+02 0.  0.
          6    2    1    2  501    0  0.52026634551E+02  0.11367743533E+02 -0.54460113073E+03  0.57251548807E+03  0.16836744397E+03 0.  0.
         24    2    5    5    0    0  0.76312354575E+01  0.47499983360E+02 -0.15986498767E+03  0.18351615646E+03  0.76202895123E+02 0.  0.
          5    1    5    5  501    0  0.44395399094E+02 -0.36132239826E+02 -0.38473614306E+03  0.38899933161E+03  0.47000000000E+01 0. -1.
        -13    1    6    6    0    0  0.22233406397E+02 -0.40090153939E+01 -0.10285875376E+03  0.10531058726E+03  0.00000000000E+00 0.  1.
         14    1    6    6    0    0 -0.14602170940E+02  0.51508998753E+02 -0.57006233907E+02  0.78205569194E+02  0.00000000000E+00 0. -1.
         -5    1    3    3    0  503 -0.41312292037E+02 -0.66832935765E+02 -0.58316874264E+01  0.78926835452E+02  0.47000000000E+01 0.  1.
         13    1    4    4    0    0 -0.17709549977E+02  0.45203346137E+02  0.13387862388E+02  0.50360753785E+02  0.00000000000E+00 0. -1.
        -14    1    4    4    0    0  0.69952074634E+01  0.10261846094E+02 -0.55018386343E+02  0.56402670579E+02  0.00000000000E+00 0.  1.
</event>
<event>
12    1  0.1066489E+000  0.2266660E+03  0.7818608E-02  0.1129137E+00
         21   -1    0    0  503  502  0.00000000000E+00  0.00000000000E+00  0.67247868721E+03  0.67247868721E+03  0.00000000000E+00 0. -1.
         21   -1    0    0  501  503 -0.00000000000E+00 -0.00000000000E+00 -0.76168025465E+02  0.76168025465E+02  0.00000000000E+00 0. -1.
          6    2    1    2  501    0 -0.11349151733E+03 -0.93395164239E+02  0.29461563463E+03  0.37172010937E+03  0.17255285082E+03 0.  0.
         24    2    3    3    0    0 -0.95963529550E+02 -0.23623459378E+02  0.10132796315E+03  0.16542533216E+03  0.85621945596E+02 0.  0.
         -6    2    1    2    0  502  0.11349151733E+03  0.93395164239E+02  0.30169502712E+03  0.37692660331E+03  0.17161233548E+03 0.  0.
        -24    2    5    5    0    0  0.11076015263E+03  0.21375436306E+02  0.25569416795E+03  0.29129675683E+03  0.82155780865E+02 0.  0.
          5    1    3    3  501    0 -0.17527987779E+02 -0.69771704862E+02  0.19328767148E+03  0.20629477720E+03  0.47000000000E+01 0. -1.
        -11    1    4    4    0    0 -0.61490992698E+02 -0.51865938269E+01  0.10930986317E+03  0.12552565126E+03  0.00000000000E+00 0.  1.
         12    1    4    4    0    0 -0.34472536853E+02 -0.18436865551E+02 -0.79819000135E+01  0.39899680904E+02  0.00000000000E+00 0. -1.
         -5    1    5    5    0  502  0.27313647039E+01  0.72019727933E+02  0.46000859166E+02  0.85629846483E+02  0.47000000000E+01 0.  1.
         13    1    6    6    0    0  0.44706577225E+02 -0.14688511553E+02  0.17387320928E+03  0.18012862994E+03  0.00000000000E+00 0. -1.
        -14    1    6    6    0    0  0.66053575401E+02  0.36063947859E+02  0.81820958665E+02  0.11116812689E+03  0.00000000000E+00 0.  1.
</event>
<event>
12    1  0.1066489E+000  0.1817036E+03  0.7818608E-02  0.1166456E+00
         21   -1    0    0  501  502  0.00000000000E+00  0.00000000000E+00  0.15544043712E+03  0.15544043712E+03  0.00000000000E+00 0. -1.
         21   -1    0    0  502  503 -0.00000000000E+00 -0.00000000000E+00 -0.30279149541E+03  0.30279149541E+03  0.00000000000E+00 0. -1.
         -6    2    1    2    0  503 -0.33340277954E+02  0.51046664180E+02 -0.19966179413E+03  0.26914836385E+03  0.16987840850E+03 0.  0.
        -24    2    3    3    0    0  0.21089468618E+02  0.49986318483E+01 -0.34835452216E+02  0.89501956761E+02  0.79544575718E+02 0.  0.
          6    2    1    2  501    0  0.33340277954E+02 -0.51046664180E+02  0.52310735835E+02  0.18908356867E+03  0.17116905912E+03 0.  0.
         24    2    5    5    0    0  0.68049032413E+02 -0.60810485782E+02 -0.21969563360E+02  0.10638119448E+03  0.50057075731E+02 0.  0.
          5    1    5    5  501    0 -0.34708754459E+02  0.97638216018E+01  0.74280299195E+02  0.82702374191E+02  0.47000000000E+01 0. -1.
        -13    1    6    6    0    0  0.56595325408E+02 -0.17596393331E+02 -0.10055675123E+02  0.60114727966E+02  0.00000000000E+00 0.  1.
         14    1    6    6    0    0  0.11453707005E+02 -0.43214092450E+02 -0.11913888237E+02  0.46266466511E+02  0.00000000000E+00 0. -1.
         -5    1    3    3    0  503 -0.54429746572E+02  0.46048032332E+02 -0.16482634191E+03  0.17964640709E+03  0.47000000000E+01 0.  1.
         11    1    4    4    0    0 -0.17467645300E+02 -0.17876175760E+02 -0.36962497463E+02  0.44619530598E+02  0.00000000000E+00 0. -1.
        -12    1    4    4    0    0  0.38557113918E+02  0.22874807608E+02  0.21270452472E+01  0.44882426163E+02  0.00000000000E+00 0.  1.
</event>
<event>
12    1  0.1066489E+000  0.2340016E+03  0.7818608E-02  0.1123879E+00
         21   -1    0    0  503  502  0.00000000000E+00  0.00000000000E+00  0.36869870931E+03  0.36869870931E+03  0.00000000000E+00 0. -1.
         21   -1    0    0  501  503 -0.00000000000E+00 -0.00000000000E+00 -0.14842792914E+03  0.14842792914E+03  0.00000000000E+00 0. -1.
          6    2    1    2  501    0 -0.14060107051E+03 -0.72872967880E+02  0.11129015602E+03  0.25911820954E+03  0.17227192810E+03 0.  0.
         24    2    3    3    0    0 -0.63425832883E+02 -0.10087616396E+03  0.38493309136E+02  0.14929258771E+03  0.81287792221E+02 0.  0.
         -6    2    1    2    0  502  0.14060107051E+03  0.72872967880E+02  0.10898062416E+03  0.25800842891E+03  0.17208266174E+03 0.  0.
        -24    2    5    5    0    0  0.15366930489E+03  0.49384753657E+02  0.43646638265E+02  0.18720521804E+03  0.84188214557E+02 0.  0.
          5    1    3    3  501    0 -0.77175237625E+02  0.28003196085E+02  0.72796846880E+02  0.10982562182E+03  0.47000000000E+01 0. -1.
        -11    1    4    4    0    0 -0.51186744143E+02 -0.14040104969E+02 -0.10668789793E+01  0.53088092396E+02  0.00000000000E+00 0.  1.
         12    1    4    4    0    0 -0.12239088740E+02 -0.86836058996E+02  0.39560188116E+02  0.96204495315E+02  0.00000000000E+00 0. -1.
         -5    1    5    5    0  502 -0.13068234381E+02  0.23488214224E+02  0.65333985892E+02  0.70803210872E+02  0.47000000000E+01 0.  1.
         11    1    6    6    0    0  0.10227313570E+03  0.12495189394E+02 -0.10984040240E+02  0.10361743668E+03  0.00000000000E+00 0. -1.
        -12    1    6    6    0    0  0.51396169190E+02  0.36889564262E+02  0.54630678505E+02  0.83587781361E+02  0.00000000000E+00 0.  1.
</event>
<event>
12    1  0.1066489E+000  0.2083510E+03  0.7818608E-02  0.1142939E+00
         21   -1    0    0  503  502  0.00000000000E+00  0.00000000000E+00  0.30272364126E+02  0.30272364126E+02  0.00000000000E+00 0.  1.
         21   -1    0    0  501  503 -0.00000000000E+00 -0.00000000000E+00 -0.22996608186E+04  0.22996608186E+04  0.00000000000E+00 0.  1.
          6    2    1    2  501    0  0.37734170059E+02 -0.11173722250E+03 -0.41857576767E+03  0.46743009648E+03  0.17139471209E+03 0.  0.
         24    2    3    3    0    0  0.75353129500E+02 -0.55424679064E+02 -0.34946466144E+03  0.37055531307E+03  0.80222822618E+02 0.  0.
         -6    2    1    2    0  502 -0.37734170059E+02  0.11173722250E+03 -0.18508126868E+04  0.18625030862E+04  0.17175875572E+03 0.  0.
        -24    2    5    5    0    0 -0.12880840962E+02  0.14316060785E+03 -0.14680077985E+04  0.14775786915E+04  0.86781435796E+02 0.  0.
          5    1    3    3  501    0 -0.37618959441E+02 -0.56312543432E+02 -0.69111106224E+02  0.96874783409E+02  0.47000000000E+01 0. -1.
        -11    1    4    4    0    0  0.29736718183E+02  0.26901916633E+01 -0.28779988710E+02  0.41470438744E+02  0.00000000000E+00 0.  1.
         12    1    4    4    0    0  0.45616411317E+02 -0.58114870727E+02 -0.32068467273E+03  0.32908487432E+03  0.00000000000E+00 0. -1.
         -5    1    5    5    0  502 -0.24853329097E+02 -0.31423385357E+02 -0.38280488833E+03  0.38492439471E+03  0.47000000000E+01 0.  1.
         13    1    6    6    0    0  0.24907416582E+02  0.11519529075E+03 -0.91130742898E+03  0.91889692813E+03  0.00000000000E+00 0. -1.
        -14    1    6    6    0    0 -0.37788257544E+02  0.27965317098E+02 -0.55670036948E+03  0.55868176339E+03  0.00000000000E+00 0.  1.
</event>
<event>
12    1  0.1066489E+000  0.2297881E+03  0.7818608E-02  0.1127010E+00
         21   -1    0    0  501  502  0.00000000000E+00  0.00000000000E+00  0.17184313507E+03  0.17184313507E+03  0.00000000000E+00 0. -1.
         21   -1    0    0  502  503 -0.00000000000E+00 -0.00000000000E+00 -0.52292925794E+03  0.52292925794E+03  0.00000000000E+00 0. -1.
         -6    2    1    2    0  503 -0.15055522787E+03 -0.22007591909E+02  0.48125870056E+02  0.23477362742E+03  0.17219566204E+03 0.  0.
        -24    2    3    3    0    0 -0.55635783049E+02  0.20961803259E+02 -0.30587198762E+02  0.10410646579E+03  0.79798759014E+02 0.  0.
          6    2    1    2  501    0  0.15055522787E+03  0.22007591909E+02 -0.39921199292E+03  0.45999876559E+03  0.17052107879E+03 0.  0.
         24    2    5    5    0    0  0.42136648715E+02 -0.19176258808E+02 -0.27474927953E+03  0.28981135451E+03  0.79751040950E+02 0.  0.
          5    1    5    5  501    0  0.10841857916E+03  0.41183850717E+02 -0.12446271339E+03  0.17018741108E+03  0.47000000000E+01 0. -1.
        -11    1    6    6    0    0  0.47376098378E+02 -0.39637498843E+02 -0.13482268086E+03  0.14829963346E+03  0.00000000000E+00 0.  1.
         12    1    6    6    0    0 -0.52394496631E+01  0.20461240036E+02 -0.13992659867E+03  0.14151172104E+03  0.00000000000E+00 0. -1.
         -5    1    3    3    0  503 -0.94919444823E+02 -0.42969395168E+02  0.78713068818E+02  0.13066716163E+03  0.47000000000E+01 0.  1.
         11    1    4    4    0    0 -0.54411434363E+02  0.24400129832E+01  0.13634679276E+02  0.56146792711E+02  0.00000000000E+00 0. -1.
        -12    1    4    4    0    0 -0.12243486854E+01  0.18521790275E+02 -0.44221878038E+02  0.47959673079E+02  0.00000000000E+00 0.  1.
</event>
<event>
12    1  0.1066489E+000  0.3276623E+03  0.7818608E-02  0.1072308E+00
         21   -1    0    0  503  502  0.00000000000E+00  0.00000000000E+00  0.12723639388E+03  0.12723639388E+03  0.00000000000E+00 0.  1.
         21   -1    0    0  501  503 -0.00000000000E+00 -0.00000000000E+00 -0.90539911360E+03  0.90539911360E+03  0.00000000000E+00 0.  1.
          6    2    1    2  501    0  0.19117853649E+03  0.20152390079E+03 -0.25178683820E+03  0.41323017489E+03  0.17378564424E+03 0.  0.
         24    2    3    3    0    0  0.12508348832E+03  0.19435242813E+03 -0.24663385093E+03  0.34638237245E+03  0.75721503889E+02 0.  0.
         -6    2    1    2    0  502 -0.19117853649E+03 -0.20152390079E+03 -0.52637588152E+03  0.61940533259E+03  0.17155256336E+03 0.  0.
        -24    2    5    5    0    0 -0.38942790466E+02 -0.99564667907E+02 -0.29752746743E+03  0.32620728661E+03  0.80367505477E+02 0.  0.
          5    1    3    3  501    0  0.66095048172E+02  0.71714726625E+01 -0.51529872739E+01  0.66847802439E+02  0.47000000000E+01 0. -1.
        -13    1    4    4    0    0  0.15958962648E+02  0.88242542309E+02 -0.74302749636E+02  0.11645743156E+03  0.00000000000E+00 0.  1.
         14    1    4    4    0    0  0.10912452567E+03  0.10610988582E+03 -0.17233110129E+03  0.22992494089E+03  0.00000000000E+00 0. -1.
         -5    1    5    5    0  502 -0.15223574602E+03 -0.10195923289E+03 -0.22884841408E+03  0.29319804598E+03  0.47000000000E+01 0.  1.
         11    1    6    6    0    0 -0.41435116757E+02 -0.11248211494E+03 -0.25662131875E+03  0.28323770285E+03  0.00000000000E+00 0. -1.
        -12    1    6    6    0    0  0.24923262913E+01  0.12917447030E+02 -0.40906148686E+02  0.42969583759E+02  0.00000000000E+00 0.  1.
</event>
<event>
12    1  0.1066489E+000  0.2359807E+03  0.7818608E-02  0.1122519E+00
         21   -1    0    0  501  502  0.00000000000E+00  0.00000000000E+00  0.10724673945E+03  0.10724673945E+03  0.00000000000E+00 0. -1.
         21   -1    0    0  502  503 -0.00000000000E+00 -0.00000000000E+00 -0.75393084760E+03  0.75393084760E+03  0.00000000000E+00 0.  1.
         -6    2    1    2    0  503 -0.15706892356E+03 -0.36378961554E+02 -0.83026888296E+02  0.25016065970E+03  0.17231603492E+03 0.  0.
        -24    2    3    3    0    0 -0.11998516821E+03 -0.52532023165E+02 -0.81016574417E+00  0.15841205875E+03  0.89093602124E+02 0.  0.
          6    2    1    2  501    0  0.15706892356E+03  0.36378961554E+02 -0.56365721986E+03  0.61101692735E+03  0.17215733625E+03 0.  0.
         24    2    5    5    0    0  0.10623431593E+03  0.23706788183E+02 -0.53362627184E+03  0.55044722248E+03  0.79921242780E+02 0.  0.
          5    1    5    5  501    0  0.50834607623E+02  0.12672173371E+02 -0.30030948019E+02  0.60569704879E+02  0.47000000000E+01 0. -1.
        -11    1    6    6    0    0  0.95782631475E+00  0.29206661819E+02 -0.99328771074E+02  0.10353816344E+03  0.00000000000E+00 0.  1.
         12    1    6    6    0    0  0.10527648962E+03 -0.54998736358E+01 -0.43429750076E+03  0.44690905903E+03  0.00000000000E+00 0. -1.
         -5    1    3    3    0  503 -0.37083755347E+02  0.16153061611E+02 -0.82216722552E+02  0.91748600955E+02  0.47000000000E+01 0.  1.
         13    1    4    4    0    0 -0.20519938541E+02 -0.54846246138E+02  0.48453061926E+01  0.58759302117E+02  0.00000000000E+00 0. -1.
        -14    1    4    4    0    0 -0.99465229668E+02  0.23142229724E+01 -0.56554719368E+01  0.99652756629E+02  0.00000000000E+00 0.  1.
</event>
<event>
12    1  0.1066489E+000  0.1770247E+03  0.7818608E-02  0.1170776E+00
         21   -1    0    0  501  502  0.00000000000E+00  0.00000000000E+00  0.19590521453E+02  0.19590521453E+02  0.00000000000E+00 0. -1.
         21   -1    0    0  502  503 -0.00000000000E+00 -0.00000000000E+00 -0.20901088757E+04  0.20901088757E+04  0.00000000000E+00 0. -1.
         -6    2    1    2    0  503  0.24902973903E+02 -0.35396624648E+02 -0.52253924813E+03  0.55163102903E+03  0.17139558691E+03 0.  0.
        -24    2    3    3    0    0  0.66351323528E+02 -0.67325998170E+02 -0.37831108982E+03  0.39813411626E+03  0.80350517669E+02 0.  0.
          6    2    1    2  501    0 -0.24902973903E+02  0.35396624648E+02 -0.15479791061E+04  0.15580683681E+04  0.17165269475E+03 0.  0.
         24    2    5    5    0    0 -0.53984931025E+02  0.32705397004E+02 -0.52509300949E+03  0.53475460412E+03  0.79093629534E+02 0.  0.
          5    1    5    5  501    0  0.29081957121E+02  0.26912276441E+01 -0.10228860966E+04  0.10233137640E+04  0.47000000000E+01 0. -1.
        -13    1    6    6    0    0 -0.85711110419E+01  0.48898823161E+02 -0.19808167600E+03  0.20420800478E+03  0.00000000000E+00 0.  1.
         14    1    6    6    0    0 -0.45413819983E+02 -0.16193426157E+02 -0.32701133350E+03  0.33054659934E+03  0.00000000000E+00 0. -1.
         -5    1    3    3    0  503 -0.41448349624E+02  0.31929373522E+02 -0.14422815831E+03  0.15349691277E+03  0.47000000000E+01 0.  1.
         11    1    4    4    0    0  0.16959921910E+01 -0.44633274514E+02 -0.75988091408E+02  0.88143040674E+02  0.00000000000E+00 0. -1.
        -12    1    4    4    0    0  0.64655331337E+02 -0.22692723655E+02 -0.30232299841E+03  0.30999107559E+03  0.00000000000E+00 0.  1.
</event>
<event>
12    1  0.1066489E+000  0.3097159E+03  0.7818608E-02  0.1080538E+00
         21   -1    0    0  503  502  0.00000000000E+00  0.00000000000E+00  0.24838050619E+03  0.24838050619E+03  0.00000000000E+00 0. -1.
         21   -1    0    0  501  503 -0.00000000000E+00 -0.00000000000E+00 -0.67654430557E+03  0.67654430557E+03  0.00000000000E+00 0. -1.
          6    2    1    2  501    0 -0.24742604437E+03 -0.70053443333E+02 -0.51743648379E+03  0.60304598917E+03  0.17261754816E+03 0.  0.
         24    2    3    3    0    0 -0.45591210087E+02  0.96894343542E+01 -0.17186401879E+03  0.19495452216E+03  0.79357300750E+02 0.  0.
         -6    2    1    2    0  502  0.24742604437E+03  0.70053443333E+02  0.89272684407E+02  0.32187882260E+03  0.17178251337E+03 0.  0.
        -24    2    5    5    0    0  0.14660281355E+03  0.10817147637E+03  0.43417007351E+02  0.20464767727E+03  0.82475342035E+02 0.  0.
          5    1    3    3  501    0 -0.20183483429E+03 -0.79742877688E+02 -0.34557246501E+03  0.40809146701E+03  0.47000000000E+01 0. -1.
        -13    1    4    4    0    0 -0.36239853215E+02  0.22707222686E+01 -0.17790741672E+03  0.18157514165E+03  0.00000000000E+00 0.  1.
         14    1    4    4    0    0 -0.93513568721E+01  0.74187120856E+01  0.60433979326E+01  0.13379380514E+02  0.00000000000E+00 0. -1.
         -5    1    5    5    0  502  0.10082323082E+03 -0.38118033040E+02  0.45855677055E+02  0.11723114532E+03  0.47000000000E+01 0.  1.
         11    1    6    6    0    0 -0.10368673081E+02  0.11748376740E+02  0.16945922433E+01  0.15760881332E+02  0.00000000000E+00 0. -1.
        -12    1    6    6    0    0  0.15697148663E+03  0.96423099634E+02  0.41722415108E+02  0.18888679594E+03  0.00000000000E+00 0.  1.
</event>
<event>
12    1  0.1066489E+000  0.1931626E+03  0.7818608E-02  0.1155930E+00
         21   -1    0    0  503  502  0.00000000000E+00  0.00000000000E+00  0.62784262523E+02  0.62784262523E+02  0.00000000000E+00 0.  1.
         21   -1    0    0  501  503 -0.00000000000E+00 -0.00000000000E+00 -0.62652948958E+03  0.62652948958E+03  0.00000000000E+00 0. -1.
          6    2    1    2  501    0  0.49408149737E+02  0.71427802437E+02 -0.19984453040E+03  0.27793817654E+03  0.17253607573E+03 0.  0.
         24    2    3    3    0    0  0.65822351208E+02  0.46374446340E+02 -0.47211102723E+02  0.12232278557E+03  0.79062029181E+02 0.  0.
         -6    2    1    2    0  502 -0.49408149737E+02 -0.71427802437E+02 -0.36390069666E+03  0.41137557556E+03  0.17106446422E+03 0.  0.
        -24    2    5    5    0    0 -0.68734590485E+02  0.85785283925E+01 -0.22613911306E+03  0.25083004245E+03  0.83539072681E+02 0.  0.
          5    1    3    3  501    0 -0.16414201472E+02  0.25053356097E+02 -0.15263342768E+03  0.15561539097E+03  0.47000000000E+01 0. -1.
        -11    1    4    4    0    0  0.56892593163E+02  0.41542690798E+01  0.17336593190E+01  0.57070401112E+02  0.00000000000E+00 0.  1.
         12    1    4    4    0    0  0.89297580450E+01  0.42220177260E+02 -0.48944762042E+02  0.65252384462E+02  0.00000000000E+00 0. -1.
         -5    1    5    5    0  502  0.19326440749E+02 -0.80006330830E+02 -0.13776158360E+03  0.16054553311E+03  0.47000000000E+01 0.  1.
         11    1    6    6    0    0 -0.66229103903E+02 -0.21508091412E+02 -0.10504503553E+03  0.12602916999E+03  0.00000000000E+00 0. -1.
        -12    1    6    6    0    0 -0.25054865817E+01  0.30086619804E+02 -0.12109407753E+03  0.12480087246E+03  0.00000000000E+00 0.  1.
</event>
<event>
12    1  0.1066489E+000  0.2370436E+03  0.7818608E-02  0.1121826E+00
         21   -1    0    0  501  502  0.00000000000E+00  0.00000000000E+00  0.46363525837E+03  0.46363525837E+03  0.00000000000E+00 0.  1.
         21   -1    0    0  502  503 -0.00000000000E+00 -0.00000000000E+00 -0.12105151994E+03  0.12105151994E+03  0.00000000000E+00 0.  1.
         -6    2    1    2    0  503  0.15907038114E+03 -0.35295480982E+02  0.17298108975E+03  0.29344864244E+03  0.17216414031E+03 0.  0.
        -24    2    3    3    0    0  0.11689396354E+03 -0.87275526521E+02  0.14581312511E+03  0.22105414239E+03  0.79512578696E+02 0.  0.
          6    2    1    2  501    0 -0.15907038114E+03  0.35295480982E+02  0.16960264869E+03  0.29123813586E+03  0.17177146505E+03 0.  0.
         24    2    5    5    0    0 -0.76085923401E+02  0.22100778665E+02  0.17353463111E+03  0.20698808613E+03  0.80326131785E+02 0.  0.
          5    1    5    5  501    0 -0.82984457734E+02  0.13194702317E+02 -0.39319824208E+01  0.84250049735E+02  0.47000000000E+01 0. -1.
        -13    1    6    6    0    0 -0.62533759036E+02 -0.21908816044E+02  0.11197448245E+03  0.13011053747E+03  0.00000000000E+00 0.  1.
         14    1    6    6    0    0 -0.13552164365E+02  0.44009594709E+02  0.61560148656E+02  0.76877548660E+02  0.00000000000E+00 0. -1.
         -5    1    3    3    0  503  0.42176417596E+02  0.51980045539E+02  0.27167964635E+02  0.72394500053E+02  0.47000000000E+01 0.  1.
         13    1    4    4    0    0  0.99176049936E+02 -0.69399474827E+02  0.15279757859E+03  0.19493402989E+03  0.00000000000E+00 0. -1.
        -14    1    4    4    0    0  0.17717913602E+02 -0.17876051694E+02 -0.69844534748E+01  0.26120112499E+02  0.00000000000E+00 0.  1.
</event>
<event>
12    1  0.1066489E+000  0.2267615E+03  0.7818608E-02  0.1129874E+00
         21   -1    0    0  501  502  0.00000000000E+00  0.00000000000E+00  0.10944052823E+03  0.10944052823E+03  0.00000000000E+00 0. -1.
         21   -1    0    0  502  503 -0.00000000000E+00 -0.00000000000E+00 -0.55463856223E+03  0.55463856223E+03  0.00000000000E+00 0. -1.
         -6    2    1    2    0  503 -0.11272140411E+01  0.14053074088E+03 -0.82784897912E+02  0.23656994605E+03  0.17135296995E+03 0.  0.
        -24    2    3    3    0    0  0.52906366399E+02  0.80106257778E+02 -0.91048109009E+02  0.15495428192E+03  0.80653426412E+02 0.  0.
          6    2    1    2  501    0  0.11272140411E+01 -0.14053074088E+03 -0.36241313609E+03  0.42750914440E+03  0.17796243309E+03 0.  0.
         24    2    5    5    0    0  0.27466314429E+02 -0.13793648057E+03 -0.36631295782E+03  0.40034709357E+03  0.79446467297E+02 0.  0.
          5    1    5    5  501    0 -0.26339100388E+02 -0.25942603110E+01  0.38998217252E+01  0.27162050830E+02  0.47000000000E+01 0. -1.
        -11    1    6    6    0    0  0.18094389699E+02  0.61691922415E+00 -0.18732843178E+02  0.26052004558E+02  0.00000000000E+00 0.  1.
         12    1    6    6    0    0  0.93719247297E+01 -0.13855339980E+03 -0.34758011464E+03  0.37429508901E+03  0.00000000000E+00 0. -1.
         -5    1    3    3    0  503 -0.54033580440E+02  0.60424483105E+02  0.82632110968E+01  0.81615664130E+02  0.47000000000E+01 0.  1.
         13    1    4    4    0    0 -0.10869978581E+02  0.39893237856E+01 -0.43198967487E+02  0.44723840740E+02  0.00000000000E+00 0. -1.
        -14    1    4    4    0    0  0.63776344980E+02  0.76116933992E+02 -0.47849141522E+02  0.11023044118E+03  0.00000000000E+00 0.  1.
</event>
<event>
12    1  0.1066489E+000  0.3419085E+03  0.7818608E-02  0.1066134E+00
         21   -1    0    0  503  502  0.00000000000E+00  0.00000000000E+00  0.11670415316E+04  0.11670415316E+04  0.00000000000E+00 0.  1.
         21   -1    0    0  501  503 -0.00000000000E+00 -0.00000000000E+00 -0.10085762700E+03  0.10085762700E+03  0.00000000000E+00 0. -1.
          6    2    1    2  501    0 -0.18239223017E+03 -0.23007189437E+03  0.46589778603E+03  0.57707007187E+03  0.17247932808E+03 0.  0.
         24    2    3    3    0    0 -0.20289964452E+03 -0.22630900172E+03  0.40442973402E+03  0.51199223522E+03  0.78667713610E+02 0.  0.
         -6    2    1    2    0  502  0.18239223017E+03  0.23007189437E+03  0.60028611858E+03  0.69082908674E+03  0.17521815180E+03 0.  0.
        -24    2    5    5    0    0  0.15666125701E+03  0.13264511717E+03  0.50877534377E+03  0.55462933710E+03  0.81387189320E+02 0.  0.
          5    1    3    3  501    0  0.20507414354E+02 -0.37628926566E+01  0.61468052007E+02  0.65077836644E+02  0.47000000000E+01 0. -1.
        -11    1    4    4    0    0 -0.16201948248E+03 -0.21859680419E+03  0.34336108591E+03  0.43810011507E+03  0.00000000000E+00 0.  1.
         12    1    4    4    0    0 -0.40880162036E+02 -0.77121975261E+01  0.61068648108E+02  0.73892120151E+02  0.00000000000E+00 0. -1.
         -5    1    5    5    0  502  0.25730973151E+02  0.97426777203E+02  0.91510774810E+02  0.13619974964E+03  0.47000000000E+01 0.  1.
         13    1    6    6    0    0  0.88374134944E+02  0.23432188024E+02  0.19152214551E+03  0.21222579340E+03  0.00000000000E+00 0. -1.
        -14    1    6    6    0    0  0.68287122070E+02  0.10921292915E+03  0.31725319826E+03  0.34240354371E+03  0.00000000000E+00 0.  1.
</event>
<event>
12    1  0.1066489E+000  0.2991598E+03  0.7818608E-02  0.1085706E+00
         21   -1    0    0  501  502  0.00000000000E+00  0.00000000000E+00  0.30424043947E+03  0.30424043947E+03  0.00000000000E+00 0.  1.
         21   -1    0    0  502  503 -0.00000000000E+00 -0.00000000000E+00 -0.30836603986E+03  0.30836603986E+03  0.00000000000E+00 0. -1.
         -6    2    1    2    0  503  0.23515235239E+03 -0.66832775499E+02  0.64476903744E+02  0.30568158537E+03  0.17181592419E+03 0.  0.
        -24    2    3    3    0    0  0.16135260959E+03  0.24042167148E+02  0.26349539162E+02  0.18247264427E+03  0.77390421047E+02 0.  0.
          6    2    1    2  501    0 -0.23515235239E+03  0.66832775499E+02 -0.68602504128E+02  0.30692489396E+03  0.17243357633E+03 0.  0.
         24    2    5    5    0    0 -0.30856928304E+02  0.12532255276E+02 -0.31700741194E+02  0.92287998472E+02  0.80018311799E+02 0.  0.
          5    1    5    5  501    0 -0.20429542408E+03  0.54300520222E+02 -0.36901762934E+02  0.21463689549E+03  0.47000000000E+01 0. -1.
        -13    1    6    6    0    0 -0.32374488917E+02 -0.22538774638E+02  0.69722232304E+01  0.40058904024E+02  0.00000000000E+00 0.  1.
         14    1    6    6    0    0  0.15175606133E+01  0.35071029914E+02 -0.38672964425E+02  0.52229094448E+02  0.00000000000E+00 0. -1.
         -5    1    3    3    0  503  0.73799742797E+02 -0.90874942647E+02  0.38127364582E+02  0.12320894110E+03  0.47000000000E+01 0.  1.
         13    1    4    4    0    0  0.97547236644E+02 -0.23938274808E+02  0.95767716584E+01  0.10089707098E+03  0.00000000000E+00 0. -1.
        -14    1    4    4    0    0  0.63805372945E+02  0.47980441956E+02  0.16772767504E+02  0.81575573285E+02  0.00000000000E+00 0.  1.
</event>
<event>
12    1  0.1066489E+000  0.3556940E+03  0.7818608E-02  0.1060364E+00
         21   -1    0    0  503  502  0.00000000000E+00  0.00000000000E+00  0.46138245274E+03  0.46138245274E+03  0.00000000000E+00 0.  1.
         21   -1    0    0  501  503 -0.00000000000E+00 -0.00000000000E+00 -0.30863706326E+03  0.30863706326E+03  0.00000000000E+00 0.  1.
          6    2    1    2  501    0  0.18203874673E+03 -0.25265609072E+03  0.20589826821E+03  0.41098947949E+03  0.17188673572E+03 0.  0.
         24    2    3    3    0    0  0.17544244987E+03 -0.27205234674E+03  0.18816032088E+03  0.38348583146E+03  0.82852543662E+02 0.  0.
         -6    2    1    2    0  502 -0.18203874673E+03  0.25265609072E+03 -0.53152878725E+02  0.35903003651E+03  0.17059933503E+03 0.  0.
        -24    2    5    5    0    0 -0.58457772289E+02  0.50479960977E+02  0.19377500609E+02  0.11117889045E+03  0.77586858098E+02 0.  0.
          5    1    3    3  501    0  0.65962968634E+01  0.19396256023E+02  0.17737947321E+02  0.27503648034E+02  0.47000000000E+01 0. -1.
        -13    1    4    4    0    0  0.54544159634E+02 -0.39883896328E+02  0.13786652293E+02  0.68962760370E+02  0.00000000000E+00 0.  1.
         14    1    4    4    0    0  0.12089829024E+03 -0.23216845041E+03  0.17437366859E+03  0.31452307109E+03  0.00000000000E+00 0. -1.
         -5    1    5    5    0  502 -0.12358097444E+03  0.20217612974E+03 -0.72530379334E+02  0.24785114607E+03  0.47000000000E+01 0.  1.
         13    1    6    6    0    0 -0.54568413853E+02  0.49742688450E+02 -0.16024038277E+02  0.75556711465E+02  0.00000000000E+00 0. -1.
        -14    1    6    6    0    0 -0.38893584358E+01  0.73727252709E+00  0.35401538886E+02  0.35622178981E+02  0.00000000000E+00 0.  1.
</event>
<event>
12    1  0.1066489E+000  0.2180151E+03  0.7818608E-02  0.1135380E+00
         21   -1    0    0  501  502  0.00000000000E+00  0.00000000000E+00  0.18527783336E+03  0.18527783336E+03  0.00000000000E+00 0.  1.
         21   -1    0    0  502  503 -0.00000000000E+00 -0.00000000000E+00 -0.25877776244E+03  0.25877776244E+03  0.00000000000E+00 0.  1.
         -6    2    1    2    0  503  0.29422564088E+02  0.12931883234E+03 -0.57639469025E+02  0.22546429014E+03  0.17298205128E+03 0.  0.
        -24    2    3    3    0    0  0.22047204829E+02  0.15449970415E+03 -0.78290113767E+02  0.19174469112E+03  0.79249270257E+02 0.  0.
          6    2    1    2  501    0 -0.29422564088E+02 -0.12931883234E+03 -0.15860460049E+02  0.21859130566E+03  0.17303628822E+03 0.  0.
         24    2    5    5    0    0  0.47596389151E+02 -0.89640888697E+02 -0.22893318099E+02  0.13154069129E+03  0.80485677394E+02 0.  0.
          5    1    5    5  501    0 -0.77018953239E+02 -0.39677943644E+02  0.70328580503E+01  0.87050614370E+02  0.47000000000E+01 0. -1.
        -11    1    6    6    0    0  0.58856671465E+01  0.14415727997E+02  0.43610707432E+01  0.16170133873E+02  0.00000000000E+00 0.  1.
         12    1    6    6    0    0  0.41710722004E+02 -0.10405661669E+03 -0.27254388843E+02  0.11537055742E+03  0.00000000000E+00 0. -1.
         -5    1    3    3    0  503  0.73753592598E+01 -0.25180871814E+02  0.20650644742E+02  0.33719599016E+02  0.47000000000E+01 0.  1.
         11    1    4    4    0    0 -0.10566383851E+02  0.47894200851E+02  0.93607832226E+01  0.49931224753E+02  0.00000000000E+00 0. -1.
        -12    1    4    4    0    0  0.32613588679E+02  0.10660550330E+03 -0.87650896989E+02  0.14181346637E+03  0.00000000000E+00 0.  1.
</event>
<event>
12    1  0.1066489E+000  0.3299044E+03  0.7818608E-02  0.1071197E+00
         21   -1    0    0  501  502  0.00000000000E+00  0.00000000000E+00  0.34252567396E+03  0.34252567396E+03  0.00000000000E+00 0. -1.
         21   -1    0    0  502  503 -0.00000000000E+00 -0.00000000000E+00 -0.47874791895E+03  0.47874791895E+03  0.00000000000E+00 0. -1.
         -6    2    1    2    0  503 -0.27862844671E+03  0.41906073851E+02  0.17014549184E+03  0.37105351525E+03  0.17129300175E+03 0.  0.
        -24    2    3    3    0    0 -0.79469102993E+02  0.69489314314E+02  0.53629087566E+02  0.13862408121E+03  0.72086432321E+02 0.  0.
          6    2    1    2  501    0  0.27862844671E+03 -0.41906073851E+02 -0.30636773683E+03  0.45022007766E+03  0.17160127570E+03 0.  0.
         24    2    5    5    0    0  0.28909699461E+03 -0.21151437097E+02 -0.30193208753E+03  0.42609311294E+03  0.79799121733E+02 0.  0.
          5    1    5    5  501    0 -0.10468547906E+02 -0.20754636753E+02 -0.44356492941E+01  0.24126964722E+02  0.47000000000E+01 0. -1.
        -11    1    6    6    0    0  0.11587166171E+03 -0.19691645341E+02 -0.17717106871E+03  0.21261136016E+03  0.00000000000E+00 0.  1.
         12    1    6    6    0    0  0.17322533290E+03 -0.14597917565E+01 -0.12476101883E+03  0.21348175278E+03  0.00000000000E+00 0. -1.
         -5    1    3    3    0  503 -0.19915934371E+03 -0.27583240463E+02  0.11651640427E+03  0.23242943404E+03  0.47000000000E+01 0.  1.
         13    1    4    4    0    0 -0.39377629185E+02  0.69676168821E+02  0.57200995162E+02  0.98373370529E+02  0.00000000000E+00 0. -1.
        -14    1    4    4    0    0 -0.40091473808E+02 -0.18685450694E+00 -0.35719075957E+01  0.40250710684E+02  0.00000000000E+00 0.  1.
</event>
<event>
12    1  0.1066489E+000  0.2035896E+03  0.7818608E-02  0.1146865E+00
         21   -1    0    0  503  502  0.00000000000E+00  0.00000000000E+00  0.14926596079E+04  0.14926596079E+04  0.00000000000E+00 0. -1.
         21   -1    0    0  501  503 -0.00000000000E+00 -0.00000000000E+00 -0.30408052574E+02  0.30408052574E+02  0.00000000000E+00 0.  1.
          6    2    1    2  501    0  0.10904050226E+03  0.13413733385E+02  0.95788061523E+03  0.97915704405E+03  0.17071462885E+03 0.  0.
         24    2    3    3    0    0  0.47766649257E+02 -0.52626613515E+02  0.41151572868E+03  0.42539491847E+03  0.81021160642E+02 0.  0.
         -6    2    1    2    0  502 -0.10904050226E+03 -0.13413733385E+02  0.50437094013E+03  0.54391061645E+03  0.17140289983E+03 0.  0.
        -24    2    5    5    0    0 -0.12761479055E+03 -0.18285001948E+02  0.27655338175E+03  0.31523691148E+03  0.79200134695E+02 0.  0.
          5    1    3    3  501    0  0.61273853007E+02  0.66040346901E+02  0.54636488655E+03  0.55376212559E+03  0.47000000000E+01 0. -1.
        -11    1    4    4    0    0  0.43845089650E+02 -0.78821949712E+01  0.86569670441E+02  0.97359276519E+02  0.00000000000E+00 0.  1.
         12    1    4    4    0    0  0.39215596070E+01 -0.44744418544E+02  0.32494605824E+03  0.32803564195E+03  0.00000000000E+00 0. -1.
         -5    1    5    5    0  502  0.18574288290E+02  0.48712685623E+01  0.22781755837E+03  0.22867370497E+03  0.47000000000E+01 0.  1.
         11    1    6    6    0    0 -0.15652294443E+02  0.29014539686E+01  0.12298004957E+03  0.12400606980E+03  0.00000000000E+00 0. -1.
        -12    1    6    6    0    0 -0.11196249611E+03 -0.21186455916E+02  0.15357333219E+03  0.19123084168E+03  0.00000000000E+00 0.  1.
</event>
<event>
12    1  0.1066489E+000  0.1889484E+03  0.7818608E-02  0.1159477E+00
         21   -1    0    0  503  502  0.00000000000E+00  0.00000000000E+00  0.19598991534E+03  0.19598991534E+03  0.00000000000E+00 0. -1.
         21   -1    0    0  501  503 -0.00000000000E+00 -0.00000000000E+00 -0.18517739526E+03  0.18517739526E+03  0.00000000000E+00 0. -1.
          6    2    1    2  501    0 -0.61851679874E+02 -0.43247597147E+02  0.30802630780E+02  0.19144271622E+03  0.17322103385E+03 0.  0.
         24    2    3    3    0    0 -0.10685238867E+03 -0.53281579367E+01  0.16199838731E+02  0.13062923746E+03  0.73182926110E+02 0.  0.
         -6    2    1    2    0  502  0.61851679874E+02  0.43247597147E+02 -0.19990110700E+02  0.18972459439E+03  0.17291567953E+03 0.  0.
        -24    2    5    5    0    0  0.27191692884E+02  0.95297381148E+02 -0.11371809929E+02  0.12642483277E+03  0.77672010816E+02 0.  0.
          5    1    3    3  501    0  0.45000708797E+02 -0.37919439210E+02  0.14602792049E+02  0.60813478752E+02  0.47000000000E+01 0. -1.
        -13    1    4    4    0    0 -0.15129904232E+02  0.15217289497E+02  0.28668912958E+02  0.35810424068E+02  0.00000000000E+00 0.  1.
         14    1    4    4    0    0 -0.91722484439E+02 -0.20545447434E+02 -0.12469074228E+02  0.94818813397E+02  0.00000000000E+00 0. -1.
         -5    1    5    5    0  502  0.34659986990E+02 -0.52049784001E+02 -0.86183007712E+01  0.63299761618E+02  0.47000000000E+01 0.  1.
         11    1    6    6    0    0 -0.60998068409E+01  0.65236701671E+01  0.23706355271E+02  0.25332927114E+02  0.00000000000E+00 0. -1.
        -12    1    6    6    0    0  0.33291499725E+02  0.88773710981E+02 -0.35078165200E+02  0.10109190566E+03  0.00000000000E+00 0.  1.
</event>
<event>
12    1  0.1066489E+000  0.2039954E+03  0.7818608E-02  0.1148417E+00
         21   -1    0    0  501  502  0.00000000000E+00  0.00000000000E+00  0.24899648005E+03  0.24899648005E+03  0.00000000000E+00 0.  1.
         21   -1    0    0  502  503 -0.00000000000E+00 -0.00000000000E+00 -0.16037121852E+03  0.16037121852E+03  0.00000000000E+00 0.  1.
         -6    2    1    2    0  503 -0.53324935994E+02 -0.77146691729E+02  0.61081710375E+02  0.21294384446E+03  0.18115999754E+03 0.  0.
        -24    2    3    3    0    0 -0.34510071503E+02 -0.68562520143E+02  0.11195002862E+03  0.15783156880E+03  0.80537140501E+02 0.  0.
          6    2    1    2  501    0  0.53324935994E+02  0.77146691729E+02  0.27543551157E+02  0.19642385410E+03  0.17037758775E+03 0.  0.
         24    2    5    5    0    0 -0.35362874182E+02  0.28860593611E+02  0.23597798087E+02  0.95256992372E+02  0.80209549227E+02 0.  0.
          5    1    5    5  501    0  0.88687810176E+02  0.48286098118E+02  0.39457530696E+01  0.10116686173E+03  0.47000000000E+01 0. -1.
        -11    1    6    6    0    0 -0.12248822683E+02  0.55544473075E+02  0.12335629473E+02  0.58201287793E+02  0.00000000000E+00 0.  1.
         12    1    6    6    0    0 -0.23114051500E+02 -0.26683879464E+02  0.11262168614E+02  0.37055704579E+02  0.00000000000E+00 0. -1.
         -5    1    3    3    0  503 -0.18814864491E+02 -0.85841715863E+01 -0.50868318242E+02  0.55112275660E+02  0.47000000000E+01 0.  1.
         13    1    4    4    0    0  0.12235744241E+02 -0.90883559809E+01 -0.70736831421E+01  0.16803233164E+02  0.00000000000E+00 0. -1.
        -14    1    4    4    0    0 -0.46745815744E+02 -0.59474164162E+02  0.11902371176E+03  0.14102833564E+03  0.00000000000E+00 0.  1.
</event>
<event>
12    1  0.1066489E+000  0.2373020E+03  0.7818608E-02  0.1121950E+00
         21   -1    0    0  501  502  0.00000000000E+00  0.00000000000E+00  0.18172599336E+03  0.18172599336E+03  0.00000000000E+00 0. -1.
         21   -1    0    0  502  503 -0.00000000000E+00 -0.00000000000E+00 -0.31940192172E+03  0.31940192172E+03  0.00000000000E+00 0. -1.
         -6    2    1    2    0  503 -0.96313616241E+02 -0.12644574280E+03 -0.11749070735E+03  0.26296899632E+03  0.17344678771E+03 0.  0.
        -24    2    3    3    0    0 -0.11906284506E+03 -0.74768298593E+02 -0.12690179667E+03  0.20553430076E+03  0.79837480173E+02 0.  0.
          6    2    1    2  501    0  0.96313616241E+02  0.12644574280E+03 -0.20185221009E+02  0.23815891876E+03  0.17620269263E+03 0.  0.
         24    2    5    5    0    0 -0.19052111003E+02  0.75823163669E+02  0.70916050311E+00  0.11036783253E+03  0.77900067178E+02 0.  0.
          5    1    5    5  501    0  0.11536572724E+03  0.50622579131E+02 -0.20894381512E+02  0.12779108623E+03  0.47000000000E+01 0. -1.
        -13    1    6    6    0    0 -0.92190121302E+01  0.79601386630E+02 -0.23881119523E+02  0.83616259231E+02  0.00000000000E+00 0.  1.
         14    1    6    6    0    0 -0.98330988731E+01 -0.37782229618E+01  0.24590280026E+02  0.26751573299E+02  0.00000000000E+00 0. -1.
         -5    1    3    3    0  503  0.22749228824E+02 -0.51677444207E+02  0.94110893210E+01  0.57434695560E+02  0.47000000000E+01 0.  1.
         11    1    4    4    0    0 -0.25325533098E+02 -0.35048612662E+02 -0.85149362526E+02  0.95499747721E+02  0.00000000000E+00 0. -1.
        -12    1    4    4    0    0 -0.93737311967E+02 -0.39719685931E+02 -0.41752434149E+02  0.11003455304E+03  0.00000000000E+00 0.  1.
</event>
<event>
12    1  0.1066489E+000  0.1739338E+03  0.7818608E-02  0.1173890E+00
         21   -1    0    0  501  502  0.00000000000E+00  0.00000000000E+00  0.41132604153E+03  0.41132604153E+03  0.00000000000E+00 0. -1.
         21   -1    0    0  502  503 -0.00000000000E+00 -0.00000000000E+00 -0.75694872493E+02  0.75694872493E+02  0.00000000000E+00 0. -1.
         -6    2    1    2    0  503 -0.76221246696E+01  0.17363058825E+02  0.12566222470E+03  0.21457858581E+03  0.17289708551E+03 0.  0.
        -24    2    3    3    0    0 -0.35326270348E+02 -0.16734209040E+02  0.14345761712E+03  0.16694551584E+03  0.75912701329E+02 0.  0.
          6    2    1    2  501    0  0.76221246696E+01 -0.17363058825E+02  0.20996894434E+03  0.27244232821E+03  0.17256387807E+03 0.  0.
         24    2    5    5    0    0 -0.53504112181E+02 -0.19229586376E+02  0.75772494804E+02  0.12489342843E+03  0.81390604400E+02 0.  0.
          5    1    5    5  501    0  0.61126236851E+02  0.18665275517E+01  0.13419644954E+03  0.14754889978E+03  0.47000000000E+01 0. -1.
        -13    1    6    6    0    0 -0.61436049952E+02  0.90956407624E+01  0.72240865050E+02  0.95267315999E+02  0.00000000000E+00 0.  1.
         14    1    6    6    0    0  0.79319377707E+01 -0.28325227139E+02  0.35316297537E+01  0.29626112434E+02  0.00000000000E+00 0. -1.
         -5    1    3    3    0  503  0.27704145678E+02  0.34097267864E+02 -0.17795392418E+02  0.47633069971E+02  0.47000000000E+01 0.  1.
         13    1    4    4    0    0  0.15393869385E+02 -0.25072087084E+02  0.80269042908E+02  0.85490935278E+02  0.00000000000E+00 0. -1.
        -14    1    4    4    0    0 -0.50720139732E+02  0.83378780442E+01  0.63188574207E+02  0.81454580565E+02  0.00000000000E+00 0.  1.
</event>
<event>
12    1  0.1066489E+000  0.3477513E+03  0.7818608E-02  0.1063583E+00
         21   -1    0    0  503  502  0.00000000000E+00  0.00000000000E+00  0.85286735822E+03  0.85286735822E+03  0.00000000000E+00 0. -1.
         21   -1    0    0  501  503 -0.00000000000E+00 -0.00000000000E+00 -0.15294692945E+03  0.15294692945E+03  0.00000000000E+00 0.  1.
          6    2    1    2  501    0 -0.30249925050E+03 -0.54234497973E+01  0.48692699352E+03  0.59835514219E+03  0.17145194313E+03 0.  0.
         24    2    3    3    0    0 -0.10265245704E+03  0.14009428704E+02  0.23674866203E+03  0.27753172476E+03  0.10119356821E+03 0.  0.
         -6    2    1    2    0  502  0.30249925050E+03  0.54234497973E+01  0.21299343525E+03  0.40745914548E+03  0.17065034841E+03 0.  0.
        -24    2    5    5    0    0  0.22651901756E+03 -0.17283715541E+02  0.81700351427E+02  0.25400369587E+03  0.78951491135E+02 0.  0.
          5    1    3    3  501    0 -0.19984679346E+03 -0.19432878502E+02  0.25017833148E+03  0.32082341742E+03  0.47000000000E+01 0. -1.
        -11    1    4    4    0    0 -0.11765354444E+03  0.13530865791E+02  0.23401575802E+03  0.26227622052E+03  0.00000000000E+00 0.  1.
         12    1    4    4    0    0  0.15001087395E+02  0.47856291368E+00  0.27329040147E+01  0.15255504247E+02  0.00000000000E+00 0. -1.
         -5    1    5    5    0  502  0.75980232945E+02  0.22707165338E+02  0.13129308382E+03  0.15345544961E+03  0.47000000000E+01 0.  1.
         13    1    6    6    0    0  0.39681386787E+02  0.14875161801E+02  0.43264801697E+02  0.60561753293E+02  0.00000000000E+00 0. -1.
        -14    1    6    6    0    0  0.18683763077E+03 -0.32158877342E+02  0.38435549729E+02  0.19344194257E+03  0.00000000000E+00 0.  1.
</event>
<event>
12    1  0.1066489E+000  0.3503012E+03  0.7818608E-02  0.1062743E+00
         21   -1    0    0  501  502  0.00000000000E+00  0.00000000000E+00  0.23080243000E+04  0.23080243000E+04  0.00000000000E+00 0. -1.
         21   -1    0    0  502  503 -0.00000000000E+00 -0.00000000000E+00 -0.53643526035E+02  0.53643526035E+02  0.00000000000E+00 0. -1.
         -6    2    1    2    0  503 -0.23178725273E+03  0.19390825699E+03  0.12717088456E+04  0.13184252516E+04  0.17226727362E+03 0.  0.
        -24    2    3    3    0    0 -0.89076199556E+02  0.73035328410E+02  0.34674998612E+03  0.37473690729E+03  0.83207381199E+02 0.  0.
          6    2    1    2  501    0  0.23178725273E+03 -0.19390825699E+03  0.98267192841E+03  0.10432425744E+04  0.17715870722E+03 0.  0.
         24    2    5    5    0    0  0.25069321013E+03 -0.17335664384E+03  0.82373224404E+03  0.88179996142E+03  0.78337414498E+02 0.  0.
          5    1    5    5  501    0 -0.18905957393E+02 -0.20551613155E+02  0.15893968437E+03  0.16144261301E+03  0.47000000000E+01 0. -1.
        -13    1    6    6    0    0  0.10799276970E+03 -0.47806924156E+02  0.23264823014E+03  0.26090829671E+03  0.00000000000E+00 0.  1.
         14    1    6    6    0    0  0.14270044043E+03 -0.12554971968E+03  0.59108401390E+03  0.62089166470E+03  0.00000000000E+00 0. -1.
         -5    1    3    3    0  503 -0.14271105318E+03  0.12087292858E+03  0.92495885943E+03  0.94368834432E+03  0.47000000000E+01 0.  1.
         13    1    4    4    0    0 -0.35095484956E+01  0.32385126931E+02  0.30577784461E+02  0.44677894752E+02  0.00000000000E+00 0. -1.
        -14    1    4    4    0    0 -0.85566651061E+02  0.40650201480E+02  0.31617220166E+03  0.33005901253E+03  0.00000000000E+00 0.  1.
</event>
<event>
12    1  0.1066489E+000  0.1785278E+03  0.7818608E-02  0.1170125E+00
         21   -1    0    0  501  502  0.00000000000E+00  0.00000000000E+00  0.66505154275E+03  0.66505154275E+03  0.00000000000E+00 0. -1.
         21   -1    0    0  502  503 -0.00000000000E+00 -0.00000000000E+00 -0.65165001997E+02  0.65165001997E+02  0.00000000000E+00 0. -1.
         -6    2    1    2    0  503 -0.16517259204E+02  0.29927784862E+02  0.49509636006E+03  0.52630083230E+03  0.17522462207E+03 0.  0.
        -24    2    3    3    0    0 -0.26749285427E+02 -0.48208019864E+02  0.31563942137E+03  0.33024782624E+03  0.79974026826E+02 0.  0.
          6    2    1    2  501    0  0.16517259204E+02 -0.29927784862E+02  0.10479018069E+03  0.20391571244E+03  0.17155798918E+03 0.  0.
         24    2    5    5    0    0  0.68460741339E+00  0.43706190702E+02  0.90067059868E+02  0.12702946200E+03  0.78190211339E+02 0.  0.
          5    1    5    5  501    0  0.15832651791E+02 -0.73633975565E+02  0.14723120821E+02  0.76886250441E+02  0.47000000000E+01 0. -1.
        -13    1    6    6    0    0  0.10328128588E+02  0.48036165380E+02  0.15216643789E+02  0.51436268068E+02  0.00000000000E+00 0.  1.
         14    1    6    6    0    0 -0.96435211748E+01 -0.43299746777E+01  0.74850416079E+02  0.75593193930E+02  0.00000000000E+00 0. -1.
         -5    1    3    3    0  503  0.10232026222E+02  0.78135804726E+02  0.17945693869E+03  0.19605300606E+03  0.47000000000E+01 0.  1.
         11    1    4    4    0    0  0.55430144976E+01 -0.61401167766E+02  0.18340106546E+03  0.19348586312E+03  0.00000000000E+00 0. -1.
        -12    1    4    4    0    0 -0.32292299924E+02  0.13193147902E+02  0.13223835590E+03  0.13676196313E+03  0.00000000000E+00 0.  1.
</event>
<event>
12    1  0.1066489E+000  0.1917197E+03  0.7818608E-02  0.1156967E+00
         21   -1    0    0  501  502  0.00000000000E+00  0.00000000000E+00  0.43945312166E+03  0.43945312166E+03  0.00000000000E+00 0. -1.
         21   -1    0    0  502  503 -0.00000000000E+00 -0.00000000000E+00 -0.11565833907E+03  0.11565833907E+03  0.00000000000E+00 0. -1.
         -6    2    1    2    0  503 -0.67552898002E+02  0.49255870700E+02  0.30820993069E+03  0.36297356219E+03  0.17253089765E+03 0.  0.
        -24    2    3    3    0    0 -0.76116365108E+02 -0.87096755446E+01  0.27279962922E+03  0.29434909883E+03  0.79700657440E+02 0.  0.
          6    2    1    2  501    0  0.67552898002E+02 -0.49255870700E+02  0.15584851904E+02  0.19213789854E+03  0.17229204747E+03 0.  0.
         24    2    5    5    0    0  0.10076957087E+02 -0.60209578602E+02  0.61012482570E+02  0.11791373045E+03  0.80339195786E+02 0.  0.
          5    1    5    5  501    0  0.57475940915E+02  0.10953707902E+02 -0.45427630667E+02  0.74224168091E+02  0.47000000000E+01 0. -1.
        -13    1    6    6    0    0  0.29183277808E+02 -0.70368559475E+02  0.34325946173E+02  0.83556378852E+02  0.00000000000E+00 0.  1.
         14    1    6    6    0    0 -0.19106320721E+02  0.10158980873E+02  0.26686536398E+02  0.34357351597E+02  0.00000000000E+00 0. -1.
         -5    1    3    3    0  503  0.85634671055E+01  0.57965546245E+02  0.35410301467E+02  0.68624463352E+02  0.47000000000E+01 0.  1.
         13    1    4    4    0    0 -0.86654507884E+02  0.11027164064E+02  0.20145672154E+03  0.21958008274E+03  0.00000000000E+00 0. -1.
        -14    1    4    4    0    0  0.10538142776E+02 -0.19736839609E+02  0.71342907685E+02  0.74769016095E+02  0.00000000000E+00 0.  1.
</event>
<event>
12    1  0.1066489E+000  0.3330401E+03  0.7818608E-02  0.1069845E+00
         21   -1    0    0  501  502  0.00000000000E+00  0.00000000000E+00  0.14537532374E+03  0.14537532374E+03  0.00000000000E+00 0.  1.
         21   -1    0    0  502  503 -0.00000000000E+00 -0.00000000000E+00 -0.77792401788E+03  0.77792401788E+03  0.00000000000E+00 0.  1.
         -6    2    1    2    0  503  0.18095212453E+03  0.21950498497E+03 -0.25045564091E+03  0.41670583247E+03  0.17317509335E+03 0.  0.
        -24    2    3    3    0    0  0.11227047690E+03  0.21999361850E+03 -0.16899430461E+03  0.31005009284E+03  0.81056356441E+02 0.  0.
          6    2    1    2  501    0 -0.18095212453E+03 -0.21950498497E+03 -0.38209305323E+03  0.50659350914E+03  0.17238263364E+03 0.  0.
         24    2    5    5    0    0 -0.13901366406E+03 -0.20494094662E+03 -0.22502033632E+03  0.34329968171E+03  0.76778442989E+02 0.  0.
          5    1    5    5  501    0 -0.41938460472E+02 -0.14564038346E+02 -0.15707271691E+03  0.16329382743E+03  0.47000000000E+01 0. -1.
        -11    1    6    6    0    0  0.22068199803E+01 -0.27153789226E+02 -0.61398413998E+01  0.27926617700E+02  0.00000000000E+00 0.  1.
         12    1    6    6    0    0 -0.14122048404E+03 -0.17778715740E+03 -0.21888049492E+03  0.31537306401E+03  0.00000000000E+00 0. -1.
         -5    1    3    3    0  503  0.68681647627E+02 -0.48863352834E+00 -0.81461336301E+02  0.10665573963E+03  0.47000000000E+01 0.  1.
         13    1    4    4    0    0  0.76570307192E+02  0.71188247294E+02 -0.89393162501E+02  0.13755695547E+03  0.00000000000E+00 0. -1.
        -14    1    4    4    0    0  0.35700169709E+02  0.14880537120E+03 -0.79601142105E+02  0.17249313737E+03  0.00000000000E+00 0.  1.
</event>
<event>
12    1  0.1066489E+000  0.1863753E+03  0.7818608E-02  0.1162079E+00
         21   -1    0    0  503  502  0.00000000000E+00  0.00000000000E+00  0.63520437451E+02  0.63520437451E+02  0.00000000000E+00 0. -1.
         21   -1    0    0  501  503 -0.00000000000E+00 -0.00000000000E+00 -0.54959121412E+03  0.54959121412E+03  0.00000000000E+00 0. -1.
          6    2    1    2  501    0  0.69312118479E+02 -0.15455057543E+02 -0.27753891712E+03  0.33431066549E+03  0.17231582043E+03 0.  0.
         24    2    3    3    0    0  0.11373538655E+03 -0.10904084010E+01 -0.19847973817E+03  0.24237474396E+03  0.80089842683E+02 0.  0.
         -6    2    1    2    0  502 -0.69312118479E+02  0.15455057543E+02 -0.20853185954E+03  0.27880098608E+03  0.17088424393E+03 0.  0.
        -24    2    5    5    0    0  0.63993330527E+01  0.17310055375E+02 -0.33569903388E+02  0.88093248922E+02  0.79327754359E+02 0.  0.
          5    1    3    3  501    0 -0.44423268070E+02 -0.14364649142E+02 -0.79059178956E+02  0.91935921534E+02  0.47000000000E+01 0. -1.
        -11    1    4    4    0    0  0.72027423448E+02  0.15799736784E+02 -0.17851687721E+03  0.19314724140E+03  0.00000000000E+00 0.  1.
         12    1    4    4    0    0  0.41707963101E+02 -0.16890145185E+02 -0.19962860956E+02  0.49227502557E+02  0.00000000000E+00 0. -1.
         -5    1    5    5    0  502 -0.75711451531E+02 -0.18549978319E+01 -0.17496195615E+03  0.19070773716E+03  0.47000000000E+01 0.  1.
         13    1    6    6    0    0  0.13226923638E+02 -0.10207826019E+02 -0.51771877167E+02  0.54401089018E+02  0.00000000000E+00 0. -1.
        -14    1    6    6    0    0 -0.68275905857E+01  0.27517881394E+02  0.18201973779E+02  0.33692159905E+02  0.00000000000E+00 0.  1.
</event>
<event>
12    1  0.1066489E+000  0.1883561E+03  0.7818608E-02  0.1160137E+00
         21   -1    0    0  503  502  0.00000000000E+00  0.00000000000E+00  0.22354947379E+03  0.22354947379E+03  0.00000000000E+00 0.  1.
         21   -1    0    0  501  503 -0.00000000000E+00 -0.00000000000E+00 -0.15852847040E+03  0.15852847040E+03  0.00000000000E+00 0.  1.
          6    2    1    2  501    0  0.43975516178E+02 -0.62121045168E+02  0.21662908920E+02  0.18879592254E+03  0.17141105118E+03 0.  0.
         24    2    3    3    0    0  0.18093253758E+02  0.11573385501E+01 -0.45677207958E+02  0.92718731199E+02  0.78623473112E+02 0.  0.
         -6    2    1    2    0  502 -0.43975516178E+02  0.62121045168E+02  0.43358094467E+02  0.19328202165E+03  0.17229377604E+03 0.  0.
        -24    2    5    5    0    0 -0.95894218513E+02  0.40769476503E+02  0.24360155549E+02  0.13383075741E+03  0.80370411798E+02 0.  0.
          5    1    3    3  501    0  0.25882262420E+02 -0.63278383718E+02  0.67340116878E+02  0.96077191336E+02  0.47000000000E+01 0. -1.
        -13    1    4    4    0    0  0.10777386732E+02  0.25841552960E+02  0.11301308649E+02  0.30193666576E+02  0.00000000000E+00 0.  1.
         14    1    4    4    0    0  0.73158670265E+01 -0.24684214410E+02 -0.56978516607E+02  0.62525064623E+02  0.00000000000E+00 0. -1.
         -5    1    5    5    0  502  0.51918702335E+02  0.21351568665E+02  0.18997938917E+02  0.59451264240E+02  0.47000000000E+01 0.  1.
         11    1    6    6    0    0 -0.17752084886E+02  0.21057691896E+02 -0.26754736616E+02  0.38397641036E+02  0.00000000000E+00 0. -1.
        -12    1    6    6    0    0 -0.78142133627E+02  0.19711784607E+02  0.51114892165E+02  0.95433116376E+02  0.00000000000E+00 0.  1.
</event>
<event>
12    1  0.1066489E+000  0.1730277E+03  0.7818608E-02  0.1174856E+00
         21   -1    0    0  501  502  0.00000000000E+00  0.00000000000E+00  0.15917172066E+03  0.15917172066E+03  0.00000000000E+00 0.  1.
         21   -1    0    0  502  503 -0.00000000000E+00 -0.00000000000E+00 -0.40769310384E+03  0.40769310384E+03  0.00000000000E+00 0.  1.
         -6    2    1    2    0  503 -0.12726257784E+02  0.22010862349E+01  0.84100831023E+02  0.19193000377E+03  0.17203887395E+03 0.  0.
        -24    2    3    3    0    0  0.12634739045E+02 -0.22529985003E+01 -0.22146458550E+02  0.82506077806E+02  0.78435161857E+02 0.  0.
          6    2    1    2  501    0  0.12726257784E+02 -0.22010862349E+01 -0.33262221420E+03  0.37493482073E+03  0.17254500863E+03 0.  0.
         24    2    5    5    0    0  0.36618641391E+01  0.29082322376E+01 -0.60720556314E+02  0.10279355241E+03  0.82810998021E+02 0.  0.
          5    1    5    5  501    0  0.90643936451E+01 -0.51093184725E+01 -0.27190165788E+03  0.27214126833E+03  0.47000000000E+01 0. -1.
        -11    1    6    6    0    0 -0.69377642125E+01  0.41635176488E+02 -0.37186246098E+02  0.56253332278E+02  0.00000000000E+00 0.  1.
         12    1    6    6    0    0  0.10599628352E+02 -0.38726944251E+02 -0.23534310216E+02  0.46540220128E+02  0.00000000000E+00 0. -1.
         -5    1    3    3    0  503 -0.25360996829E+02  0.44540847352E+01  0.10624728957E+03  0.10942392596E+03  0.47000000000E+01 0.  1.
         11    1    4    4    0    0 -0.20578525362E+02  0.10804940908E+02  0.17551213919E+02  0.29125033290E+02  0.00000000000E+00 0. -1.
        -12    1    4    4    0    0  0.33213264407E+02 -0.13057939408E+02 -0.39697672469E+02  0.53381044516E+02  0.00000000000E+00 0.  1.
</event>
<event>
12    1  0.1066489E+000  0.1926545E+03  0.7818608E-02  0.1156445E+00
         21   -1    0    0  501  502  0.00000000000E+00  0.00000000000E+00  0.62781941041E+02  0.62781941041E+02  0.00000000000E+00 0. -1.
         21   -1    0    0  502  503 -0.00000000000E+00 -0.00000000000E+00 -0.69911196436E+03  0.69911196436E+03  0.00000000000E+00 0. -1.
         -6    2    1    2    0  503  0.21288215008E+02  0.83809372406E+02 -0.16623979103E+03  0.25446303475E+03  0.17215855753E+03 0.  0.
        -24    2    3    3    0    0 -0.49437305168E+02  0.56421975912E+02 -0.12766397371E+03  0.16924359816E+03  0.81962301246E+02 0.  0.
          6    2    1    2  501    0 -0.21288215008E+02 -0.83809372406E+02 -0.47009023228E+03  0.50743087065E+03  0.17036450040E+03 0.  0.
         24    2    5    5    0    0  0.28539056344E+02  0.11583750923E+02 -0.16402051225E+03  0.18295688329E+03  0.74978874914E+02 0.  0.
          5    1    5    5  501    0 -0.49827271351E+02 -0.95393123329E+02 -0.30606972003E+03  0.32447398736E+03  0.47000000000E+01 0. -1.
        -11    1    6    6    0    0  0.94007404581E+01 -0.31398873408E+02 -0.83426092586E+02  0.89633565681E+02  0.00000000000E+00 0.  1.
         12    1    6    6    0    0  0.19138315885E+02  0.42982624331E+02 -0.80594419664E+02  0.93323317613E+02  0.00000000000E+00 0. -1.
         -5    1    3    3    0  503  0.70725520176E+02  0.27387396494E+02 -0.38575817320E+02  0.85219436591E+02  0.47000000000E+01 0.  1.
         11    1    4    4    0    0 -0.54086222847E+02  0.35200625330E+02 -0.33701568784E+02  0.72802467430E+02  0.00000000000E+00 0. -1.
        -12    1    4    4    0    0  0.46489176786E+01  0.21221350582E+02 -0.93962404931E+02  0.96441130730E+02  0.00000000000E+00 0.  1.
</event>
<event>
12    1  0.1066489E+000  0.1804081E+03  0.7818608E-02  0.1167503E+00
         21   -1    0    0  503  502  0.00000000000E+00  0.00000000000E+00  0.11339553905E+03  0.11339553905E+03  0.00000000000E+00 0. -1.
         21   -1    0    0  501  503 -0.00000000000E+00 -0.00000000000E+00 -0.28642856596E+03  0.28642856596E+03  0.00000000000E+00 0. -1.
          6    2    1    2  501    0  0.12164701201E+02 -0.51578672546E+02 -0.88459017565E+02  0.20092803326E+03  0.17244923121E+03 0.  0.
         24    2    3    3    0    0 -0.30513387191E+02 -0.44265383328E+01  0.11830051904E+02  0.82080524052E+02  0.75143870416E+02 0.  0.
         -6    2    1    2    0  502 -0.12164701201E+02  0.51578672546E+02 -0.84574009352E+02  0.19889607175E+03  0.17204227644E+03 0.  0.
        -24    2    5    5    0    0 -0.62153894070E+02  0.97135388004E+01 -0.18539802847E+02  0.10597559362E+03  0.83244475908E+02 0.  0.
          5    1    3    3  501    0  0.42678088393E+02 -0.47152134213E+02 -0.10028906947E+03  0.11884750921E+03  0.47000000000E+01 0. -1.
        -13    1    4    4    0    0 -0.54849831140E+02  0.36803909268E+01  0.12674729812E+02  0.56415405957E+02  0.00000000000E+00 0.  1.
         14    1    4    4    0    0  0.24336443949E+02 -0.81069292597E+01 -0.84467790859E+00  0.25665118096E+02  0.00000000000E+00 0. -1.
         -5    1    5    5    0  502  0.49989192869E+02  0.41865133746E+02 -0.66034206505E+02  0.92920478130E+02  0.47000000000E+01 0.  1.
         11    1    6    6    0    0  0.15828507452E+02 -0.15143359786E+02  0.62095329371E+00  0.21914574529E+02  0.00000000000E+00 0. -1.
        -12    1    6    6    0    0 -0.77982401523E+02  0.24856898586E+02 -0.19160756141E+02  0.84061019090E+02  0.00000000000E+00 0.  1.
</event>
<event>
12    1  0.1066489E+000  0.1734256E+03  0.7818608E-02  0.1174432E+00
         21   -1    0    0  503  502  0.00000000000E+00  0.00000000000E+00  0.87567696616E+02  0.87567696616E+02  0.00000000000E+00 0. -1.
         21   -1    0    0  501  503 -0.00000000000E+00 -0.00000000000E+00 -0.40455464572E+03  0.40455464572E+03  0.00000000000E+00 0. -1.
          6    2    1    2  501    0 -0.11133893989E+02 -0.18143782065E+02 -0.62376742966E+02  0.18430223489E+03  0.17211419262E+03 0.  0.
         24    2    3    3    0    0 -0.55330394551E+02 -0.45042473155E+02 -0.74633939900E+02  0.13092434508E+03  0.80502684430E+02 0.  0.
         -6    2    1    2    0  502  0.11133893989E+02  0.18143782065E+02 -0.25461020613E+03  0.30782010744E+03  0.17167906411E+03 0.  0.
        -24    2    5    5    0    0  0.24463834368E+02 -0.22350072666E+02 -0.24990450995E+03  0.26467299678E+03  0.80632041964E+02 0.  0.
          5    1    3    3  501    0  0.44196500562E+02  0.26898691089E+02  0.12257196934E+02  0.53377889813E+02  0.47000000000E+01 0. -1.
        -13    1    4    4    0    0 -0.24136012881E+02 -0.45482255942E+02 -0.83847262463E+02  0.98394848168E+02  0.00000000000E+00 0.  1.
         14    1    4    4    0    0 -0.31194381670E+02  0.43978278725E+00  0.92133225638E+01  0.32529496912E+02  0.00000000000E+00 0. -1.
         -5    1    5    5    0  502 -0.13329940379E+02  0.40493854731E+02 -0.47056961815E+01  0.43147110657E+02  0.47000000000E+01 0.  1.
         13    1    6    6    0    0 -0.18112635259E+02 -0.89996175910E+00 -0.17464448197E+03  0.17558352021E+03  0.00000000000E+00 0. -1.
        -14    1    6    6    0    0  0.42576469627E+02 -0.21450110906E+02 -0.75260027979E+02  0.89089476568E+02  0.00000000000E+00 0.  1.
</event>
<event>
12    1  0.1066489E+000  0.4255695E+03  0.7818608E-02  0.1035270E+00
         21   -1    0    0  503  502  0.00000000000E+00  0.00000000000E+00  0.18503282028E+03  0.18503282028E+03  0.00000000000E+00 0. -1.
         21   -1    0    0  501  503 -0.00000000000E+00 -0.00000000000E+00 -0.10448079527E+04  0.10448079527E+04  0.00000000000E+00 0. -1.
          6    2    1    2  501    0  0.25754069571E+03 -0.29135965564E+03 -0.58447447046E+03  0.72298787467E+03  0.17286816193E+03 0.  0.
         24    2    3    3    0    0  0.57687619386E+02 -0.87908079650E+02 -0.25539793676E+03  0.28750279923E+03  0.79837720213E+02 0.  0.
         -6    2    1    2    0  502 -0.25754069571E+03  0.29135965564E+03 -0.27530066195E+03  0.50685289830E+03  0.17289229931E+03 0.  0.
        -24    2    5    5    0    0 -0.13797376135E+03  0.25359119172E+03 -0.19998572117E+03  0.36050694186E+03  0.81398495813E+02 0.  0.
          5    1    3    3  501    0  0.19985307632E+03 -0.20345157599E+03 -0.32907653371E+03  0.43548507543E+03  0.47000000000E+01 0. -1.
        -11    1    4    4    0    0  0.59177546095E+02 -0.91681389466E+02 -0.17000002815E+03  0.20200858573E+03  0.00000000000E+00 0.  1.
         12    1    4    4    0    0 -0.14899267090E+01  0.37733098167E+01 -0.85397908606E+02  0.85494213505E+02  0.00000000000E+00 0. -1.
         -5    1    5    5    0  502 -0.11956693436E+03  0.37768463916E+02 -0.75314940782E+02  0.14634595643E+03  0.47000000000E+01 0.  1.
         11    1    6    6    0    0 -0.29774937087E+02  0.39808842023E+02 -0.75761857902E+02  0.90615395460E+02  0.00000000000E+00 0. -1.
        -12    1    6    6    0    0 -0.10819882426E+03  0.21378234970E+03 -0.12422386326E+03  0.26989154640E+03  0.00000000000E+00 0.  1.
</event>
<event>
12    1  0.1066489E+000  0.1802567E+03  0.7818608E-02  0.1167701E+00
         21   -1    0    0  501  502  0.00000000000E+00  0.00000000000E+00  0.36049207706E+03  0.36049207706E+03  0.00000000000E+00 0. -1.
         21   -1    0    0  502  503 -0.00000000000E+00 -0.00000000000E+00 -0.95039601993E+02  0.95039601993E+02  0.00000000000E+00 0. -1.
         -6    2    1    2    0  503  0.52024295492E+02  0.39132239387E+01  0.18583052444E+03  0.25847301093E+03  0.17191123560E+03 0.  0.
        -24    2    3    3    0    0  0.89433302753E+02 -0.14859297244E+02  0.89230837666E+02  0.15309070284E+03  0.85179261257E+02 0.  0.
          6    2    1    2  501    0 -0.52024295492E+02 -0.39132239387E+01  0.79621950625E+02  0.19705866811E+03  0.17254165588E+03 0.  0.
         24    2    5    5    0    0 -0.89068765946E+02  0.39040609293E+02  0.53386143027E+02  0.13438704630E+03  0.75844470495E+02 0.  0.
          5    1    5    5  501    0  0.37044470453E+02 -0.42953833232E+02  0.26235807598E+02  0.62671621814E+02  0.47000000000E+01 0. -1.
        -13    1    6    6    0    0 -0.59884382481E+02 -0.14357972455E+02  0.34920938798E+02  0.70793803434E+02  0.00000000000E+00 0.  1.
         14    1    6    6    0    0 -0.29184383465E+02  0.53398581748E+02  0.18465204229E+02  0.63593242865E+02  0.00000000000E+00 0. -1.
         -5    1    3    3    0  503 -0.37409007261E+02  0.18772521183E+02  0.96599686771E+02  0.10538230810E+03  0.47000000000E+01 0.  1.
         11    1    4    4    0    0 -0.13321097852E+02  0.76543206077E+01  0.33529944912E+00  0.15367260578E+02  0.00000000000E+00 0. -1.
        -12    1    4    4    0    0  0.10275440061E+03 -0.22513617852E+02  0.88895538217E+02  0.13772344226E+03  0.00000000000E+00 0.  1.
</event>
<event>
12    1  0.1066489E+000  0.2350053E+03  0.7818608E-02  0.1123398E+00
         21   -1    0    0  501  502  0.00000000000E+00  0.00000000000E+00  0.52049737692E+03  0.52049737692E+03  0.00000000000E+00 0. -1.
         21   -1    0    0  502  503 -0.00000000000E+00 -0.00000000000E+00 -0.10550933495E+03  0.10550933495E+03  0.00000000000E+00 0. -1.
         -6    2    1    2    0  503 -0.14636050777E+03 -0.62317585497E+02  0.20318732401E+03  0.30964138319E+03  0.17113683954E+03 0.  0.
        -24    2    3    3    0    0 -0.11115603137E+03 -0.10816730171E+03  0.16406788737E+03  0.23968445388E+03  0.80464509547E+02 0.  0.
          6    2    1    2  501    0  0.14636050777E+03  0.62317585497E+02  0.21180071797E+03  0.31636532868E+03  0.17298149428E+03 0.  0.
         24    2    5    5    0    0  0.13098793394E+03 -0.16029136155E+02  0.15232374372E+03  0.21669524648E+03  0.79621196324E+02 0.  0.
          5    1    5    5  501    0  0.15372573834E+02  0.78346721652E+02  0.59476974248E+02  0.99670082199E+02  0.47000000000E+01 0. -1.
        -13    1    6    6    0    0  0.53221151812E+02 -0.24789019216E+01  0.12018499222E+03  0.13146508399E+03  0.00000000000E+00 0.  1.
         14    1    6    6    0    0  0.77766782126E+02 -0.13550234233E+02  0.32138751504E+02  0.85230162491E+02  0.00000000000E+00 0. -1.
         -5    1    3    3    0  503 -0.35204476399E+02  0.45849716210E+02  0.39119436635E+02  0.69956929304E+02  0.47000000000E+01 0.  1.
         11    1    4    4    0    0 -0.47917526592E+02 -0.39257221681E+02  0.12262852408E+03  0.13738622102E+03  0.00000000000E+00 0. -1.
        -12    1    4    4    0    0 -0.63238504780E+02 -0.68910080026E+02  0.41439363293E+02  0.10229823286E+03  0.00000000000E+00 0.  1.
</event>
<event>
12    1  0.1066489E+000  0.2663700E+03  0.7818608E-02  0.1103574E+00
         21   -1    0    0  501  502  0.00000000000E+00  0.00000000000E+00  0.24513947550E+03  0.24513947550E+03  0.00000000000E+00 0.  1.
         21   -1    0    0  502  503 -0.00000000000E+00 -0.00000000000E+00 -0.36820511254E+03  0.36820511254E+03  0.00000000000E+00 0.  1.
         -6    2    1    2    0  503 -0.10130229586E+03  0.17596630385E+03 -0.20482009777E+03  0.33601226122E+03  0.17241424536E+03 0.  0.
        -24    2    3    3    0    0 -0.12497872143E+03  0.17185625854E+03 -0.14222346411E+03  0.26879697914E+03  0.82885751730E+02 0.  0.
          6    2    1    2  501    0  0.10130229586E+03 -0.17596630385E+03  0.81754460724E+02  0.27733232683E+03  0.17030306051E+03 0.  0.
         24    2    5    5    0    0  0.13820262220E+03 -0.14220553876E+03  0.73742741321E+02  0.22646287635E+03  0.80777858558E+02 0.  0.
          5    1    5    5  501    0 -0.36900326340E+02 -0.33760765091E+02  0.80117194026E+01  0.50869450472E+02  0.47000000000E+01 0. -1.
        -13    1    6    6    0    0  0.57333546414E+02 -0.94614654821E+01  0.12778041571E+02  0.59497337922E+02  0.00000000000E+00 0.  1.
         14    1    6    6    0    0  0.80869075782E+02 -0.13274407328E+03  0.60964699750E+02  0.16696553843E+03  0.00000000000E+00 0. -1.
         -5    1    3    3    0  503  0.23676425574E+02  0.41100453104E+01 -0.62596633654E+02  0.67215282081E+02  0.47000000000E+01 0.  1.
         13    1    4    4    0    0  0.11164138788E+02  0.24860846959E+02 -0.22930101504E+02  0.35615856881E+02  0.00000000000E+00 0. -1.
        -14    1    4    4    0    0 -0.13614286022E+03  0.14699541158E+03 -0.11929336261E+03  0.23318112226E+03  0.00000000000E+00 0.  1.
</event>
<event>
12    1  0.1066489E+000  0.2287973E+03  0.7818608E-02  0.1127543E+00
         21   -1    0    0  501  502  0.00000000000E+00  0.00000000000E+00  0.13318575399E+04  0.13318575399E+04  0.00000000000E+00 0.  1.
         21   -1    0    0  502  503 -0.00000000000E+00 -0.00000000000E+00 -0.44699698045E+02  0.44699698045E+02  0.00000000000E+00 0.  1.
         -6    2    1    2    0  503 -0.13766133675E+03 -0.61740276744E+02  0.88347119354E+03  0.91254096068E+03  0.17160171820E+03 0.  0.
        -24    2    3    3    0    0 -0.12313981252E+03 -0.10672096372E+03  0.71230783200E+03  0.73490897257E+03  0.78460008297E+02 0.  0.
          6    2    1    2  501    0  0.13766133675E+03  0.61740276744E+02  0.40368664833E+03  0.46401627729E+03  0.17200491311E+03 0.  0.
         24    2    5    5    0    0  0.36380610085E+02 -0.29132243343E+02  0.18677259714E+03  0.20791200925E+03  0.78556757541E+02 0.  0.
          5    1    5    5  501    0  0.10128072667E+03  0.90872520087E+02  0.21691405119E+03  0.25610426804E+03  0.47000000000E+01 0. -1.
        -13    1    6    6    0    0  0.26601960844E+01  0.19893565975E+02  0.12224465281E+02  0.23500386418E+02  0.00000000000E+00 0.  1.
         14    1    6    6    0    0  0.33720414001E+02 -0.49025809318E+02  0.17454813186E+03  0.18441162283E+03  0.00000000000E+00 0. -1.
         -5    1    3    3    0  503 -0.14521524234E+02  0.44980686979E+02  0.17116336154E+03  0.17763198811E+03  0.47000000000E+01 0.  1.
         11    1    4    4    0    0 -0.52060306053E+02 -0.15149394169E+02  0.35897113457E+03  0.36304277305E+03  0.00000000000E+00 0. -1.
        -12    1    4    4    0    0 -0.71079506466E+02 -0.91571569554E+02  0.35333669744E+03  0.37186619952E+03  0.00000000000E+00 0.  1.
</event>
<event>
12    1  0.1066489E+000  0.1977524E+03  0.7818608E-02  0.1153978E+00
         21   -1    0    0  503  502  0.00000000000E+00  0.00000000000E+00  0.36733436886E+03  0.36733436886E+03  0.00000000000E+00 0. -1.
         21   -1    0    0  501  503 -0.00000000000E+00 -0.00000000000E+00 -0.10617071129E+03  0.10617071129E+03  0.00000000000E+00 0. -1.
          6    2    1    2  501    0 -0.69851187019E+02 -0.67728688278E+02  0.18698397130E+03  0.27215621887E+03  0.17216166356E+03 0.  0.
         24    2    3    3    0    0 -0.78457977435E+02  0.94565068090E+01  0.14713431721E+03  0.18473930910E+03  0.78962176270E+02 0.  0.
         -6    2    1    2    0  502  0.69851187019E+02  0.67728688278E+02  0.74179686268E+02  0.20134886128E+03  0.15991364714E+03 0.  0.
        -24    2    5    5    0    0  0.50772487309E+02  0.11752194697E+02  0.97945754124E+02  0.13744048470E+03  0.81120629534E+02 0.  0.
          5    1    3    3  501    0  0.86067904159E+01 -0.77185195087E+02  0.39849654088E+02  0.87416909765E+02  0.47000000000E+01 0. -1.
        -13    1    4    4    0    0 -0.38973870670E+02  0.36793575977E+02  0.38587404130E+02  0.66043300839E+02  0.00000000000E+00 0.  1.
         14    1    4    4    0    0 -0.39484106766E+02 -0.27337069168E+02  0.10854691308E+03  0.11869600826E+03  0.00000000000E+00 0. -1.
         -5    1    5    5    0  502  0.19078699710E+02  0.55976493581E+02 -0.23766067857E+02  0.63908376584E+02  0.47000000000E+01 0.  1.
         11    1    6    6    0    0 -0.22253608099E+02  0.65289330543E+01  0.24577861674E+02  0.33792326418E+02  0.00000000000E+00 0. -1.
        -12    1    6    6    0    0  0.73026095409E+02  0.52232616426E+01  0.73367892450E+02  0.10364815828E+03  0.00000000000E+00 0.  1.
</event>
<event>
12    1  0.1066489E+000  0.3024311E+03  0.7818608E-02  0.1084224E+00
         21   -1    0    0  503  502  0.00000000000E+00  0.00000000000E+00  0.11981736863E+03  0.11981736863E+03  0.00000000000E+00 0. -1.
         21   -1    0    0  501  503 -0.00000000000E+00 -0.00000000000E+00 -0.76140436707E+03  0.76140436707E+03  0.00000000000E+00 0. -1.
          6    2    1    2  501    0  0.24725947214E+03  0.91575781230E+01 -0.29929030032E+03  0.42548709428E+03  0.17390651435E+03 0.  0.
         24    2    3    3    0    0  0.93206604920E+02  0.63142190425E+02 -0.15791949299E+03  0.20949075304E+03  0.79204810024E+02 0.  0.
         -6    2    1    2    0  502 -0.24725947214E+03 -0.91575781230E+01 -0.34229669811E+03  0.45573464142E+03  0.17118973701E+03 0.  0.
        -24    2    5    5    0    0 -0.20632625851E+03 -0.37454905774E+02 -0.33848599936E+03  0.40560602530E+03  0.77266299756E+02 0.  0.
          5    1    3    3  501    0  0.15405286722E+03 -0.53984612302E+02 -0.14137080733E+03  0.21599634124E+03  0.47000000000E+01 0. -1.
        -13    1    4    4    0    0  0.58624017901E+02  0.31713187940E+02 -0.29603841225E+02  0.72930714925E+02  0.00000000000E+00 0.  1.
         14    1    4    4    0    0  0.34582587019E+02  0.31429002485E+02 -0.12831565177E+03  0.13656003812E+03  0.00000000000E+00 0. -1.
         -5    1    5    5    0  502 -0.40933213623E+02  0.28297327651E+02 -0.38106987533E+01  0.50128616126E+02  0.47000000000E+01 0.  1.
         13    1    6    6    0    0 -0.12120898512E+03  0.16607129739E+02 -0.19603673860E+03  0.23107967828E+03  0.00000000000E+00 0. -1.
        -14    1    6    6    0    0 -0.85117273394E+02 -0.54062035513E+02 -0.14244926076E+03  0.17452634702E+03  0.00000000000E+00 0.  1.
</event>
<event>
12    1  0.1066489E+000  0.1927474E+03  0.7818608E-02  0.1156197E+00
         21   -1    0    0  501  502  0.00000000000E+00  0.00000000000E+00  0.98799898629E+03  0.98799898629E+03  0.00000000000E+00 0. -1.
         21   -1    0    0  502  503 -0.00000000000E+00 -0.00000000000E+00 -0.63496937131E+02  0.63496937131E+02  0.00000000000E+00 0. -1.
         -6    2    1    2    0  503 -0.82657639887E+02 -0.16294670133E+02  0.79846325887E+03  0.82119755459E+03  0.17240663036E+03 0.  0.
        -24    2    3    3    0    0 -0.50699164187E+02  0.49477680772E+02  0.32649997567E+03  0.34357973980E+03  0.80164564157E+02 0.  0.
          6    2    1    2  501    0  0.82657639887E+02  0.16294670133E+02  0.12603879029E+03  0.23029836884E+03  0.17336020398E+03 0.  0.
         24    2    5    5    0    0  0.29865327796E+02  0.39183321373E+02  0.14115848474E+03  0.17061911171E+03  0.82206404787E+02 0.  0.
          5    1    5    5  501    0  0.52792312092E+02 -0.22888651240E+02 -0.15119694443E+02  0.59679257130E+02  0.47000000000E+01 0. -1.
        -11    1    6    6    0    0  0.67565088500E+01  0.47809330232E+02  0.30197862967E+02  0.56949920078E+02  0.00000000000E+00 0.  1.
         12    1    6    6    0    0  0.23108818946E+02 -0.86260088595E+01  0.11096062177E+03  0.11366919163E+03  0.00000000000E+00 0. -1.
         -5    1    3    3    0  503 -0.31958475700E+02 -0.65772350905E+02  0.47196328319E+03  0.47761781478E+03  0.47000000000E+01 0.  1.
         11    1    4    4    0    0  0.79604019177E+01  0.46755882650E+02  0.12492321196E+03  0.13362368595E+03  0.00000000000E+00 0. -1.
        -12    1    4    4    0    0 -0.58659566105E+02  0.27217981221E+01  0.20157676372E+03  0.20995605386E+03  0.00000000000E+00 0.  1.
</event>
<event>
12    1  0.1066489E+000  0.1784886E+03  0.7818608E-02  0.1170034E+00
         21   -1    0    0  501  502  0.00000000000E+00  0.00000000000E+00  0.10750987869E+03  0.10750987869E+03  0.00000000000E+00 0.  1.
         21   -1    0    0  502  503 -0.00000000000E+00 -0.00000000000E+00 -0.29145064290E+03  0.29145064290E+03  0.00000000000E+00 0.  1.
         -6    2    1    2    0  503 -0.28569607316E+02  0.20742537804E+02 -0.87389559321E+02  0.19873374595E+03  0.17496197120E+03 0.  0.
        -24    2    3    3    0    0 -0.12766922381E+02  0.20438604546E+02  0.23280675492E+02  0.86841797625E+02  0.80117270925E+02 0.  0.
          6    2    1    2  501    0  0.28569607316E+02 -0.20742537804E+02 -0.96551204890E+02  0.20022677564E+03  0.17182011285E+03 0.  0.
         24    2    5    5    0    0  0.63932476940E+02  0.35785621535E+02 -0.63046364090E+02  0.12545626204E+03  0.79977855341E+02 0.  0.
          5    1    5    5  501    0 -0.35362869624E+02 -0.56528159339E+02 -0.33504840800E+02  0.74770513596E+02  0.47000000000E+01 0. -1.
        -11    1    6    6    0    0  0.26218987486E+02 -0.14726180025E+02 -0.53951087435E+02  0.61765811889E+02  0.00000000000E+00 0.  1.
         12    1    6    6    0    0  0.37713489454E+02  0.50511801560E+02 -0.90952766552E+01  0.63690450156E+02  0.00000000000E+00 0. -1.
         -5    1    3    3    0  503 -0.15802684935E+02  0.30393325819E+00 -0.11067023481E+03  0.11189194833E+03  0.47000000000E+01 0.  1.
         13    1    4    4    0    0  0.35854121673E+01  0.25846297005E+02 -0.24659060513E+02  0.35902026609E+02  0.00000000000E+00 0. -1.
        -14    1    4    4    0    0 -0.16352334548E+02 -0.54076924596E+01  0.47939736005E+02  0.50939771016E+02  0.00000000000E+00 0.  1.
</event>
<event>
12    1  0.1066489E+000  0.1911824E+03  0.7818608E-02  0.1159499E+00
         21   -1    0    0  503  502  0.00000000000E+00  0.00000000000E+00  0.12594505241E+03  0.12594505241E+03  0.00000000000E+00 0.  1.
         21   -1    0    0  501  503 -0.00000000000E+00 -0.00000000000E+00 -0.39386551349E+03  0.39386551349E+03  0.00000000000E+00 0.  1.
          6    2    1    2  501    0 -0.54486624404E+02  0.12509841581E+02  0.55862175774E+01  0.19126399363E+03  0.18282620451E+03 0.  0.
         24    2    3    3    0    0 -0.92804887245E+02  0.47216355736E+02  0.71725348256E+01  0.13932713009E+03  0.92295571816E+02 0.  0.
         -6    2    1    2    0  502  0.54486624404E+02 -0.12509841581E+02 -0.27350667866E+03  0.32854657228E+03  0.17323873271E+03 0.  0.
        -24    2    5    5    0    0  0.96926285809E+02  0.19069354778E+02 -0.21205776665E+03  0.24732816740E+03  0.80276900942E+02 0.  0.
          5    1    3    3  501    0  0.38318262841E+02 -0.34706514156E+02 -0.15863172482E+01  0.51936863540E+02  0.47000000000E+01 0. -1.
        -11    1    4    4    0    0 -0.26157864733E+02  0.13740279973E+02  0.46437517689E+02  0.55040641623E+02  0.00000000000E+00 0.  1.
         12    1    4    4    0    0 -0.66647022512E+02  0.33476075764E+02 -0.39264982864E+02  0.84286488463E+02  0.00000000000E+00 0. -1.
         -5    1    5    5    0  502 -0.42439661405E+02 -0.31579196359E+02 -0.61448912013E+02  0.81218404875E+02  0.47000000000E+01 0.  1.
         13    1    6    6    0    0  0.13999985566E+02 -0.27019286652E+02 -0.71951468863E+02  0.78122053983E+02  0.00000000000E+00 0. -1.
        -14    1    6    6    0    0  0.82926300243E+02  0.46088641431E+02 -0.14010629778E+03  0.16920611342E+03  0.00000000000E+00 0.  1.
</event>
<event>
12    1  0.1066489E+000  0.3414818E+03  0.7818608E-02  0.1067015E+00
         21   -1    0    0  503  502  0.00000000000E+00  0.00000000000E+00  0.12159194024E+04  0.12159194024E+04  0.00000000000E+00 0. -1.
         21   -1    0    0  501  503 -0.00000000000E+00 -0.00000000000E+00 -0.97805706773E+02  0.97805706773E+02  0.00000000000E+00 0. -1.
          6    2    1    2  501    0  0.20374201086E+02 -0.28500143223E+03  0.41809416898E+03  0.53485593872E+03  0.17212558383E+03 0.  0.
         24    2    3    3    0    0  0.53767854087E+02 -0.23513598899E+03  0.25185184001E+03  0.35805011181E+03  0.81182620047E+02 0.  0.
         -6    2    1    2    0  502 -0.20374201086E+02  0.28500143223E+03  0.70001952665E+03  0.77886917045E+03  0.18699979290E+03 0.  0.
        -24    2    5    5    0    0 -0.81351738472E+02  0.16428952196E+03  0.34000493816E+03  0.39426259319E+03  0.78933402548E+02 0.  0.
          5    1    3    3  501    0 -0.33393653002E+02 -0.49865443245E+02  0.16624232896E+03  0.17680582691E+03  0.47000000000E+01 0. -1.
        -13    1    4    4    0    0  0.48603297201E+02 -0.15618078895E+03  0.21661506504E+03  0.27143471727E+03  0.00000000000E+00 0.  1.
         14    1    4    4    0    0  0.51645568869E+01 -0.78955200038E+02  0.35236774971E+02  0.86615394540E+02  0.00000000000E+00 0. -1.
         -5    1    5    5    0  502  0.60977537387E+02  0.12071191028E+03  0.36001458849E+03  0.38460657726E+03  0.47000000000E+01 0.  1.
         13    1    6    6    0    0 -0.12110556512E+02 -0.68099534197E+01  0.14607612625E+02  0.20159945218E+02  0.00000000000E+00 0. -1.
        -14    1    6    6    0    0 -0.69241181961E+02  0.17109947538E+03  0.32539732553E+03  0.37410264797E+03  0.00000000000E+00 0.  1.
</event>
<event>
12    1  0.1066489E+000  0.1873521E+03  0.7818608E-02  0.1160927E+00
         21   -1    0    0  501  502  0.00000000000E+00  0.00000000000E+00  0.97135071967E+03  0.97135071967E+03  0.00000000000E+00 0.  1.
         21   -1    0    0  502  503 -0.00000000000E+00 -0.00000000000E+00 -0.36515166063E+02  0.36515166063E+02  0.00000000000E+00 0.  1.
         -6    2    1    2    0  503 -0.47788131712E+02 -0.57241712181E+02  0.52214683801E+03  0.55474150617E+03  0.17187349731E+03 0.  0.
        -24    2    3    3    0    0 -0.19033202065E+02 -0.10354914202E+03  0.39792589634E+03  0.41900589410E+03  0.78334109505E+02 0.  0.
          6    2    1    2  501    0  0.47788131712E+02  0.57241712181E+02  0.41268871560E+03  0.45312437956E+03  0.17160829883E+03 0.  0.
         24    2    5    5    0    0  0.50157951576E+02  0.94628800895E+02  0.38274442915E+03  0.40493557651E+03  0.77518339856E+02 0.  0.
          5    1    5    5  501    0 -0.23698198637E+01 -0.37387088714E+02  0.29944286450E+02  0.48188803053E+02  0.47000000000E+01 0. -1.
        -11    1    6    6    0    0  0.64915389130E+02  0.51659190217E+02  0.19782566310E+03  0.21451730154E+03  0.00000000000E+00 0.  1.
         12    1    6    6    0    0 -0.14757437554E+02  0.42969610678E+02  0.18491876605E+03  0.19041827497E+03  0.00000000000E+00 0. -1.
         -5    1    3    3    0  503 -0.28754929647E+02  0.46307429835E+02  0.12422094166E+03  0.13573561207E+03  0.47000000000E+01 0.  1.
         13    1    4    4    0    0  0.20891382281E+02 -0.81187102650E+02  0.22440624667E+03  0.23955366629E+03  0.00000000000E+00 0. -1.
        -14    1    4    4    0    0 -0.39924584346E+02 -0.22362039367E+02  0.17351964968E+03  0.17945222780E+03  0.00000000000E+00 0.  1.
</event>
<event>
12    1  0.1066489E+000  0.1979120E+03  0.7818608E-02  0.1151660E+00
         21   -1    0    0  501  502  0.00000000000E+00  0.00000000000E+00  0.18742594905E+03  0.18742594905E+03  0.00000000000E+00 0. -1.
         21   -1    0    0  502  503 -0.00000000000E+00 -0.00000000000E+00 -0.23901122593E+03  0.23901122593E+03  0.00000000000E+00 0. -1.
         -6    2    1    2    0  503  0.75591995664E+02  0.59341395652E+02  0.50651381429E+02  0.20429076683E+03  0.17301330563E+03 0.  0.
        -24    2    3    3    0    0  0.44992774447E+01  0.55728907914E+02 -0.25378049587E+02  0.10003248643E+03  0.78971502868E+02 0.  0.
          6    2    1    2  501    0 -0.75591995664E+02 -0.59341395652E+02 -0.10223665830E+03  0.22214640815E+03  0.17222410199E+03 0.  0.
         24    2    5    5    0    0 -0.56512361685E+02 -0.59523069150E+02 -0.13921183281E+03  0.18027375636E+03  0.79887734075E+02 0.  0.
          5    1    5    5  501    0 -0.19079633979E+02  0.18167349761E+00  0.36975174504E+02  0.41872651786E+02  0.47000000000E+01 0. -1.
        -13    1    6    6    0    0  0.68185748054E+01 -0.44868522744E+02 -0.81799005605E+02  0.93545468162E+02  0.00000000000E+00 0.  1.
         14    1    6    6    0    0 -0.63330936491E+02 -0.14654546406E+02 -0.57412827202E+02  0.86728288202E+02  0.00000000000E+00 0. -1.
         -5    1    3    3    0  503  0.71092718219E+02  0.36124877384E+01  0.76029431016E+02  0.10425828040E+03  0.47000000000E+01 0.  1.
         11    1    4    4    0    0  0.41419140951E+02  0.35645260125E+02 -0.16424697347E+02  0.57060498503E+02  0.00000000000E+00 0. -1.
        -12    1    4    4    0    0 -0.36919863506E+02  0.20083647789E+02 -0.89533522394E+01  0.42971987924E+02  0.00000000000E+00 0.  1.
</event>
<event>
12    1  0.1066489E+000  0.4480269E+03  0.7818608E-02  0.1028345E+00
         21   -1    0    0  503  502  0.00000000000E+00  0.00000000000E+00  0.10264716984E+03  0.10264716984E+03  0.00000000000E+00 0.  1.
         21   -1    0    0  501  503 -0.00000000000E+00 -0.00000000000E+00 -0.23522958145E+04  0.23522958145E+04  0.00000000000E+00 0.  1.
          6    2    1    2  501    0 -0.36941786477E+03  0.18582945926E+03 -0.61901300438E+03  0.76387802360E+03  0.17126117075E+03 0.  0.
         24    2    3    3    0    0 -0.19553884169E+03  0.13996827352E+03 -0.24758485345E+03  0.35118185894E+03  0.64837351781E+02 0.  0.
         -6    2    1    2    0  502  0.36941786477E+03 -0.18582945926E+03 -0.16306356403E+04  0.16910649607E+04  0.17241219021E+03 0.  0.
        -24    2    5    5    0    0  0.34758635941E+03 -0.13845369291E+03 -0.15358411296E+04  0.15827636814E+04  0.79669274292E+02 0.  0.
          5    1    3    3  501    0 -0.17387902309E+03  0.45861185734E+02 -0.37142815093E+03  0.41269616466E+03  0.47000000000E+01 0. -1.
        -11    1    4    4    0    0 -0.19038824186E+02  0.78089907619E+01 -0.53916241100E+02  0.57709775753E+02  0.00000000000E+00 0.  1.
         12    1    4    4    0    0 -0.17650001750E+03  0.13215928276E+03 -0.19366861235E+03  0.29347208318E+03  0.00000000000E+00 0. -1.
         -5    1    5    5    0  502  0.21831505368E+02 -0.47375766349E+02 -0.94794510667E+02  0.10830127938E+03  0.47000000000E+01 0.  1.
         13    1    6    6    0    0  0.21702163743E+03 -0.11036505672E+03 -0.11135986212E+04  0.11399038232E+04  0.00000000000E+00 0. -1.
        -14    1    6    6    0    0  0.13056472197E+03 -0.28088636186E+02 -0.42224250837E+03  0.44285985818E+03  0.00000000000E+00 0.  1.
</event>
<event>
12    1  0.1066489E+000  0.2857183E+03  0.7818608E-02  0.1092623E+00
         21   -1    0    0  501  502  0.00000000000E+00  0.00000000000E+00  0.18544995534E+03  0.18544995534E+03  0.00000000000E+00 0.  1.
         21   -1    0    0  502  503 -0.00000000000E+00 -0.00000000000E+00 -0.48015386055E+03  0.48015386055E+03  0.00000000000E+00 0.  1.
         -6    2    1    2    0  503 -0.97074136490E+02 -0.20617272479E+03 -0.51079785024E+02  0.29012059293E+03  0.17213434747E+03 0.  0.
        -24    2    3    3    0    0 -0.58159297609E+02 -0.66246348474E+02  0.32371683838E+02  0.12254973290E+03  0.78736449854E+02 0.  0.
          6    2    1    2  501    0  0.97074136490E+02  0.20617272479E+03 -0.24362412018E+03  0.37548322296E+03  0.17234952382E+03 0.  0.
         24    2    5    5    0    0  0.13454819395E+03  0.18319440841E+03 -0.19773375401E+03  0.31176255352E+03  0.80211249399E+02 0.  0.
          5    1    5    5  501    0 -0.37474057462E+02  0.22978316381E+02 -0.45890366170E+02  0.63720669438E+02  0.47000000000E+01 0. -1.
        -11    1    6    6    0    0  0.47687725766E+02  0.19429392557E+02 -0.68894648661E+02  0.86012168313E+02  0.00000000000E+00 0.  1.
         12    1    6    6    0    0  0.86860468187E+02  0.16376501586E+03 -0.12883910535E+03  0.22575038520E+03  0.00000000000E+00 0. -1.
         -5    1    3    3    0  503 -0.38914838881E+02 -0.13992637632E+03 -0.83451468862E+02  0.16757086003E+03  0.47000000000E+01 0.  1.
         13    1    4    4    0    0 -0.74646726141E+02 -0.55004472565E+02  0.11103992830E+02  0.93385889632E+02  0.00000000000E+00 0. -1.
        -14    1    4    4    0    0  0.16487428532E+02 -0.11241875910E+02  0.21267691008E+02  0.29163843271E+02  0.00000000000E+00 0.  1.
</event>
<event>
12    1  0.1066489E+000  0.4724636E+03  0.7818608E-02  0.1021255E+00
         21   -1    0    0  501  502  0.00000000000E+00  0.00000000000E+00  0.26783403042E+03  0.26783403042E+03  0.00000000000E+00 0. -1.
         21   -1    0    0  502  503 -0.00000000000E+00 -0.00000000000E+00 -0.12793986400E+04  0.12793986400E+04  0.00000000000E+00 0.  1.
         -6    2    1    2    0  503  0.62787653335E+02 -0.43498584506E+03 -0.48548637798E+02  0.47456233260E+03  0.17232951711E+03 0.  0.
        -24    2    3    3    0    0  0.65625034603E+02 -0.24370778781E+03 -0.88937941091E+02  0.27898950283E+03  0.78899013436E+02 0.  0.
          6    2    1    2  501    0 -0.62787653335E+02  0.43498584506E+03 -0.96301597182E+03  0.10726703379E+04  0.17339814564E+03 0.  0.
         24    2    5    5    0    0 -0.91789631385E+02  0.42112631167E+03 -0.87417724119E+03  0.97807852290E+03  0.81725400767E+02 0.  0.
          5    1    5    5  501    0  0.29001978051E+02  0.13859533398E+02 -0.88838730623E+02  0.94591814950E+02  0.47000000000E+01 0. -1.
        -11    1    6    6    0    0  0.42709631934E+00  0.16994491258E+03 -0.37492603644E+03  0.41164424996E+03  0.00000000000E+00 0.  1.
         12    1    6    6    0    0 -0.92216727705E+02  0.25118139909E+03 -0.49925120475E+03  0.56643427294E+03  0.00000000000E+00 0. -1.
         -5    1    3    3    0  503 -0.28373812682E+01 -0.19127805726E+03  0.40389303294E+02  0.19557282976E+03  0.47000000000E+01 0.  1.
         11    1    4    4    0    0  0.32289475772E+02 -0.38900092137E+02 -0.43216037631E+02  0.66509046922E+02  0.00000000000E+00 0. -1.
        -12    1    4    4    0    0  0.33335558831E+02 -0.20480769567E+03 -0.45721903460E+02  0.21248045591E+03  0.00000000000E+00 0.  1.
</event>
<event>
12    1  0.1066489E+000  0.3455472E+03  0.7818608E-02  0.1064525E+00
         21   -1    0    0  503  502  0.00000000000E+00  0.00000000000E+00  0.32849828281E+03  0.32849828281E+03  0.00000000000E+00 0. -1.
         21   -1    0    0  501  503 -0.00000000000E+00 -0.00000000000E+00 -0.49788759114E+03  0.49788759114E+03  0.00000000000E+00 0. -1.
          6    2    1    2  501    0 -0.22084854963E+03 -0.20266533317E+03  0.13058902076E+03  0.36879447741E+03  0.17061229464E+03 0.  0.
         24    2    3    3    0    0 -0.71936664007E+02 -0.15512971736E+03  0.92122025798E+02  0.20774732856E+03  0.73704627070E+02 0.  0.
         -6    2    1    2    0  502  0.22084854963E+03  0.20266533317E+03 -0.29997832909E+03  0.45759139654E+03  0.17191733224E+03 0.  0.
        -24    2    5    5    0    0  0.60194896001E+02  0.97635155284E+02 -0.19120011172E+03  0.23692031719E+03  0.80110579328E+02 0.  0.
          5    1    3    3  501    0 -0.14891188562E+03 -0.47535615811E+02  0.38466994964E+02  0.16104714885E+03  0.47000000000E+01 0. -1.
        -13    1    4    4    0    0 -0.43163157173E+02 -0.12564485643E+03  0.35119730400E+02  0.13741573253E+03  0.00000000000E+00 0.  1.
         14    1    4    4    0    0 -0.28773506835E+02 -0.29484860932E+02  0.57002295398E+02  0.70331596032E+02  0.00000000000E+00 0. -1.
         -5    1    5    5    0  502  0.16065365363E+03  0.10503017788E+03 -0.10877821736E+03  0.22067107936E+03  0.47000000000E+01 0.  1.
         11    1    6    6    0    0  0.35267180383E+02 -0.26219279389E+01 -0.63293807709E+02  0.72503480003E+02  0.00000000000E+00 0. -1.
        -12    1    6    6    0    0  0.24927715618E+02  0.10025708322E+03 -0.12790630402E+03  0.16441683718E+03  0.00000000000E+00 0.  1.
</event>
<event>
12    1  0.1066489E+000  0.2779568E+03  0.7818608E-02  0.1096815E+00
         21   -1    0    0  501  502  0.00000000000E+00  0.00000000000E+00  0.21203659373E+03  0.21203659373E+03  0.00000000000E+00 0.  1.
         21   -1    0    0  502  503 -0.00000000000E+00 -0.00000000000E+00 -0.11358155167E+04  0.11358155167E+04  0.00000000000E+00 0.  1.
         -6    2    1    2    0  503 -0.13546064717E+03  0.17099883432E+03  0.93542580118E+02  0.29324175299E+03  0.17219269187E+03 0.  0.
        -24    2    3    3    0    0 -0.21905199986E+02  0.22278102662E+02  0.54044312647E+02  0.10194382111E+03  0.80595305620E+02 0.  0.
          6    2    1    2  501    0  0.13546064717E+03 -0.17099883432E+03 -0.10173215031E+04  0.10546103574E+04  0.17224917159E+03 0.  0.
         24    2    5    5    0    0  0.16753858789E+03 -0.13892747424E+03 -0.84336212915E+03  0.87477287470E+03  0.81227334674E+02 0.  0.
          5    1    5    5  501    0 -0.32077940722E+02 -0.32071360072E+02 -0.17395937394E+03  0.17983748274E+03  0.47000000000E+01 0. -1.
        -13    1    6    6    0    0  0.11750581924E+03 -0.57480021710E+02 -0.38708406550E+03  0.40858982393E+03  0.00000000000E+00 0.  1.
         14    1    6    6    0    0  0.50032768644E+02 -0.81447452535E+02 -0.45627806365E+03  0.46618305077E+03  0.00000000000E+00 0. -1.
         -5    1    3    3    0  503 -0.11355544718E+03  0.14872073166E+03  0.39498267471E+02  0.19129793188E+03  0.47000000000E+01 0.  1.
         11    1    4    4    0    0 -0.50326697503E+02  0.14159518517E+02  0.49577422291E+02  0.72049908030E+02  0.00000000000E+00 0. -1.
        -12    1    4    4    0    0  0.28421497517E+02  0.81185841450E+01  0.44668903562E+01  0.29893913078E+02  0.00000000000E+00 0.  1.
</event>
<event>
12    1  0.1066489E+000  0.1756235E+03  0.7818608E-02  0.1172574E+00
         21   -1    0    0  503  502  0.00000000000E+00  0.00000000000E+00  0.30068459469E+02  0.30068459469E+02  0.00000000000E+00 0.  1.
         21   -1    0    0  501  503 -0.00000000000E+00 -0.00000000000E+00 -0.10277840392E+04  0.10277840392E+04  0.00000000000E+00 0.  1.
          6    2    1    2  501    0  0.12006882962E+02 -0.21840091539E+01 -0.43717099874E+03  0.47043967604E+03  0.17333802676E+03 0.  0.
         24    2    3    3    0    0 -0.29687805867E+02  0.22991610350E+02 -0.11422743714E+03  0.14381008021E+03  0.78888857329E+02 0.  0.
         -6    2    1    2    0  502 -0.12006882962E+02  0.21840091539E+01 -0.56054458103E+03  0.58741282267E+03  0.17519892059E+03 0.  0.
        -24    2    5    5    0    0 -0.70023184899E+02 -0.11529495428E+02 -0.44240580098E+03  0.45500129428E+03  0.79165076684E+02 0.  0.
          5    1    3    3  501    0  0.41694688828E+02 -0.25175619504E+02 -0.32294356160E+03  0.32662959583E+03  0.47000000000E+01 0. -1.
        -11    1    4    4    0    0 -0.52496199489E+02 -0.21918756123E+01 -0.78912490783E+02  0.94804200756E+02  0.00000000000E+00 0.  1.
         12    1    4    4    0    0  0.22808393622E+02  0.25183485963E+02 -0.35314946359E+02  0.49005879455E+02  0.00000000000E+00 0. -1.
         -5    1    5    5    0  502  0.58016301937E+02  0.13713504582E+02 -0.11813878005E+03  0.13241152839E+03  0.47000000000E+01 0.  1.
         11    1    6    6    0    0 -0.39021892265E+02  0.24315202732E+02 -0.10982231739E+03  0.11905829898E+03  0.00000000000E+00 0. -1.
        -12    1    6    6    0    0 -0.31001292634E+02 -0.35844698160E+02 -0.33258348359E+03  0.33594299530E+03  0.00000000000E+00 0.  1.
</event>
<event>
12    1  0.1066489E+000  0.2285982E+03  0.7818608E-02  0.1127720E+00
         21   -1    0    0  501  502  0.00000000000E+00  0.00000000000E+00  0.21747085397E+03  0.21747085397E+03  0.00000000000E+00 0. -1.
         21   -1    0    0  502  503 -0.00000000000E+00 -0.00000000000E+00 -0.24035877952E+03  0.24035877952E+03  0.00000000000E+00 0. -1.
         -6    2    1    2    0  503 -0.14809171038E+03 -0.26869804182E+02 -0.65511416795E-01  0.22809503001E+03  0.17138902347E+03 0.  0.
        -24    2    3    3    0    0 -0.34145413748E+02 -0.24171488060E+02  0.50702278296E+02  0.10323311469E+03  0.79600155960E+02 0.  0.
          6    2    1    2  501    0  0.14809171038E+03  0.26869804182E+02 -0.22822414134E+02  0.22973460348E+03  0.17205808435E+03 0.  0.
         24    2    5    5    0    0  0.16941256152E+02 -0.27342772729E+02 -0.64928325367E+01  0.86807382927E+02  0.80366233430E+02 0.  0.
          5    1    5    5  501    0  0.13115045423E+03  0.54212576911E+02 -0.16329581598E+02  0.14292722055E+03  0.47000000000E+01 0. -1.
        -11    1    6    6    0    0  0.13107637057E+02  0.97879964502E+01  0.30275027271E+02  0.34412095257E+02  0.00000000000E+00 0.  1.
         12    1    6    6    0    0  0.38336190949E+01 -0.37130769179E+02 -0.36767859807E+02  0.52395287670E+02  0.00000000000E+00 0. -1.
         -5    1    3    3    0  503 -0.11394629663E+03 -0.26983161223E+01 -0.50767789712E+02  0.12486191532E+03  0.47000000000E+01 0.  1.
         13    1    4    4    0    0 -0.49912299875E+02 -0.42516906833E+02  0.39795014905E+02  0.76697902558E+02  0.00000000000E+00 0. -1.
        -14    1    4    4    0    0  0.15766886127E+02  0.18345418774E+02  0.10907263391E+02  0.26535212130E+02  0.00000000000E+00 0.  1.
</event>
<event>
12    1  0.1066489E+000  0.6565755E+03  0.7818608E-02  0.9794547E-01
         21   -1    0    0  503  502  0.00000000000E+00  0.00000000000E+00  0.33205846645E+03  0.33205846645E+03  0.00000000000E+00 0.  1.
         21   -1    0    0  501  503 -0.00000000000E+00 -0.00000000000E+00 -0.18415293920E+04  0.18415293920E+04  0.00000000000E+00 0.  1.
          6    2    1    2  501    0 -0.50648417310E+02 -0.63159354971E+03 -0.16434383416E+03  0.67677183129E+03  0.17185907479E+03 0.  0.
         24    2    3    3    0    0 -0.51702197430E+01 -0.20225149008E+03  0.66936224123E+00  0.21454427304E+03  0.71389079239E+02 0.  0.
         -6    2    1    2    0  502  0.50648417310E+02  0.63159354971E+03 -0.13451270914E+04  0.14968160272E+04  0.17209198991E+03 0.  0.
        -24    2    5    5    0    0  0.10069134778E+02  0.21163011234E+03 -0.58507396102E+03  0.62749513252E+03  0.80931511439E+02 0.  0.
          5    1    3    3  501    0 -0.45478197567E+02 -0.42934205963E+03 -0.16501319641E+03  0.46222755825E+03  0.47000000000E+01 0. -1.
        -11    1    4    4    0    0 -0.32929035544E+02 -0.16389185699E+03  0.19110662916E+01  0.16717809170E+03  0.00000000000E+00 0.  1.
         12    1    4    4    0    0  0.27758815801E+02 -0.38359633089E+02 -0.12417040503E+01  0.47366181336E+02  0.00000000000E+00 0. -1.
         -5    1    5    5    0  502  0.40579282532E+02  0.41996343736E+03 -0.76005313037E+03  0.86932089465E+03  0.47000000000E+01 0.  1.
         13    1    6    6    0    0 -0.32874467250E+02  0.13193469963E+03 -0.36695240278E+03  0.39133305696E+03  0.00000000000E+00 0. -1.
        -14    1    6    6    0    0  0.42943602028E+02  0.79695412711E+02 -0.21812155824E+03  0.23616207555E+03  0.00000000000E+00 0.  1.
</event>
<event>
12    1  0.1066489E+000  0.1903265E+03  0.7818608E-02  0.1158207E+00
         21   -1    0    0  501  502  0.00000000000E+00  0.00000000000E+00  0.52570022695E+03  0.52570022695E+03  0.00000000000E+00 0. -1.
         21   -1    0    0  502  503 -0.00000000000E+00 -0.00000000000E+00 -0.17533981036E+03  0.17533981036E+03  0.00000000000E+00 0. -1.
         -6    2    1    2    0  503 -0.82106358500E+02 -0.69405533134E+01  0.44832370870E+03  0.48698168902E+03  0.17136916953E+03 0.  0.
        -24    2    3    3    0    0 -0.11238585230E+03 -0.11014631495E+02  0.42898639144E+03  0.45051982268E+03  0.78656752334E+02 0.  0.
          6    2    1    2  501    0  0.82106358500E+02  0.69405533134E+01 -0.97963292110E+02  0.21405834830E+03  0.17156498620E+03 0.  0.
         24    2    5    5    0    0  0.89378487555E+02  0.53369336728E+02 -0.10277237431E+03  0.16658484977E+03  0.79696619199E+02 0.  0.
          5    1    5    5  501    0 -0.72721290547E+01 -0.46428783415E+02  0.48090822041E+01  0.47473498523E+02  0.47000000000E+01 0. -1.
        -13    1    6    6    0    0  0.20891749434E+02  0.21491403042E+02 -0.83365180322E+02  0.88589496495E+02  0.00000000000E+00 0.  1.
         14    1    6    6    0    0  0.68486738121E+02  0.31877933686E+02 -0.19407193992E+02  0.77995353280E+02  0.00000000000E+00 0. -1.
         -5    1    3    3    0  503  0.30279493797E+02  0.40740781818E+01  0.19337317269E+02  0.36461866337E+02  0.47000000000E+01 0.  1.
         11    1    4    4    0    0  0.15442091326E+01 -0.19483132042E+02  0.32710120714E+02  0.38104186294E+02  0.00000000000E+00 0. -1.
        -12    1    4    4    0    0 -0.11393006143E+03  0.84685005471E+01  0.39627627072E+03  0.41241563639E+03  0.00000000000E+00 0.  1.
</event>
<event>
12    1  0.1066489E+000  0.2718696E+03  0.7818608E-02  0.1100490E+00
         21   -1    0    0  503  502  0.00000000000E+00  0.00000000000E+00  0.68338273134E+03  0.68338273134E+03  0.00000000000E+00 0. -1.
         21   -1    0    0  501  503 -0.00000000000E+00 -0.00000000000E+00 -0.11199953854E+03  0.11199953854E+03  0.00000000000E+00 0. -1.
          6    2    1    2  501    0 -0.19691040265E+03 -0.69019320362E+02  0.36736700495E+03  0.45702471993E+03  0.17428627327E+03 0.  0.
         24    2    3    3    0    0 -0.98587515427E+02 -0.10635373616E+03  0.24259535765E+03  0.29377245280E+03  0.80119480013E+02 0.  0.
         -6    2    1    2    0  502  0.19691040265E+03  0.69019320362E+02  0.20401618786E+03  0.33835754995E+03  0.17124792976E+03 0.  0.
        -24    2    5    5    0    0  0.24148375876E+02  0.17648973432E+02  0.98185387764E+02  0.12929325676E+03  0.78624077441E+02 0.  0.
          5    1    3    3  501    0 -0.98322887219E+02  0.37334415796E+02  0.12477164729E+03  0.16325226713E+03  0.47000000000E+01 0. -1.
        -13    1    4    4    0    0 -0.63638107032E+02 -0.24943018862E+02  0.15396278898E+03  0.16845326725E+03  0.00000000000E+00 0.  1.
         14    1    4    4    0    0 -0.34949408395E+02 -0.81410717297E+02  0.88632568671E+02  0.12531918555E+03  0.00000000000E+00 0. -1.
         -5    1    5    5    0  502  0.17276202677E+03  0.51370346931E+02  0.10583080009E+03  0.20906429319E+03  0.47000000000E+01 0.  1.
         11    1    6    6    0    0  0.23992204323E+02 -0.28904494497E+02  0.44381866028E+02  0.58145040223E+02  0.00000000000E+00 0. -1.
        -12    1    6    6    0    0  0.15617155303E+00  0.46553467928E+02  0.53803521736E+02  0.71148216541E+02  0.00000000000E+00 0.  1.
</event>
<event>
12    1  0.1066489E+000  0.1974382E+03  0.7818608E-02  0.1152377E+00
         21   -1    0    0  503  502  0.00000000000E+00  0.00000000000E+00  0.94729984944E+02  0.94729984944E+02  0.00000000000E+00 0.  1.
         21   -1    0    0  501  503 -0.00000000000E+00 -0.00000000000E+00 -0.55718256313E+03  0.55718256313E+03  0.00000000000E+00 0.  1.
          6    2    1    2  501    0  0.46769018264E+02  0.89282415211E+02 -0.61135438194E+02  0.20465726528E+03  0.16729723157E+03 0.  0.
         24    2    3    3    0    0 -0.19586111894E+01  0.23451448258E+02  0.23286686891E+02  0.86940302668E+02  0.80389923861E+02 0.  0.
         -6    2    1    2    0  502 -0.46769018264E+02 -0.89282415211E+02 -0.40131714000E+03  0.44725528280E+03  0.16977382131E+03 0.  0.
        -24    2    5    5    0    0 -0.87820051090E+02 -0.69216944360E+02 -0.21369132312E+03  0.25408865117E+03  0.79960704831E+02 0.  0.
          5    1    3    3  501    0  0.48727629454E+02  0.65830966954E+02 -0.84422125085E+02  0.11771696261E+03  0.47000000000E+01 0. -1.
        -11    1    4    4    0    0  0.27219236241E+02  0.41349890240E+02  0.14889770871E+02  0.51695314304E+02  0.00000000000E+00 0.  1.
         12    1    4    4    0    0 -0.29177847431E+02 -0.17898441983E+02  0.83969160205E+01  0.35244988363E+02  0.00000000000E+00 0. -1.
         -5    1    5    5    0  502  0.41051032825E+02 -0.20065470851E+02 -0.18762581688E+03  0.19316663163E+03  0.47000000000E+01 0.  1.
         11    1    6    6    0    0 -0.70696089749E+02 -0.13085387290E+02 -0.15611644987E+03  0.17187643930E+03  0.00000000000E+00 0. -1.
        -12    1    6    6    0    0 -0.17123961341E+02 -0.56131557070E+02 -0.57574873252E+02  0.82212211873E+02  0.00000000000E+00 0.  1.
</event>
<event>
12    1  0.1066489E+000  0.4312724E+03  0.7818608E-02  0.1033745E+00
         21   -1    0    0  501  502  0.00000000000E+00  0.00000000000E+00  0.19380553686E+04  0.19380553686E+04  0.00000000000E+00 0. -1.
         21   -1    0    0  502  503 -0.00000000000E+00 -0.00000000000E+00 -0.11401177721E+03  0.11401177721E+03  0.00000000000E+00 0. -1.
         -6    2    1    2    0  503 -0.17440172170E+02  0.39511273862E+03  0.49166565019E+03  0.65162905203E+03  0.16268704324E+03 0.  0.
        -24    2    3    3    0    0 -0.23050272241E+02  0.32980817796E+03  0.31776646327E+03  0.46572806742E+03  0.81377873540E+02 0.  0.
          6    2    1    2  501    0  0.17440172170E+02 -0.39511273862E+03  0.13323779412E+04  0.14004380938E+04  0.17198151216E+03 0.  0.
         24    2    5    5    0    0  0.18220475521E+02 -0.29673686457E+03  0.11744828887E+04  0.12143430668E+04  0.82669677003E+02 0.  0.
          5    1    5    5  501    0 -0.78030335085E+00 -0.98375874054E+02  0.15789505247E+03  0.18609502697E+03  0.47000000000E+01 0. -1.
        -11    1    6    6    0    0  0.32129032860E+02 -0.19708800122E+03  0.63848909682E+03  0.66898750492E+03  0.00000000000E+00 0.  1.
         12    1    6    6    0    0 -0.13908557339E+02 -0.99648863351E+02  0.53599379192E+03  0.54535556192E+03  0.00000000000E+00 0. -1.
         -5    1    3    3    0  503  0.56101000712E+01  0.65304560661E+02  0.17389918692E+03  0.18590098461E+03  0.47000000000E+01 0.  1.
         11    1    4    4    0    0 -0.63687797558E+01  0.48008737869E+01 -0.32451427833E+01  0.86104991946E+01  0.00000000000E+00 0. -1.
        -12    1    4    4    0    0 -0.16681492485E+02  0.32500730418E+03  0.32101160605E+03  0.45711756823E+03  0.00000000000E+00 0.  1.
</event>
<event>
12    1  0.1066489E+000  0.2588821E+03  0.7818608E-02  0.1107890E+00
         21   -1    0    0  501  502  0.00000000000E+00  0.00000000000E+00  0.66674829386E+02  0.66674829386E+02  0.00000000000E+00 0. -1.
         21   -1    0    0  502  503 -0.00000000000E+00 -0.00000000000E+00 -0.10033841134E+04  0.10033841134E+04  0.00000000000E+00 0.  1.
         -6    2    1    2    0  503 -0.19258044723E+03 -0.11096013753E+02 -0.47355041981E+03  0.53969430098E+03  0.17265453436E+03 0.  0.
        -24    2    3    3    0    0 -0.13561260094E+03 -0.42049468499E+02 -0.43418492567E+03  0.46369966959E+03  0.79636038103E+02 0.  0.
          6    2    1    2  501    0  0.19258044723E+03  0.11096013753E+02 -0.46315886420E+03  0.53036464180E+03  0.17193071165E+03 0.  0.
         24    2    5    5    0    0  0.17739926689E+03  0.55867453123E+02 -0.42017951767E+03  0.46630010989E+03  0.79330279285E+02 0.  0.
          5    1    5    5  501    0  0.15181180343E+02 -0.44771439370E+02 -0.42979346534E+02  0.64064531906E+02  0.47000000000E+01 0. -1.
        -11    1    6    6    0    0  0.86918514759E+02  0.12640488863E+02 -0.11271100202E+03  0.14289289745E+03  0.00000000000E+00 0.  1.
         12    1    6    6    0    0  0.90480752127E+02  0.43226964260E+02 -0.30746851565E+03  0.32340721244E+03  0.00000000000E+00 0. -1.
         -5    1    3    3    0  503 -0.56967846284E+02  0.30953454746E+02 -0.39365494137E+02  0.75994631387E+02  0.47000000000E+01 0.  1.
         11    1    4    4    0    0 -0.13345026787E+02  0.67500033963E+00 -0.32907926534E+01  0.13761347379E+02  0.00000000000E+00 0. -1.
        -12    1    4    4    0    0 -0.12226757416E+03 -0.42724468839E+02 -0.43089413302E+03  0.44993832221E+03  0.00000000000E+00 0.  1.
</event>
<event>
12    1  0.1066489E+000  0.1945202E+03  0.7818608E-02  0.1154612E+00
         21   -1    0    0  501  502  0.00000000000E+00  0.00000000000E+00  0.11807875937E+03  0.11807875937E+03  0.00000000000E+00 0.  1.
         21   -1    0    0  502  503 -0.00000000000E+00 -0.00000000000E+00 -0.34086048848E+03  0.34086048848E+03  0.00000000000E+00 0.  1.
         -6    2    1    2    0  503 -0.44239718283E+02  0.78050305256E+02 -0.53757933469E+02  0.20181186384E+03  0.17259522053E+03 0.  0.
        -24    2    3    3    0    0 -0.74563349142E+02  0.10330742997E+03 -0.60796283738E+02  0.16145008350E+03  0.78344260950E+02 0.  0.
          6    2    1    2  501    0  0.44239718283E+02 -0.78050305256E+02 -0.16902379564E+03  0.25712738401E+03  0.17174529190E+03 0.  0.
         24    2    5    5    0    0  0.75327164420E+01 -0.37956649019E+00 -0.13974083010E+02  0.79806626533E+02  0.78210848064E+02 0.  0.
          5    1    5    5  501    0  0.36707001841E+02 -0.77670738765E+02 -0.15504971263E+03  0.17732075748E+03  0.47000000000E+01 0. -1.
        -11    1    6    6    0    0 -0.22826822281E+01 -0.29481316096E+01 -0.46031351183E+02  0.46182111362E+02  0.00000000000E+00 0.  1.
         12    1    6    6    0    0  0.98153986701E+01  0.25685651194E+01  0.32057268172E+02  0.33624515171E+02  0.00000000000E+00 0. -1.
         -5    1    3    3    0  503  0.30323630859E+02 -0.25257124714E+02  0.70383502693E+01  0.40361780335E+02  0.47000000000E+01 0.  1.
         13    1    4    4    0    0 -0.87687499305E+02  0.66975025798E+02 -0.51234768526E+02  0.12165423593E+03  0.00000000000E+00 0. -1.
        -14    1    4    4    0    0  0.13124150162E+02  0.36332404171E+02 -0.95615152128E+01  0.39795847566E+02  0.00000000000E+00 0.  1.
</event>
<event>
12    1  0.1066489E+000  0.2334899E+03  0.7818608E-02  0.1124235E+00
         21   -1    0    0  501  502  0.00000000000E+00  0.00000000000E+00  0.89647104192E+02  0.89647104192E+02  0.00000000000E+00 0. -1.
         21   -1    0    0  502  503 -0.00000000000E+00 -0.00000000000E+00 -0.61435760234E+03  0.61435760234E+03  0.00000000000E+00 0. -1.
         -6    2    1    2    0  503  0.15733211805E+03 -0.39717304209E-01 -0.22584605061E+03  0.32484455290E+03  0.17252289130E+03 0.  0.
        -24    2    3    3    0    0  0.23629179506E+02 -0.42600877207E+02 -0.97255872215E+02  0.13446216903E+03  0.79045539767E+02 0.  0.
          6    2    1    2  501    0 -0.15733211805E+03  0.39717304209E-01 -0.29886444754E+03  0.37916015364E+03  0.17230515708E+03 0.  0.
         24    2    5    5    0    0 -0.16439057754E+03  0.40080250172E+02 -0.27416100257E+03  0.33135412561E+03  0.77463622337E+02 0.  0.
          5    1    5    5  501    0  0.70584594969E+01 -0.40040532868E+02 -0.24703444964E+02  0.47806028029E+02  0.47000000000E+01 0. -1.
        -11    1    6    6    0    0 -0.99228642510E+02  0.23019899575E+02 -0.92455308271E+02  0.13756534192E+03  0.00000000000E+00 0.  1.
         12    1    6    6    0    0 -0.65161935034E+02  0.17060350597E+02 -0.18170569430E+03  0.19378878368E+03  0.00000000000E+00 0. -1.
         -5    1    3    3    0  503  0.13370293854E+03  0.42561159903E+02 -0.12859017840E+03  0.19038238387E+03  0.47000000000E+01 0.  1.
         13    1    4    4    0    0 -0.19048868280E+01 -0.67498287313E+01  0.13537366681E+02  0.15246280805E+02  0.00000000000E+00 0. -1.
        -14    1    4    4    0    0  0.25534066334E+02 -0.35851048475E+02 -0.11079323890E+03  0.11921588823E+03  0.00000000000E+00 0.  1.
</event>
<event>
12    1  0.1066489E+000  0.2803286E+03  0.7818608E-02  0.1096009E+00
         21   -1    0    0  501  502  0.00000000000E+00  0.00000000000E+00  0.95248998680E+03  0.95248998680E+03  0.00000000000E+00 0. -1.
         21   -1    0    0  502  503 -0.00000000000E+00 -0.00000000000E+00 -0.93954439758E+02  0.93954439758E+02  0.00000000000E+00 0. -1.
         -6    2    1    2    0  503 -0.50906385279E+02 -0.20964638229E+03  0.62266512071E+03  0.68285867644E+03  0.17900015018E+03 0.  0.
        -24    2    3    3    0    0  0.60007422580E+01 -0.14511172942E+03  0.53305555723E+03  0.55854010802E+03  0.82008549871E+02 0.  0.
          6    2    1    2  501    0  0.50906385279E+02  0.20964638229E+03  0.23587042633E+03  0.36358575012E+03  0.17325320778E+03 0.  0.
         24    2    5    5    0    0  0.62610038067E+02  0.76964548063E+02  0.17773122734E+03  0.21817701214E+03  0.78544642906E+02 0.  0.
          5    1    5    5  501    0 -0.11703652788E+02  0.13268183422E+03  0.58139198986E+02  0.14540873798E+03  0.47000000000E+01 0. -1.
        -13    1    6    6    0    0  0.14326829756E+01  0.62589263504E+02  0.74396191126E+02  0.97233028034E+02  0.00000000000E+00 0.  1.
         14    1    6    6    0    0  0.61177355091E+02  0.14375284558E+02  0.10333503622E+03  0.12094398411E+03  0.00000000000E+00 0. -1.
         -5    1    3    3    0  503 -0.56907127537E+02 -0.64534652869E+02  0.89609563486E+02  0.12431856842E+03  0.47000000000E+01 0.  1.
         13    1    4    4    0    0 -0.33083813625E+02 -0.72861196630E+02  0.19792625691E+03  0.21349027115E+03  0.00000000000E+00 0. -1.
        -14    1    4    4    0    0  0.39084555883E+02 -0.72250532789E+02  0.33512930031E+03  0.34504983687E+03  0.00000000000E+00 0.  1.
</event>
<event>
12    1  0.1066489E+000  0.2621884E+03  0.7818608E-02  0.1106096E+00
         21   -1    0    0  503  502  0.00000000000E+00  0.00000000000E+00  0.34370618945E+02  0.34370618945E+02  0.00000000000E+00 0. -1.
         21   -1    0    0  501  503 -0.00000000000E+00 -0.00000000000E+00 -0.21151220302E+04  0.21151220302E+04  0.00000000000E+00 0. -1.
          6    2    1    2  501    0 -0.35437895564E+02 -0.19270373234E+03 -0.77884938456E+03  0.82179626729E+03  0.17421873666E+03 0.  0.
         24    2    3    3    0    0 -0.79133839187E+02 -0.15592724850E+03 -0.68780690349E+03  0.71421992875E+03  0.80351097172E+02 0.  0.
         -6    2    1    2    0  502  0.35437895564E+02  0.19270373234E+03 -0.13019020267E+04  0.13276963819E+04  0.17157570452E+03 0.  0.
        -24    2    5    5    0    0 -0.11412046240E+02  0.38194720390E+02 -0.64425093056E+03  0.65049995092E+03  0.80634069465E+02 0.  0.
          5    1    3    3  501    0  0.43695943623E+02 -0.36776483841E+02 -0.91042481073E+02  0.10757633854E+03  0.47000000000E+01 0. -1.
        -11    1    4    4    0    0 -0.13910778812E+02  0.68415993872E+00 -0.15498213125E+02  0.20836805227E+02  0.00000000000E+00 0.  1.
         12    1    4    4    0    0 -0.65223060376E+02 -0.15661140844E+03 -0.67230869036E+03  0.69338312353E+03  0.00000000000E+00 0. -1.
         -5    1    5    5    0  502  0.46849941805E+02  0.15450901195E+03 -0.65765109618E+03  0.67719643098E+03  0.47000000000E+01 0.  1.
         11    1    6    6    0    0 -0.42482149569E+02  0.29340669337E+02 -0.50088933232E+03  0.50354317704E+03  0.00000000000E+00 0. -1.
        -12    1    6    6    0    0  0.31070103329E+02  0.88540510525E+01 -0.14336159824E+03  0.14695677389E+03  0.00000000000E+00 0.  1.
</event>
<event>
12    1  0.1066489E+000  0.2146184E+03  0.7818608E-02  0.1138400E+00
         21   -1    0    0  501  502  0.00000000000E+00  0.00000000000E+00  0.77054814030E+02  0.77054814030E+02  0.00000000000E+00 0. -1.
         21   -1    0    0  502  503 -0.00000000000E+00 -0.00000000000E+00 -0.85900362898E+03  0.85900362898E+03  0.00000000000E+00 0. -1.
         -6    2    1    2    0  503 -0.68685730078E+02  0.10455885989E+03 -0.12834169324E+03  0.24811707640E+03  0.17158149282E+03 0.  0.
        -24    2    3    3    0    0 -0.89616979009E+02  0.10946618399E+03 -0.14731632411E+03  0.21905979456E+03  0.79189935470E+02 0.  0.
          6    2    1    2  501    0  0.68685730078E+02 -0.10455885989E+03 -0.65360712170E+03  0.68794136660E+03  0.17438683909E+03 0.  0.
         24    2    5    5    0    0  0.44024472330E+02 -0.96927421131E+02 -0.24955594024E+03  0.28303907748E+03  0.80621789514E+02 0.  0.
          5    1    5    5  501    0  0.24661257748E+02 -0.76314387625E+01 -0.40405118147E+03  0.40490228912E+03  0.47000000000E+01 0. -1.
        -11    1    6    6    0    0 -0.10069941454E+02 -0.41107753336E+02 -0.35277537248E+02  0.55097692688E+02  0.00000000000E+00 0.  1.
         12    1    6    6    0    0  0.54094413784E+02 -0.55819667795E+02 -0.21427840299E+03  0.22794138480E+03  0.00000000000E+00 0. -1.
         -5    1    3    3    0  503  0.20931248930E+02 -0.49073240975E+01  0.18974630864E+02  0.29057281842E+02  0.47000000000E+01 0.  1.
         13    1    4    4    0    0 -0.13052021576E+02  0.31688176744E+02  0.17438428603E+01  0.34315256090E+02  0.00000000000E+00 0. -1.
        -14    1    4    4    0    0 -0.76564957433E+02  0.77778007247E+02 -0.14906016697E+03  0.18474453847E+03  0.00000000000E+00 0.  1.
</event>
<event>
12    1  0.1066489E+000  0.1987560E+03  0.7818608E-02  0.1150837E+00
         21   -1    0    0  501  502  0.00000000000E+00  0.00000000000E+00  0.17393542572E+02  0.17393542572E+02  0.00000000000E+00 0.  1.
         21   -1    0    0  502  503 -0.00000000000E+00 -0.00000000000E+00 -0.24988115151E+04  0.24988115151E+04  0.00000000000E+00 0. -1.
         -6    2    1    2    0  503  0.73441130929E+02  0.67325039944E+02 -0.85961929135E+03  0.88229772274E+03  0.17198164080E+03 0.  0.
        -24    2    3    3    0    0  0.99642742148E+02  0.62193341170E+02 -0.82866415035E+03  0.84114958163E+03  0.83974143897E+02 0.  0.
          6    2    1    2  501    0 -0.73441130929E+02 -0.67325039944E+02 -0.16217986812E+04  0.16339073349E+04  0.17174386790E+03 0.  0.
         24    2    5    5    0    0 -0.12073123900E+02  0.16898732218E+02 -0.43571987711E+03  0.44325008133E+03  0.78660637071E+02 0.  0.
          5    1    5    5  501    0 -0.61368007029E+02 -0.84223772162E+02 -0.11860788041E+04  0.11906572536E+04  0.47000000000E+01 0. -1.
        -13    1    6    6    0    0 -0.40508202560E+02  0.11737454558E+01 -0.33441717141E+03  0.33686367671E+03  0.00000000000E+00 0.  1.
         14    1    6    6    0    0  0.28435078660E+02  0.15724986762E+02 -0.10130270570E+03  0.10638640463E+03  0.00000000000E+00 0. -1.
         -5    1    3    3    0  503 -0.26201611219E+02  0.51316987737E+01 -0.30955140999E+02  0.41148141113E+02  0.47000000000E+01 0.  1.
         11    1    4    4    0    0  0.22183682106E+02  0.28827020646E+02 -0.51691744681E+03  0.51819567702E+03  0.00000000000E+00 0. -1.
        -12    1    4    4    0    0  0.77459060042E+02  0.33366320525E+02 -0.31174670354E+03  0.32295390460E+03  0.00000000000E+00 0.  1.
</event>
<event>
12    1  0.1066489E+000  0.2359243E+03  0.7818608E-02  0.1123799E+00
         21   -1    0    0  503  502  0.00000000000E+00  0.00000000000E+00  0.22137867148E+03  0.22137867148E+03  0.00000000000E+00 0. -1.
         21   -1    0    0  501  503 -0.00000000000E+00 -0.00000000000E+00 -0.30365783190E+03  0.30365783190E+03  0.00000000000E+00 0. -1.
          6    2    1    2  501    0 -0.93147301049E+02 -0.11977408053E+03 -0.15723855496E+03  0.27749017777E+03  0.17103971917E+03 0.  0.
         24    2    3    3    0    0 -0.11986375533E+03 -0.12298702139E+03 -0.10058716610E+03  0.21459692076E+03  0.80255424385E+02 0.  0.
         -6    2    1    2    0  502  0.93147301049E+02  0.11977408053E+03  0.74959394536E+02  0.24754632560E+03  0.18065996355E+03 0.  0.
        -24    2    5    5    0    0  0.14026628781E+02  0.10483360094E+03  0.96715671639E+02  0.16400756631E+03  0.79735377752E+02 0.  0.
          5    1    3    3  501    0  0.26716454278E+02  0.32129408568E+01 -0.56651388862E+02  0.62893257016E+02  0.47000000000E+01 0. -1.
        -11    1    4    4    0    0 -0.39331007388E+01 -0.54493229361E+02 -0.34334639686E+02  0.64527891722E+02  0.00000000000E+00 0.  1.
         12    1    4    4    0    0 -0.11593065459E+03 -0.68493792030E+02 -0.66252526409E+02  0.15006902903E+03  0.00000000000E+00 0. -1.
         -5    1    5    5    0  502  0.79120672268E+02  0.14940479596E+02 -0.21756277102E+02  0.83538759292E+02  0.47000000000E+01 0.  1.
         13    1    6    6    0    0 -0.25162916706E+02  0.12070282708E+02  0.38942734810E+02  0.47910340182E+02  0.00000000000E+00 0. -1.
        -14    1    6    6    0    0  0.39189545487E+02  0.92763318230E+02  0.57772936828E+02  0.11609722613E+03  0.00000000000E+00 0.  1.
</event>
<event>
12    1  0.1066489E+000  0.1888381E+03  0.7818608E-02  0.1159516E+00
         21   -1    0    0  503  502  0.00000000000E+00  0.00000000000E+00  0.30109615702E+02  0.30109615702E+02  0.00000000000E+00 0.  1.
         21   -1    0    0  501  503 -0.00000000000E+00 -0.00000000000E+00 -0.11941994022E+04  0.11941994022E+04  0.00000000000E+00 0.  1.
          6    2    1    2  501    0  0.51625873856E+02  0.59757150339E+02 -0.52619870450E+03  0.55905352560E+03  0.17152148554E+03 0.  0.
         24    2    3    3    0    0 -0.11082541541E+02 -0.22407976533E+02 -0.27943461623E+03  0.29147538992E+03  0.79052248807E+02 0.  0.
         -6    2    1    2    0  502 -0.51625873856E+02 -0.59757150339E+02 -0.63789108200E+03  0.66525549230E+03  0.17153334858E+03 0.  0.
        -24    2    5    5    0    0 -0.18352623589E+02 -0.85103875774E+02 -0.28814506839E+03  0.31298580909E+03  0.85749914230E+02 0.  0.
          5    1    3    3  501    0  0.62708415397E+02  0.82165126872E+02 -0.24676408827E+03  0.26757813568E+03  0.47000000000E+01 0. -1.
        -11    1    4    4    0    0 -0.18402681435E+02 -0.38303828336E+02 -0.26610496496E+03  0.26947670460E+03  0.00000000000E+00 0.  1.
         12    1    4    4    0    0  0.73201398937E+01  0.15895851803E+02 -0.13329651277E+02  0.21998685319E+02  0.00000000000E+00 0. -1.
         -5    1    5    5    0  502 -0.33273250268E+02  0.25346725435E+02 -0.34974601361E+03  0.35226968321E+03  0.47000000000E+01 0.  1.
         13    1    6    6    0    0 -0.29685775563E+02  0.45466623055E+01 -0.97280290333E+02  0.10181047243E+03  0.00000000000E+00 0. -1.
        -14    1    6    6    0    0  0.11333151974E+02 -0.89650538080E+02 -0.19086477805E+03  0.21117533666E+03  0.00000000000E+00 0.  1.
</event>
<event>
12    1  0.1066489E+000  0.1854296E+03  0.7818608E-02  0.1162872E+00
         21   -1    0    0  503  502  0.00000000000E+00  0.00000000000E+00  0.56888677683E+03  0.56888677683E+03  0.00000000000E+00 0. -1.
         21   -1    0    0  501  503 -0.00000000000E+00 -0.00000000000E+00 -0.11574957019E+03  0.11574957019E+03  0.00000000000E+00 0. -1.
          6    2    1    2  501    0  0.30804970533E+02  0.59637317692E+02 -0.10418665203E+02  0.18572201468E+03  0.17285416477E+03 0.  0.
         24    2    3    3    0    0  0.60332949647E+02  0.95853242745E+02 -0.70716307251E+01  0.13863924269E+03  0.79642467909E+02 0.  0.
         -6    2    1    2    0  502 -0.30804970533E+02 -0.59637317692E+02  0.46355587185E+03  0.49891433235E+03  0.17183104734E+03 0.  0.
        -24    2    5    5    0    0  0.10907515280E+02  0.10254140839E+02  0.11190290311E+03  0.13793421119E+03  0.79243079191E+02 0.  0.
          5    1    3    3  501    0 -0.29527979114E+02 -0.36215925053E+02 -0.33470344775E+01  0.47082771985E+02  0.47000000000E+01 0. -1.
        -11    1    4    4    0    0  0.70421593245E+02  0.53057671506E+02  0.15004532883E+02  0.89439662946E+02  0.00000000000E+00 0.  1.
         12    1    4    4    0    0 -0.10088643598E+02  0.42795571239E+02 -0.22076163608E+02  0.49199579744E+02  0.00000000000E+00 0. -1.
         -5    1    5    5    0  502 -0.41712485812E+02 -0.69891458531E+02  0.35165296874E+03  0.36098012116E+03  0.47000000000E+01 0.  1.
         11    1    6    6    0    0  0.21634022180E+01  0.24378052344E+02  0.11779352576E+03  0.12030912042E+03  0.00000000000E+00 0. -1.
        -12    1    6    6    0    0  0.87441130615E+01 -0.14123911505E+02 -0.58906226545E+01  0.17625090771E+02  0.00000000000E+00 0.  1.
</event>
<event>
12    1  0.1066489E+000  0.1729837E+03  0.7818608E-02  0.1177934E+00
         21   -1    0    0  503  502  0.00000000000E+00  0.00000000000E+00  0.52737295058E+02  0.52737295058E+02  0.00000000000E+00 0. -1.
         21   -1    0    0  501  503 -0.00000000000E+00 -0.00000000000E+00 -0.57170958292E+03  0.57170958292E+03  0.00000000000E+00 0. -1.
          6    2    1    2  501    0  0.11265626534E+02  0.69932276531E+01 -0.18268803740E+03  0.25159151671E+03  0.17247478858E+03 0.  0.
         24    2    3    3    0    0  0.12331809076E+01  0.41564570074E+02 -0.29359751426E+02  0.94024131245E+02  0.79053197481E+02 0.  0.
         -6    2    1    2    0  502 -0.11265626534E+02 -0.69932276531E+01 -0.33628425046E+03  0.37285536127E+03  0.16049362525E+03 0.  0.
        -24    2    5    5    0    0 -0.41188853473E+02 -0.34412098278E+02 -0.12880438382E+03  0.16139099302E+03  0.81091116522E+02 0.  0.
          5    1    3    3  501    0  0.10032445626E+02 -0.34571342421E+02 -0.15332828598E+03  0.15756738547E+03  0.47000000000E+01 0. -1.
        -11    1    4    4    0    0  0.13219387947E+02 -0.21257662624E+02 -0.11965180351E+02  0.27745377611E+02  0.00000000000E+00 0.  1.
         12    1    4    4    0    0 -0.11986207040E+02  0.62822232698E+02 -0.17394571075E+02  0.66278753634E+02  0.00000000000E+00 0. -1.
         -5    1    5    5    0  502  0.29923226940E+02  0.27418870625E+02 -0.20747986664E+03  0.21146436825E+03  0.47000000000E+01 0.  1.
         13    1    6    6    0    0  0.17331708068E+02 -0.34541111759E+02 -0.48082288784E+02  0.61687786480E+02  0.00000000000E+00 0. -1.
        -14    1    6    6    0    0 -0.58520561542E+02  0.12901348041E+00 -0.80722095035E+02  0.99703206540E+02  0.00000000000E+00 0.  1.
</event>
<event>
12    1  0.1066489E+000  0.1739099E+03  0.7818608E-02  0.1174077E+00
         21   -1    0    0  503  502  0.00000000000E+00  0.00000000000E+00  0.97664876903E+02  0.97664876903E+02  0.00000000000E+00 0.  1.
         21   -1    0    0  501  503 -0.00000000000E+00 -0.00000000000E+00 -0.46503268501E+03  0.46503268501E+03  0.00000000000E+00 0.  1.
          6    2    1    2  501    0  0.27549424386E+02  0.68748006610E+01 -0.19827059235E+02  0.17407279631E+03  0.17059306102E+03 0.  0.
         24    2    3    3    0    0  0.77319281203E+01  0.80042395765E+01 -0.78807284784E+02  0.11166473756E+03  0.78323527217E+02 0.  0.
         -6    2    1    2    0  502 -0.27549424386E+02 -0.68748006610E+01 -0.34754074887E+03  0.38862476561E+03  0.17157622985E+03 0.  0.
        -24    2    5    5    0    0 -0.77725589333E+02  0.11397359654E+02 -0.28727510651E+03  0.30796773231E+03  0.78396238926E+02 0.  0.
          5    1    3    3  501    0  0.19817496266E+02 -0.11294389154E+01  0.58980225549E+02  0.62408058745E+02  0.47000000000E+01 0. -1.
        -13    1    4    4    0    0 -0.22767812705E+02 -0.83566868628E+01  0.14154457967E+01  0.24294258529E+02  0.00000000000E+00 0.  1.
         14    1    4    4    0    0  0.30499740825E+02  0.16360926439E+02 -0.80222730581E+02  0.87370479031E+02  0.00000000000E+00 0. -1.
         -5    1    5    5    0  502  0.50176164947E+02 -0.18272160316E+02 -0.60265642362E+02  0.80657033299E+02  0.47000000000E+01 0.  1.
         11    1    6    6    0    0 -0.82590993659E+02  0.30066021602E+02 -0.19799495420E+03  0.21662695995E+03  0.00000000000E+00 0. -1.
        -12    1    6    6    0    0  0.48654043263E+01 -0.18668661948E+02 -0.89280152313E+02  0.91340772360E+02  0.00000000000E+00 0.  1.
</event>
<event>
12    1  0.1066489E+000  0.1825998E+03  0.7818608E-02  0.1165439E+00
         21   -1    0    0  503  502  0.00000000000E+00  0.00000000000E+00  0.17479521779E+04  0.17479521779E+04  0.00000000000E+00 0. -1.
         21   -1    0    0  501  503 -0.00000000000E+00 -0.00000000000E+00 -0.60231338865E+02  0.60231338865E+02  0.00000000000E+00 0. -1.
          6    2    1    2  501    0 -0.83578634698E+01 -0.61470006138E+02  0.15921039945E+04  0.16025410482E+04  0.17173894784E+03 0.  0.
         24    2    3    3    0    0 -0.50522021267E+02 -0.87275305450E+02  0.12870253230E+04  0.12934475097E+04  0.80017653653E+02 0.  0.
         -6    2    1    2    0  502  0.83578634698E+01  0.61470006138E+02  0.95616844566E+02  0.20564246863E+03  0.17116608427E+03 0.  0.
        -24    2    5    5    0    0  0.64306659667E+01 -0.22861061232E+02  0.88629086942E+02  0.12087005702E+03  0.78679565627E+02 0.  0.
          5    1    3    3  501    0  0.42164157798E+02  0.25805299312E+02  0.30507867153E+03  0.30909353843E+03  0.47000000000E+01 0. -1.
        -11    1    4    4    0    0 -0.59668853518E+01 -0.81265240730E+02  0.70637865970E+03  0.71106290435E+03  0.00000000000E+00 0.  1.
         12    1    4    4    0    0 -0.44555135915E+02 -0.60100647201E+01  0.58064666327E+03  0.58238460538E+03  0.00000000000E+00 0. -1.
         -5    1    5    5    0  502  0.19271975031E+01  0.84331067369E+02  0.69877576235E+01  0.84772411612E+02  0.47000000000E+01 0.  1.
         11    1    6    6    0    0  0.33164921308E+02 -0.98754847778E+01  0.83924835051E+02  0.90778935570E+02  0.00000000000E+00 0. -1.
        -12    1    6    6    0    0 -0.26734255341E+02 -0.12985576454E+02  0.47042518917E+01  0.30091121454E+02  0.00000000000E+00 0.  1.
</event>
<event>
12    1  0.1066489E+000  0.2950801E+03  0.7818608E-02  0.1087802E+00
         21   -1    0    0  501  502  0.00000000000E+00  0.00000000000E+00  0.20282926026E+04  0.20282926026E+04  0.00000000000E+00 0.  1.
         21   -1    0    0  502  503 -0.00000000000E+00 -0.00000000000E+00 -0.42865374535E+02  0.42865374535E+02  0.00000000000E+00 0.  1.
         -6    2    1    2    0  503 -0.23078742914E+03 -0.63500811563E+02  0.96755357384E+03  0.10113754313E+04  0.17153761736E+03 0.  0.
        -24    2    3    3    0    0 -0.19641003510E+03 -0.41024502750E+01  0.84059631760E+03  0.86697942903E+03  0.80358131000E+02 0.  0.
          6    2    1    2  501    0  0.23078742914E+03  0.63500811563E+02  0.10178736542E+04  0.10597825459E+04  0.17256036067E+03 0.  0.
         24    2    5    5    0    0  0.32197717281E+02  0.32998391369E+01  0.35391358521E+03  0.36413386013E+03  0.79316204922E+02 0.  0.
          5    1    5    5  501    0  0.19858971186E+03  0.60200972426E+02  0.66396006899E+03  0.69564868573E+03  0.47000000000E+01 0. -1.
        -13    1    6    6    0    0 -0.64237831615E+00 -0.35099464825E+02  0.15012332651E+03  0.15417327344E+03  0.00000000000E+00 0.  1.
         14    1    6    6    0    0  0.32840095598E+02  0.38399303962E+02  0.20379025870E+03  0.20996058669E+03  0.00000000000E+00 0. -1.
         -5    1    3    3    0  503 -0.34377394045E+02 -0.59398361288E+02  0.12695725624E+03  0.14439600222E+03  0.47000000000E+01 0.  1.
         11    1    4    4    0    0 -0.10083727421E+03  0.35331958888E+02  0.36748897442E+03  0.38270700217E+03  0.00000000000E+00 0. -1.
        -12    1    4    4    0    0 -0.95572760890E+02 -0.39434409163E+02  0.47310734318E+03  0.48427242687E+03  0.00000000000E+00 0.  1.
</event>
<event>
12    1  0.1066489E+000  0.1716043E+03  0.7818608E-02  0.1176202E+00
         21   -1    0    0  501  502  0.00000000000E+00  0.00000000000E+00  0.64104156747E+03  0.64104156747E+03  0.00000000000E+00 0. -1.
         21   -1    0    0  502  503 -0.00000000000E+00 -0.00000000000E+00 -0.48419171552E+02  0.48419171552E+02  0.00000000000E+00 0. -1.
         -6    2    1    2    0  503 -0.83336962450E+01 -0.57494276044E+01  0.21793343504E+03  0.27734441518E+03  0.17123795174E+03 0.  0.
        -24    2    3    3    0    0 -0.21327922251E+02 -0.57995269244E+02  0.76289636617E+02  0.12574120444E+03  0.78564688736E+02 0.  0.
          6    2    1    2  501    0  0.83336962450E+01  0.57494276044E+01  0.37468896089E+03  0.41211632384E+03  0.17130540142E+03 0.  0.
         24    2    5    5    0    0  0.31467117971E+02 -0.31810756446E+02  0.35093760546E+03  0.36179595509E+03  0.75743029074E+02 0.  0.
          5    1    5    5  501    0 -0.23133421726E+02  0.37560184050E+02  0.23751355422E+02  0.50320368749E+02  0.47000000000E+01 0. -1.
        -13    1    6    6    0    0 -0.13901586167E+02 -0.23733567052E+01  0.11843572449E+02  0.18416219166E+02  0.00000000000E+00 0.  1.
         14    1    6    6    0    0  0.45368704138E+02 -0.29437399741E+02  0.33909403301E+03  0.34337973593E+03  0.00000000000E+00 0. -1.
         -5    1    3    3    0  503  0.12994226006E+02  0.52245841639E+02  0.14164379842E+03  0.15160321075E+03  0.47000000000E+01 0.  1.
         13    1    4    4    0    0 -0.19753527671E+02 -0.35021582586E+02  0.90257470314E+02  0.98808522152E+02  0.00000000000E+00 0. -1.
        -14    1    4    4    0    0 -0.15743945798E+01 -0.22973686657E+02 -0.13967833698E+02  0.26932682286E+02  0.00000000000E+00 0.  1.
</event>
<event>
12    1  0.1066489E+000  0.1905583E+03  0.7818608E-02  0.1158091E+00
         21   -1    0    0  501  502  0.00000000000E+00  0.00000000000E+00  0.13656349498E+03  0.13656349498E+03  0.00000000000E+00 0.  1.
         21   -1    0    0  502  503 -0.00000000000E+00 -0.00000000000E+00 -0.26772374972E+03  0.26772374972E+03  0.00000000000E+00 0.  1.
         -6    2    1    2    0  503  0.58360670615E+02  0.57243323147E+02 -0.45594807376E+02  0.19593707898E+03  0.17213275847E+03 0.  0.
        -24    2    3    3    0    0  0.91362921375E+02  0.78899920825E+02 -0.14819663434E+02  0.14566426065E+03  0.80162793719E+02 0.  0.
          6    2    1    2  501    0 -0.58360670615E+02 -0.57243323147E+02 -0.85565447367E+02  0.20835016573E+03  0.17148055241E+03 0.  0.
         24    2    5    5    0    0  0.18781035641E+02 -0.63007602189E+02 -0.79484791570E+02  0.13061256780E+03  0.80119445466E+02 0.  0.
          5    1    5    5  501    0 -0.77141706257E+02  0.57642790425E+01 -0.60806557973E+01  0.77737597930E+02  0.47000000000E+01 0. -1.
        -13    1    6    6    0    0 -0.32043938271E+01  0.10193757066E+02  0.87975246160E+01  0.13841143821E+02  0.00000000000E+00 0.  1.
         14    1    6    6    0    0  0.21985429468E+02 -0.73201359255E+02 -0.88282316186E+02  0.11677142397E+03  0.00000000000E+00 0. -1.
         -5    1    3    3    0  503 -0.33002250760E+02 -0.21656597678E+02 -0.30775143942E+02  0.50272818330E+02  0.47000000000E+01 0.  1.
         11    1    4    4    0    0  0.71333502514E+01  0.22719851438E+02  0.27105963317E+02  0.36080598422E+02  0.00000000000E+00 0. -1.
        -12    1    4    4    0    0  0.84229571124E+02  0.56180069387E+02 -0.41925626750E+02  0.10958366222E+03  0.00000000000E+00 0.  1.
</event>
<event>
12    1  0.1066489E+000  0.1794919E+03  0.7818608E-02  0.1168297E+00
         21   -1    0    0  503  502  0.00000000000E+00  0.00000000000E+00  0.86544175441E+03  0.86544175441E+03  0.00000000000E+00 0.  1.
         21   -1    0    0  501  503 -0.00000000000E+00 -0.00000000000E+00 -0.41162540295E+02  0.41162540295E+02  0.00000000000E+00 0.  1.
          6    2    1    2  501    0  0.25806445707E+02 -0.44774882894E+02  0.55234365449E+03  0.58077606713E+03  0.17189114206E+03 0.  0.
         24    2    3    3    0    0 -0.34516847930E+02  0.71399532807E+01  0.39392799137E+03  0.40342990198E+03  0.79586630199E+02 0.  0.
         -6    2    1    2    0  502 -0.25806445707E+02  0.44774882894E+02  0.27193555962E+03  0.32582822757E+03  0.17188461978E+03 0.  0.
        -24    2    5    5    0    0 -0.48131094019E+02  0.31390335566E+01  0.52074112696E+02  0.10089917272E+03  0.71711045866E+02 0.  0.
          5    1    3    3  501    0  0.60323293638E+02 -0.51914836174E+02  0.15841566312E+03  0.17734616515E+03  0.47000000000E+01 0. -1.
        -13    1    4    4    0    0  0.21331553587E+02  0.18711151892E+02  0.96606534436E+02  0.10068746138E+03  0.00000000000E+00 0.  1.
         14    1    4    4    0    0 -0.55848401517E+02 -0.11571198611E+02  0.29732145693E+03  0.30274244060E+03  0.00000000000E+00 0. -1.
         -5    1    5    5    0  502  0.22324648311E+02  0.41635849337E+02  0.21986144693E+03  0.22492905485E+03  0.47000000000E+01 0.  1.
         13    1    6    6    0    0 -0.19744898138E+01  0.86231439002E+01 -0.16109966415E+02  0.18379016259E+02  0.00000000000E+00 0. -1.
        -14    1    6    6    0    0 -0.46156604205E+02 -0.54841103436E+01  0.68184079111E+02  0.82520156460E+02  0.00000000000E+00 0.  1.
</event>
<event>
12    1  0.1066489E+000  0.2374332E+03  0.7818608E-02  0.1121551E+00
         21   -1    0    0  501  502  0.00000000000E+00  0.00000000000E+00  0.10230978034E+04  0.10230978034E+04  0.00000000000E+00 0.  1.
         21   -1    0    0  502  503 -0.00000000000E+00 -0.00000000000E+00 -0.90016454673E+02  0.90016454673E+02  0.00000000000E+00 0.  1.
         -6    2    1    2    0  503 -0.55206504648E+02 -0.15389579804E+03  0.81327841879E+03  0.84716823686E+03  0.17187367530E+03 0.  0.
        -24    2    3    3    0    0 -0.45990661609E+02 -0.13911918400E+03  0.39980895470E+03  0.43330549654E+03  0.80231943537E+02 0.  0.
          6    2    1    2  501    0  0.55206504648E+02  0.15389579804E+03  0.11980292991E+03  0.26594602119E+03  0.17217104682E+03 0.  0.
         24    2    5    5    0    0  0.10331550670E+03  0.11053480524E+03  0.10356818776E+03  0.19901091360E+03  0.77375300461E+02 0.  0.
          5    1    5    5  501    0 -0.48109002055E+02  0.43360992794E+02  0.16234742147E+02  0.66935107585E+02  0.47000000000E+01 0. -1.
        -11    1    6    6    0    0  0.30392056285E+02  0.52989130056E+02  0.84355430323E+02  0.10415067745E+03  0.00000000000E+00 0.  1.
         12    1    6    6    0    0  0.72923450418E+02  0.57545675187E+02  0.19212757438E+02  0.94860236148E+02  0.00000000000E+00 0. -1.
         -5    1    3    3    0  503 -0.92158430393E+01 -0.14776614034E+02  0.41346946409E+03  0.41386274032E+03  0.47000000000E+01 0.  1.
         11    1    4    4    0    0 -0.68492835546E+02 -0.94783241009E+02  0.26657571386E+03  0.29109747940E+03  0.00000000000E+00 0. -1.
        -12    1    4    4    0    0  0.22502173937E+02 -0.44335942994E+02  0.13323324084E+03  0.14220801714E+03  0.00000000000E+00 0.  1.
</event>
<event>
12    1  0.1066489E+000  0.2195654E+03  0.7818608E-02  0.1134563E+00
         21   -1    0    0  501  502  0.00000000000E+00  0.00000000000E+00  0.31806488174E+03  0.31806488174E+03  0.00000000000E+00 0. -1.
         21   -1    0    0  502  503 -0.00000000000E+00 -0.00000000000E+00 -0.16395907935E+03  0.16395907935E+03  0.00000000000E+00 0. -1.
         -6    2    1    2    0  503  0.10972233776E+03  0.73407443044E+02  0.14700655770E+03  0.26423457818E+03  0.17544611766E+03 0.  0.
        -24    2    3    3    0    0  0.27903445547E+02 -0.28896965744E+02  0.34225654635E+02  0.91312210404E+02  0.74517698777E+02 0.  0.
          6    2    1    2  501    0 -0.10972233776E+03 -0.73407443044E+02  0.70992446904E+01  0.21778938291E+03  0.17307273596E+03 0.  0.
         24    2    5    5    0    0 -0.76943239524E+02 -0.67234127823E+02  0.68352162015E+02  0.14788524152E+03  0.82203020352E+02 0.  0.
          5    1    5    5  501    0 -0.32779098239E+02 -0.61733152201E+01 -0.61252917324E+02  0.69904141386E+02  0.47000000000E+01 0. -1.
        -11    1    6    6    0    0 -0.38656321486E+02 -0.77558676818E+02  0.27415729380E+02  0.90891593440E+02  0.00000000000E+00 0.  1.
         12    1    6    6    0    0 -0.38286918038E+02  0.10324548994E+02  0.40936432635E+02  0.56993648082E+02  0.00000000000E+00 0. -1.
         -5    1    3    3    0  503  0.81818892217E+02  0.10230440879E+03  0.11278090306E+03  0.17292236777E+03  0.47000000000E+01 0.  1.
         11    1    4    4    0    0 -0.18266757255E+02 -0.26688307725E+01  0.33450696247E+02  0.38206624526E+02  0.00000000000E+00 0. -1.
        -12    1    4    4    0    0  0.46170202802E+02 -0.26228134972E+02  0.77495838777E+00  0.53105585877E+02  0.00000000000E+00 0.  1.
</event>
<event>
12    1  0.1066489E+000  0.2624163E+03  0.7818608E-02  0.1105769E+00
         21   -1    0    0  503  502  0.00000000000E+00  0.00000000000E+00  0.25343704604E+03  0.25343704604E+03  0.00000000000E+00 0.  1.
         21   -1    0    0  501  503 -0.00000000000E+00 -0.00000000000E+00 -0.33236645383E+03  0.33236645383E+03  0.00000000000E+00 0.  1.
          6    2    1    2  501    0 -0.18804199756E+03 -0.63178523935E+02  0.86126286809E+02  0.27618846155E+03  0.17178768955E+03 0.  0.
         24    2    3    3    0    0 -0.71696535112E+02  0.99464093968E+01  0.85116762008E+02  0.13868707375E+03  0.82157878761E+02 0.  0.
         -6    2    1    2    0  502  0.18804199756E+03  0.63178523935E+02 -0.16505569459E+03  0.30961503832E+03  0.17107533692E+03 0.  0.
        -24    2    5    5    0    0  0.14554853999E+03  0.78193670679E+02 -0.18573487672E+03  0.25980673437E+03  0.75521302739E+02 0.  0.
          5    1    3    3  501    0 -0.11634546245E+03 -0.73124933332E+02  0.10095248012E+01  0.13750138781E+03  0.47000000000E+01 0. -1.
        -13    1    4    4    0    0 -0.17998649940E+02 -0.25874188031E+00  0.81985638124E+02  0.83938448911E+02  0.00000000000E+00 0.  1.
         14    1    4    4    0    0 -0.53697885172E+02  0.10205151277E+02  0.31311238843E+01  0.54748624835E+02  0.00000000000E+00 0. -1.
         -5    1    5    5    0  502  0.42493457577E+02 -0.15015146744E+02  0.20679182131E+02  0.49808303948E+02  0.47000000000E+01 0.  1.
         13    1    6    6    0    0  0.58490100879E+02  0.45737996453E+02 -0.33496902706E+02  0.81456115248E+02  0.00000000000E+00 0. -1.
        -14    1    6    6    0    0  0.87058439109E+02  0.32455674226E+02 -0.15223797402E+03  0.17835061913E+03  0.00000000000E+00 0.  1.
</event>
<event>
12    1  0.1066489E+000  0.4350880E+03  0.7818608E-02  0.1032474E+00
         21   -1    0    0  503  502  0.00000000000E+00  0.00000000000E+00  0.10594651350E+03  0.10594651350E+03  0.00000000000E+00 0.  1.
         21   -1    0    0  501  503 -0.00000000000E+00 -0.00000000000E+00 -0.17758319961E+04  0.17758319961E+04  0.00000000000E+00 0.  1.
          6    2    1    2  501    0 -0.39362194054E+03 -0.51263330655E+02 -0.84395364493E+03  0.94950477089E+03  0.17814430671E+03 0.  0.
         24    2    3    3    0    0 -0.25742924494E+03 -0.95565637590E+02 -0.63378254496E+03  0.69513274807E+03  0.78272702136E+02 0.  0.
         -6    2    1    2    0  502  0.39362194054E+03  0.51263330655E+02 -0.82593183763E+03  0.93227373867E+03  0.17147816848E+03 0.  0.
        -24    2    5    5    0    0  0.21445353293E+03 -0.36752512712E+02 -0.47089775040E+03  0.52494168732E+03  0.80486140244E+02 0.  0.
          5    1    3    3  501    0 -0.13619269559E+03  0.44302306935E+02 -0.21017109996E+03  0.25437202282E+03  0.47000000000E+01 0. -1.
        -13    1    4    4    0    0 -0.48861660557E+02 -0.53179895672E+02 -0.14350494414E+03  0.16065251996E+03  0.00000000000E+00 0.  1.
         14    1    4    4    0    0 -0.20856758439E+03 -0.42385741918E+02 -0.49027760082E+03  0.53448022811E+03  0.00000000000E+00 0. -1.
         -5    1    5    5    0  502  0.17916840761E+03  0.88015843367E+02 -0.35503408723E+03  0.40733205135E+03  0.47000000000E+01 0.  1.
         13    1    6    6    0    0  0.18201162496E+03 -0.21737456086E+02 -0.31016799776E+03  0.36028452014E+03  0.00000000000E+00 0. -1.
        -14    1    6    6    0    0  0.32441907971E+02 -0.15015056625E+02 -0.16072975264E+03  0.16465716717E+03  0.00000000000E+00 0.  1.
</event>
<event>
12    1  0.1066489E+000  0.2198237E+03  0.7818608E-02  0.1134283E+00
         21   -1    0    0  501  502  0.00000000000E+00  0.00000000000E+00  0.75356810951E+03  0.75356810951E+03  0.00000000000E+00 0. -1.
         21   -1    0    0  502  503 -0.00000000000E+00 -0.00000000000E+00 -0.64590510066E+02  0.64590510066E+02  0.00000000000E+00 0.  1.
         -6    2    1    2    0  503  0.44405619908E+02  0.12664433448E+03  0.39120937310E+03  0.44803920347E+03  0.17228960420E+03 0.  0.
        -24    2    3    3    0    0  0.36888142384E+02  0.18841980604E+02  0.89135309035E+02  0.12718302051E+03  0.80713456790E+02 0.  0.
          6    2    1    2  501    0 -0.44405619908E+02 -0.12664433448E+03  0.29776822635E+03  0.37011941611E+03  0.17410289779E+03 0.  0.
         24    2    5    5    0    0 -0.56085790706E+02 -0.14950262164E+03  0.29377067451E+03  0.34371869447E+03  0.79653511750E+02 0.  0.
          5    1    5    5  501    0  0.11680170799E+02  0.22858287163E+02  0.39975518443E+01  0.26400721632E+02  0.47000000000E+01 0. -1.
        -11    1    6    6    0    0 -0.21183483897E+02 -0.12792245601E+03  0.17321670989E+03  0.21637218705E+03  0.00000000000E+00 0.  1.
         12    1    6    6    0    0 -0.34902306810E+02 -0.21580165629E+02  0.12055396462E+03  0.12734650743E+03  0.00000000000E+00 0. -1.
         -5    1    3    3    0  503  0.75174775232E+01  0.10780235387E+03  0.30207406406E+03  0.32085618296E+03  0.47000000000E+01 0.  1.
         11    1    4    4    0    0  0.22733116137E+02  0.44459084165E+02  0.23233642076E+02  0.55074557267E+02  0.00000000000E+00 0. -1.
        -12    1    4    4    0    0  0.14155026248E+02 -0.25617103561E+02  0.65901666959E+02  0.72108463241E+02  0.00000000000E+00 0.  1.
</event>
<event>
12    1  0.1066489E+000  0.1752095E+03  0.7818608E-02  0.1177306E+00
         21   -1    0    0  501  502  0.00000000000E+00  0.00000000000E+00  0.10916640197E+03  0.10916640197E+03  0.00000000000E+00 0.  1.
         21   -1    0    0  502  503 -0.00000000000E+00 -0.00000000000E+00 -0.41865656971E+03  0.41865656971E+03  0.00000000000E+00 0.  1.
         -6    2    1    2    0  503 -0.29390208488E+02  0.17508795979E+02  0.16169559048E+02  0.15802216518E+03  0.15342492547E+03 0.  0.
        -24    2    3    3    0    0 -0.35825748637E+02 -0.42542733620E+02  0.82537433917E+01  0.96929182588E+02  0.78954250728E+02 0.  0.
          6    2    1    2  501    0  0.29390208488E+02 -0.17508795979E+02 -0.32565972679E+03  0.36980080650E+03  0.17183723853E+03 0.  0.
         24    2    5    5    0    0 -0.34192887968E+02 -0.51053042429E+02 -0.15967942800E+03  0.18885999792E+03  0.79968821163E+02 0.  0.
          5    1    5    5  501    0  0.63583096456E+02  0.33544246450E+02 -0.16598029879E+03  0.18094080858E+03  0.47000000000E+01 0. -1.
        -13    1    6    6    0    0 -0.46799379746E+02 -0.28952891846E+02 -0.44122988040E+02  0.70535735372E+02  0.00000000000E+00 0.  1.
         14    1    6    6    0    0  0.12606491778E+02 -0.22100150583E+02 -0.11555643996E+03  0.11832426255E+03  0.00000000000E+00 0. -1.
         -5    1    3    3    0  503  0.64355401485E+01  0.60051529600E+02  0.79158156568E+01  0.61092982590E+02  0.47000000000E+01 0.  1.
         13    1    4    4    0    0 -0.21260273391E+02  0.14820611337E+02  0.24386800403E+02  0.35586033482E+02  0.00000000000E+00 0. -1.
        -14    1    4    4    0    0 -0.14565475246E+02 -0.57363344957E+02 -0.16133057012E+02  0.61343149107E+02  0.00000000000E+00 0.  1.
</event>
<event>
12    1  0.1066489E+000  0.3567899E+03  0.7818608E-02  0.1059980E+00
         21   -1    0    0  501  502  0.00000000000E+00  0.00000000000E+00  0.81455713721E+03  0.81455713721E+03  0.00000000000E+00 0.  1.
         21   -1    0    0  502  503 -0.00000000000E+00 -0.00000000000E+00 -0.15702146484E+03  0.15702146484E+03  0.00000000000E+00 0.  1.
         -6    2    1    2    0  503  0.97715277032E+02  0.29654320953E+03  0.28583303078E+03  0.45716468261E+03  0.17266405260E+03 0.  0.
        -24    2    3    3    0    0  0.13584122502E+03  0.25778947613E+03  0.24262004668E+03  0.38755942594E+03  0.80184594300E+02 0.  0.
          6    2    1    2  501    0 -0.97715277032E+02 -0.29654320953E+03  0.37170264160E+03  0.51441391944E+03  0.17021361948E+03 0.  0.
         24    2    5    5    0    0 -0.15194893341E+02 -0.58352359208E+02  0.13742589099E+03  0.17024509346E+03  0.80384287790E+02 0.  0.
          5    1    5    5  501    0 -0.82520383691E+02 -0.23819085032E+03  0.23427675061E+03  0.34416882598E+03  0.47000000000E+01 0. -1.
        -11    1    6    6    0    0 -0.13059176786E+02 -0.55848107944E+02  0.14823610570E+03  0.15894494737E+03  0.00000000000E+00 0.  1.
         12    1    6    6    0    0 -0.21357165548E+01 -0.25042512639E+01 -0.10810214712E+02  0.11300146093E+02  0.00000000000E+00 0. -1.
         -5    1    3    3    0  503 -0.38125947985E+02  0.38753733395E+02  0.43212984104E+02  0.69605256676E+02  0.47000000000E+01 0.  1.
         11    1    4    4    0    0  0.67396348447E+02  0.19223004500E+03  0.13613517670E+03  0.24500498836E+03  0.00000000000E+00 0. -1.
        -12    1    4    4    0    0  0.68444876570E+02  0.65559431132E+02  0.10648486998E+03  0.14255443758E+03  0.00000000000E+00 0.  1.
</event>
<event>
12    1  0.1066489E+000  0.4474475E+03  0.7818608E-02  0.1028578E+00
         21   -1    0    0  501  502  0.00000000000E+00  0.00000000000E+00  0.17757755750E+04  0.17757755750E+04  0.00000000000E+00 0.  1.
         21   -1    0    0  502  503 -0.00000000000E+00 -0.00000000000E+00 -0.11779267208E+03  0.11779267208E+03  0.00000000000E+00 0.  1.
         -6    2    1    2    0  503 -0.64864676367E+02  0.40681473597E+03  0.10297788140E+04  0.11223032573E+04  0.17150667607E+03 0.  0.
        -24    2    3    3    0    0  0.31151347204E+02  0.20911310011E+03  0.54977430321E+03  0.59435303807E+03  0.79404372192E+02 0.  0.
          6    2    1    2  501    0  0.64864676367E+02 -0.40681473597E+03  0.62820408890E+03  0.77126498976E+03  0.17465294580E+03 0.  0.
         24    2    5    5    0    0 -0.24117852942E+02 -0.16654275498E+03  0.21007898736E+03  0.28085780598E+03  0.80185822813E+02 0.  0.
          5    1    5    5  501    0  0.88982529310E+02 -0.24027198099E+03  0.41812510154E+03  0.49040718379E+03  0.47000000000E+01 0. -1.
        -11    1    6    6    0    0 -0.35735266594E+02 -0.15899284444E+03  0.21142356819E+03  0.26693755646E+03  0.00000000000E+00 0.  1.
         12    1    6    6    0    0  0.11617413652E+02 -0.75499105343E+01 -0.13445808251E+01  0.13920249518E+02  0.00000000000E+00 0. -1.
         -5    1    3    3    0  503 -0.96016023572E+02  0.19770163586E+03  0.48000451084E+03  0.52795021927E+03  0.47000000000E+01 0.  1.
         13    1    4    4    0    0 -0.21766562987E+02  0.10194954367E+03  0.29657900079E+03  0.31436697732E+03  0.00000000000E+00 0. -1.
        -14    1    4    4    0    0  0.52917910191E+02  0.10716355644E+03  0.25319530242E+03  0.27998606075E+03  0.00000000000E+00 0.  1.
</event>
<event>
12    1  0.1066489E+000  0.2061645E+03  0.7818608E-02  0.1144792E+00
         21   -1    0    0  501  502  0.00000000000E+00  0.00000000000E+00  0.17711199023E+03  0.17711199023E+03  0.00000000000E+00 0.  1.
         21   -1    0    0  502  503 -0.00000000000E+00 -0.00000000000E+00 -0.28209553696E+03  0.28209553696E+03  0.00000000000E+00 0.  1.
         -6    2    1    2    0  503  0.11141892514E+03  0.22576009019E+02 -0.14203483578E+03  0.24974007958E+03  0.17109167049E+03 0.  0.
        -24    2    3    3    0    0  0.10286185425E+03 -0.13365009149E+02 -0.33779554795E+02  0.13525743413E+03  0.79964558616E+02 0.  0.
          6    2    1    2  501    0 -0.11141892514E+03 -0.22576009019E+02  0.37051289040E+02  0.20946744761E+03  0.17198825694E+03 0.  0.
         24    2    5    5    0    0 -0.37052161172E+02  0.32914207014E+02  0.62256251317E+02  0.11320239797E+03  0.80515429624E+02 0.  0.
          5    1    5    5  501    0 -0.74366763968E+02 -0.55490216033E+02 -0.25204962277E+02  0.96265049638E+02  0.47000000000E+01 0. -1.
        -13    1    6    6    0    0  0.23303179122E+02  0.13749903747E+01  0.42077657698E+01  0.23719908274E+02  0.00000000000E+00 0.  1.
         14    1    6    6    0    0 -0.60355340294E+02  0.31539216639E+02  0.58048485547E+02  0.89482489698E+02  0.00000000000E+00 0. -1.
         -5    1    3    3    0  503  0.85570708874E+01  0.35941018169E+02 -0.10825528098E+03  0.11448264545E+03  0.47000000000E+01 0.  1.
         13    1    4    4    0    0  0.11186278302E+03 -0.41864327511E+01 -0.15645851324E+02  0.11302920467E+03  0.00000000000E+00 0. -1.
        -14    1    4    4    0    0 -0.90009287666E+01 -0.91785763983E+01 -0.18133703471E+02  0.22228229460E+02  0.00000000000E+00 0.  1.
</event>
<event>
12    1  0.1066489E+000  0.3053519E+03  0.7818608E-02  0.1082648E+00
         21   -1    0    0  503  502  0.00000000000E+00  0.00000000000E+00  0.93182753647E+03  0.93182753647E+03  0.00000000000E+00 0. -1.
         21   -1    0    0  501  503 -0.00000000000E+00 -0.00000000000E+00 -0.10248359591E+03  0.10248359591E+03  0.00000000000E+00 0. -1.
          6    2    1    2  501    0  0.15775090073E+03 -0.19694981230E+03  0.49674683629E+03  0.58309279516E+03  0.17194537842E+03 0.  0.
         24    2    3    3    0    0  0.17687625830E+03 -0.14814929711E+03  0.33878532686E+03  0.41659595421E+03  0.74453115333E+02 0.  0.
         -6    2    1    2    0  502 -0.15775090073E+03  0.19694981230E+03  0.33259710427E+03  0.45121833722E+03  0.17117996036E+03 0.  0.
        -24    2    5    5    0    0 -0.59731430864E+02  0.98181984033E+02  0.76119961110E+02  0.15938702407E+03  0.80015180681E+02 0.  0.
          5    1    3    3  501    0 -0.19125357578E+02 -0.48800515185E+02  0.15796150943E+03  0.16649684095E+03  0.47000000000E+01 0. -1.
        -11    1    4    4    0    0  0.12958986012E+02 -0.49393181133E+02  0.72594715143E+02  0.88755925592E+02  0.00000000000E+00 0.  1.
         12    1    4    4    0    0  0.16391727229E+03 -0.98756115977E+02  0.26619061172E+03  0.32784002862E+03  0.00000000000E+00 0. -1.
         -5    1    5    5    0  502 -0.98019469863E+02  0.98767828262E+02  0.25647714316E+03  0.29183131315E+03  0.47000000000E+01 0.  1.
         13    1    6    6    0    0 -0.30457929108E+02  0.37425967897E+01 -0.55024698002E+01  0.31176427797E+02  0.00000000000E+00 0. -1.
        -14    1    6    6    0    0 -0.29273501756E+02  0.94439387243E+02  0.81622430910E+02  0.12821059627E+03  0.00000000000E+00 0.  1.
</event>
<event>
12    1  0.1066489E+000  0.2331295E+03  0.7818608E-02  0.1124491E+00
         21   -1    0    0  501  502  0.00000000000E+00  0.00000000000E+00  0.44006100461E+03  0.44006100461E+03  0.00000000000E+00 0.  1.
         21   -1    0    0  502  503 -0.00000000000E+00 -0.00000000000E+00 -0.12368687932E+03  0.12368687932E+03  0.00000000000E+00 0.  1.
         -6    2    1    2    0  503 -0.10029211910E+03  0.12090699376E+03  0.17176043793E+03  0.28940783970E+03  0.17198325310E+03 0.  0.
        -24    2    3    3    0    0 -0.13483206339E+03  0.11890217296E+03  0.14160295381E+03  0.24327118500E+03  0.82535209892E+02 0.  0.
          6    2    1    2  501    0  0.10029211910E+03 -0.12090699376E+03  0.14461368737E+03  0.27434004424E+03  0.17225658479E+03 0.  0.
         24    2    5    5    0    0  0.42691824407E+02 -0.12474077642E+03  0.47736380396E+02  0.16146934634E+03  0.80067063263E+02 0.  0.
          5    1    5    5  501    0  0.57600294693E+02  0.38337826609E+01  0.96877306972E+02  0.11287069790E+03  0.47000000000E+01 0. -1.
        -11    1    6    6    0    0 -0.10336637248E+02 -0.39478147292E+01 -0.12287718600E+02  0.16535396552E+02  0.00000000000E+00 0.  1.
         12    1    6    6    0    0  0.53028461656E+02 -0.12079296169E+03  0.60024098996E+02  0.14493394978E+03  0.00000000000E+00 0. -1.
         -5    1    3    3    0  503  0.34539944290E+02  0.20048207991E+01  0.30157484116E+02  0.46136654692E+02  0.47000000000E+01 0.  1.
         13    1    4    4    0    0 -0.84936730055E+02  0.35175941348E+02  0.10398768248E+03  0.13879853410E+03  0.00000000000E+00 0. -1.
        -14    1    4    4    0    0 -0.49895333335E+02  0.83726231612E+02  0.37615271335E+02  0.10447265090E+03  0.00000000000E+00 0.  1.
</event>
<event>
12    1  0.1066489E+000  0.1970125E+03  0.7818608E-02  0.1152862E+00
         21   -1    0    0  503  502  0.00000000000E+00  0.00000000000E+00  0.45822424649E+03  0.45822424649E+03  0.00000000000E+00 0. -1.
         21   -1    0    0  501  503 -0.00000000000E+00 -0.00000000000E+00 -0.10254120201E+03  0.10254120201E+03  0.00000000000E+00 0. -1.
          6    2    1    2  501    0  0.86830212880E+02 -0.41530125992E+02  0.29747406738E+03  0.35533364836E+03  0.16883999425E+03 0.  0.
         24    2    3    3    0    0 -0.20467021187E+02 -0.23863809050E+02  0.15045506861E+03  0.17240887914E+03  0.78100663238E+02 0.  0.
         -6    2    1    2    0  502 -0.86830212880E+02  0.41530125992E+02  0.58208977097E+02  0.20543180014E+03  0.17190026835E+03 0.  0.
        -24    2    5    5    0    0 -0.13749158165E+02  0.44284867476E+02 -0.25800759098E+02  0.93950165174E+02  0.77529126969E+02 0.  0.
          5    1    3    3  501    0  0.10729723407E+03 -0.17666316942E+02  0.14701899877E+03  0.18292476921E+03  0.47000000000E+01 0. -1.
        -13    1    4    4    0    0 -0.14997278728E+02  0.47814720464E+01 -0.31557766588E+01  0.16054275770E+02  0.00000000000E+00 0.  1.
         14    1    4    4    0    0 -0.54697424587E+01 -0.28645281097E+02  0.15361084527E+03  0.15635460337E+03  0.00000000000E+00 0. -1.
         -5    1    5    5    0  502 -0.73081054714E+02 -0.27547414844E+01  0.84009736196E+02  0.11148163497E+03  0.47000000000E+01 0.  1.
         11    1    6    6    0    0  0.16850405945E+02 -0.15064220028E+02 -0.69417815854E+00  0.22613022550E+02  0.00000000000E+00 0. -1.
        -12    1    6    6    0    0 -0.30599564110E+02  0.59349087504E+02 -0.25106580940E+02  0.71337142624E+02  0.00000000000E+00 0.  1.
</event>
<event>
12    1  0.1066489E+000  0.2120840E+03  0.7818608E-02  0.1141553E+00
         21   -1    0    0  501  502  0.00000000000E+00  0.00000000000E+00  0.14369060652E+03  0.14369060652E+03  0.00000000000E+00 0.  1.
         21   -1    0    0  502  503 -0.00000000000E+00 -0.00000000000E+00 -0.33001123982E+03  0.33001123982E+03  0.00000000000E+00 0.  1.
         -6    2    1    2    0  503 -0.32434625829E+02 -0.10266285979E+03 -0.21428138509E+02  0.20505867423E+03  0.17319996254E+03 0.  0.
        -24    2    3    3    0    0  0.21352255874E+02  0.49734705277E+01 -0.10163535228E+02  0.84114102067E+02  0.80568172861E+02 0.  0.
          6    2    1    2  501    0  0.32434625829E+02  0.10266285979E+03 -0.16489249479E+03  0.26864317212E+03  0.18272370222E+03 0.  0.
         24    2    5    5    0    0 -0.13773591173E+02 -0.93445048789E+01 -0.23384871355E+02  0.82290424484E+02  0.77122176890E+02 0.  0.
          5    1    5    5  501    0  0.46208217002E+02  0.11200736467E+03 -0.14150762344E+03  0.18635274763E+03  0.47000000000E+01 0. -1.
        -11    1    6    6    0    0  0.84025402274E+01 -0.27849666775E+02 -0.39623870234E+02  0.49155444399E+02  0.00000000000E+00 0.  1.
         12    1    6    6    0    0 -0.22176131400E+02  0.18505161896E+02  0.16238998879E+02  0.33134980085E+02  0.00000000000E+00 0. -1.
         -5    1    3    3    0  503 -0.53786881703E+02 -0.10763633032E+03 -0.11264603281E+02  0.12094457216E+03  0.47000000000E+01 0.  1.
         13    1    4    4    0    0 -0.28657077537E+02  0.15217555246E+02 -0.35946187690E+01  0.32645418740E+02  0.00000000000E+00 0. -1.
        -14    1    4    4    0    0  0.50009333411E+02 -0.10244084718E+02 -0.65689164594E+01  0.51468683326E+02  0.00000000000E+00 0.  1.
</event>
<event>
12    1  0.1066489E+000  0.1800802E+03  0.7818608E-02  0.1167758E+00
         21   -1    0    0  503  502  0.00000000000E+00  0.00000000000E+00  0.10864428169E+04  0.10864428169E+04  0.00000000000E+00 0.  1.
         21   -1    0    0  501  503 -0.00000000000E+00 -0.00000000000E+00 -0.30561791373E+02  0.30561791373E+02  0.00000000000E+00 0.  1.
          6    2    1    2  501    0 -0.49201439262E+02 -0.17839651930E+02  0.61477649502E+03  0.64060831148E+03  0.17230738550E+03 0.  0.
         24    2    3    3    0    0 -0.12573438639E+02 -0.39136610494E+02  0.57808750744E+03  0.58436471021E+03  0.74881123406E+02 0.  0.
         -6    2    1    2    0  502  0.49201439262E+02  0.17839651930E+02  0.44110453055E+03  0.47639629684E+03  0.17216616963E+03 0.  0.
        -24    2    5    5    0    0 -0.34818839339E+02  0.10442613123E+02  0.29247222471E+03  0.30543496865E+03  0.80181781605E+02 0.  0.
          5    1    3    3  501    0 -0.36628000623E+02  0.21296958564E+02  0.36688987584E+02  0.56243601268E+02  0.47000000000E+01 0. -1.
        -13    1    4    4    0    0  0.52705076733E+01  0.20204747003E+02  0.91788976181E+02  0.94134086286E+02  0.00000000000E+00 0.  1.
         14    1    4    4    0    0 -0.17843946313E+02 -0.59341357497E+02  0.48629853126E+03  0.49023062393E+03  0.00000000000E+00 0. -1.
         -5    1    5    5    0  502  0.84020278601E+02  0.73970388073E+01  0.14863230583E+03  0.17096132819E+03  0.47000000000E+01 0.  1.
         11    1    6    6    0    0 -0.37924233102E+01  0.17782841693E+02  0.25738240335E+03  0.25802386224E+03  0.00000000000E+00 0. -1.
        -12    1    6    6    0    0 -0.31026416029E+02 -0.73402285708E+01  0.35089821368E+02  0.47411106407E+02  0.00000000000E+00 0.  1.
</event>
<event>
12    1  0.1066489E+000  0.2044865E+03  0.7818608E-02  0.1146098E+00
         21   -1    0    0  501  502  0.00000000000E+00  0.00000000000E+00  0.31665359542E+03  0.31665359542E+03  0.00000000000E+00 0.  1.
         21   -1    0    0  502  503 -0.00000000000E+00 -0.00000000000E+00 -0.13262399233E+03  0.13262399233E+03  0.00000000000E+00 0.  1.
         -6    2    1    2    0  503 -0.10180450292E+03  0.40983892930E+02  0.73894503125E+02  0.21701809519E+03  0.17202505560E+03 0.  0.
        -24    2    3    3    0    0 -0.29940422783E+02 -0.34156579383E+02  0.64174683031E+02  0.11248531805E+03  0.80445360365E+02 0.  0.
          6    2    1    2  501    0  0.10180450292E+03 -0.40983892930E+02  0.11013509997E+03  0.23225949256E+03  0.17254244505E+03 0.  0.
         24    2    5    5    0    0  0.38345717326E+02 -0.33560212585E+02  0.13360054493E+03  0.16403306362E+03  0.80380709425E+02 0.  0.
          5    1    5    5  501    0  0.63458785594E+02 -0.74236803448E+01 -0.23465444964E+02  0.68226428943E+02  0.47000000000E+01 0. -1.
        -11    1    6    6    0    0  0.37196715397E+02 -0.21563846884E+01  0.13088477830E+02  0.39491187411E+02  0.00000000000E+00 0.  1.
         12    1    6    6    0    0  0.11490019293E+01 -0.31403827896E+02  0.12051206710E+03  0.12454187620E+03  0.00000000000E+00 0. -1.
         -5    1    3    3    0  503 -0.71864080138E+02  0.75140472313E+02  0.97198200944E+01  0.10453277714E+03  0.47000000000E+01 0.  1.
         11    1    4    4    0    0  0.14650053314E+02 -0.11592125020E+02 -0.11397498496E+02  0.21883884402E+02  0.00000000000E+00 0. -1.
        -12    1    4    4    0    0 -0.44590476097E+02 -0.22564454363E+02  0.75572181526E+02  0.90601433652E+02  0.00000000000E+00 0.  1.
</event>
<event>
12    1  0.1066489E+000  0.4843987E+03  0.7818608E-02  0.1017976E+00
         21   -1    0    0  501  502  0.00000000000E+00  0.00000000000E+00  0.19897334247E+04  0.19897334247E+04  0.00000000000E+00 0. -1.
         21   -1    0    0  502  503 -0.00000000000E+00 -0.00000000000E+00 -0.12117192923E+03  0.12117192923E+03  0.00000000000E+00 0. -1.
         -6    2    1    2    0  503 -0.31133445723E+03 -0.32875252631E+03  0.75690840795E+03  0.89829878587E+03  0.17036138898E+03 0.  0.
        -24    2    3    3    0    0 -0.18496337707E+03 -0.27969142849E+03  0.58878320038E+03  0.68227837795E+03  0.79996136992E+02 0.  0.
          6    2    1    2  501    0  0.31133445723E+03  0.32875252631E+03  0.11116530875E+04  0.12126065681E+04  0.17214741964E+03 0.  0.
         24    2    5    5    0    0  0.28706650861E+03  0.34220743401E+03  0.10704561700E+04  0.11627142451E+04  0.80714904104E+02 0.  0.
          5    1    5    5  501    0  0.24267948623E+02 -0.13454907701E+02  0.41196917565E+02  0.49892322941E+02  0.47000000000E+01 0. -1.
        -13    1    6    6    0    0  0.22452890235E+03  0.20990880096E+03  0.74118317427E+03  0.80238857827E+03  0.00000000000E+00 0.  1.
         14    1    6    6    0    0  0.62537606256E+02  0.13229863305E+03  0.32927299570E+03  0.36032566687E+03  0.00000000000E+00 0. -1.
         -5    1    3    3    0  503 -0.12637108016E+03 -0.49061097820E+02  0.16812520756E+03  0.21602040792E+03  0.47000000000E+01 0.  1.
         11    1    4    4    0    0 -0.73395374406E+02 -0.89400653437E+02  0.13538864349E+03  0.17807145365E+03  0.00000000000E+00 0. -1.
        -12    1    4    4    0    0 -0.11156800267E+03 -0.19029077505E+03  0.45339455689E+03  0.50420692430E+03  0.00000000000E+00 0.  1.
</event>
<event>
12    1  0.1066489E+000  0.1930582E+03  0.7818608E-02  0.1156880E+00
         21   -1    0    0  503  502  0.00000000000E+00  0.00000000000E+00  0.33226586908E+03  0.33226586908E+03  0.00000000000E+00 0.  1.
         21   -1    0    0  501  503 -0.00000000000E+00 -0.00000000000E+00 -0.11321977030E+03  0.11321977030E+03  0.00000000000E+00 0.  1.
          6    2    1    2  501    0  0.56694982079E+02 -0.59069351267E+02  0.69061175268E+02  0.20503881917E+03  0.17483695887E+03 0.  0.
         24    2    3    3    0    0 -0.38336737089E+01 -0.65624886876E+02  0.92594312314E+02  0.13959730515E+03  0.81193460940E+02 0.  0.
         -6    2    1    2    0  502 -0.56694982079E+02  0.59069351267E+02  0.14998492351E+03  0.24044682020E+03  0.16916171793E+03 0.  0.
        -24    2    5    5    0    0 -0.32325999752E+02  0.10251473654E+03  0.79967565816E+02  0.15438946038E+03  0.76727129653E+02 0.  0.
          5    1    3    3  501    0  0.60528655788E+02  0.65555356093E+01 -0.23533137047E+02  0.65441514025E+02  0.47000000000E+01 0. -1.
        -11    1    4    4    0    0  0.12758848387E+02 -0.38643060706E+02  0.99215688385E+02  0.10723724714E+03  0.00000000000E+00 0.  1.
         12    1    4    4    0    0 -0.16592522096E+02 -0.26981826170E+02 -0.66213760704E+01  0.32360058004E+02  0.00000000000E+00 0. -1.
         -5    1    5    5    0  502 -0.24368982326E+02 -0.43445385275E+02  0.70017357698E+02  0.86057359827E+02  0.47000000000E+01 0.  1.
         13    1    6    6    0    0 -0.15769380931E+02  0.91054551815E+02  0.92435899917E+02  0.13070577789E+03  0.00000000000E+00 0. -1.
        -14    1    6    6    0    0 -0.16556618821E+02  0.11460184727E+02 -0.12468334101E+02  0.23683682484E+02  0.00000000000E+00 0.  1.
</event>
<event>
12    1  0.1066489E+000  0.2133156E+03  0.7818608E-02  0.1139341E+00
         21   -1    0    0  501  502  0.00000000000E+00  0.00000000000E+00  0.27803189711E+03  0.27803189711E+03  0.00000000000E+00 0. -1.
         21   -1    0    0  502  503 -0.00000000000E+00 -0.00000000000E+00 -0.16385602494E+03  0.16385602494E+03  0.00000000000E+00 0. -1.
         -6    2    1    2    0  503 -0.11214354682E+03 -0.54389671349E+02  0.35085871072E+02  0.21618178434E+03  0.17311595561E+03 0.  0.
        -24    2    3    3    0    0 -0.18964080243E+02 -0.59932861647E+02 -0.25275746729E+02  0.10492193150E+03  0.80113445138E+02 0.  0.
          6    2    1    2  501    0  0.11214354682E+03  0.54389671349E+02  0.79090001089E+02  0.22570613771E+03  0.17074431435E+03 0.  0.
         24    2    5    5    0    0  0.63502118143E+00  0.54615200833E+02  0.20945487643E+02  0.99860690442E+02  0.80933433320E+02 0.  0.
          5    1    5    5  501    0  0.11150852564E+03 -0.22552948453E+00  0.58144513446E+02  0.12584544727E+03  0.47000000000E+01 0. -1.
        -13    1    6    6    0    0  0.28054385821E+02 -0.42406015141E+01 -0.69194272597E+01  0.29204618447E+02  0.00000000000E+00 0.  1.
         14    1    6    6    0    0 -0.27419364640E+02  0.58855802347E+02  0.27864914903E+02  0.70656071995E+02  0.00000000000E+00 0. -1.
         -5    1    3    3    0  503 -0.93179466581E+02  0.55431902984E+01  0.60361617801E+02  0.11125985284E+03  0.47000000000E+01 0.  1.
         13    1    4    4    0    0 -0.41894877689E+02 -0.14477143185E+02 -0.30405758672E+02  0.53752010305E+02  0.00000000000E+00 0. -1.
        -14    1    4    4    0    0  0.22930797445E+02 -0.45455718462E+02  0.51300119435E+01  0.51169921194E+02  0.00000000000E+00 0.  1.
</event>
<event>
12    1  0.1066489E+000  0.3082309E+03  0.7818608E-02  0.1081350E+00
         21   -1    0    0  503  502  0.00000000000E+00  0.00000000000E+00  0.85551012928E+02  0.85551012928E+02  0.00000000000E+00 0. -1.
         21   -1    0    0  501  503 -0.00000000000E+00 -0.00000000000E+00 -0.16159335111E+04  0.16159335111E+04  0.00000000000E+00 0.  1.
          6    2    1    2  501    0 -0.22035026855E+03  0.12358637282E+03 -0.12441808451E+04  0.12817925975E+04  0.17657422079E+03 0.  0.
         24    2    3    3    0    0 -0.17120730834E+03  0.41679125391E+02 -0.10204349964E+04  0.10384654052E+04  0.77934100658E+02 0.  0.
         -6    2    1    2    0  502  0.22035026855E+03 -0.12358637282E+03 -0.28620165310E+03  0.41969192650E+03  0.17436196412E+03 0.  0.
        -24    2    5    5    0    0  0.39485080791E+02 -0.43217708329E+01 -0.10956306315E+03  0.14012164393E+03  0.77796278731E+02 0.  0.
          5    1    3    3  501    0 -0.49142960215E+02  0.81907247427E+02 -0.22374584868E+03  0.24332719231E+03  0.47000000000E+01 0. -1.
        -11    1    4    4    0    0 -0.42702311566E+02 -0.61596403071E+00 -0.10939953501E+03  0.11743987860E+03  0.00000000000E+00 0.  1.
         12    1    4    4    0    0 -0.12850499677E+03  0.42295089422E+02 -0.91103546138E+03  0.92102552661E+03  0.00000000000E+00 0. -1.
         -5    1    5    5    0  502  0.18086518776E+03 -0.11926460198E+03 -0.17663858995E+03  0.27957028256E+03  0.47000000000E+01 0.  1.
         13    1    6    6    0    0  0.54232692982E+02  0.18758714203E+02 -0.57180213926E+02  0.81010192021E+02  0.00000000000E+00 0. -1.
        -14    1    6    6    0    0 -0.14747612191E+02 -0.23080485036E+02 -0.52382849220E+02  0.59111451913E+02  0.00000000000E+00 0.  1.
</event>
<event>
12    1  0.1066489E+000  0.3115465E+03  0.7818608E-02  0.1079810E+00
         21   -1    0    0  501  502  0.00000000000E+00  0.00000000000E+00  0.10593475697E+03  0.10593475697E+03  0.00000000000E+00 0.  1.
         21   -1    0    0  502  503 -0.00000000000E+00 -0.00000000000E+00 -0.91160076177E+03  0.91160076177E+03  0.00000000000E+00 0. -1.
         -6    2    1    2    0  503  0.20015931146E+03 -0.16385631033E+03 -0.39155930977E+03  0.49932171501E+03  0.17056037529E+03 0.  0.
        -24    2    3    3    0    0  0.12458205760E+03 -0.16874946168E+03 -0.34088951788E+03  0.40807818351E+03  0.79530312265E+02 0.  0.
          6    2    1    2  501    0 -0.20015931146E+03  0.16385631033E+03 -0.41410669503E+03  0.51821380373E+03  0.17363338133E+03 0.  0.
         24    2    5    5    0    0 -0.58603037639E+02  0.37286481803E+02 -0.80120707226E+02  0.13399143296E+03  0.81913238462E+02 0.  0.
          5    1    5    5  501    0 -0.14155627382E+03  0.12656982853E+03 -0.33398598781E+03  0.38422237077E+03  0.47000000000E+01 0. -1.
        -13    1    6    6    0    0 -0.78356324862E+02  0.19337651277E+02 -0.59954729941E+02  0.10053968393E+03  0.00000000000E+00 0.  1.
         14    1    6    6    0    0  0.19753287223E+02  0.17948830526E+02 -0.20165977286E+02  0.33451749031E+02  0.00000000000E+00 0. -1.
         -5    1    3    3    0  503  0.75577253852E+02  0.48931513452E+01 -0.50669791891E+02  0.91243531498E+02  0.47000000000E+01 0.  1.
         13    1    4    4    0    0  0.95932231397E+02 -0.66593845032E+02 -0.15538866827E+03  0.19437945222E+03  0.00000000000E+00 0. -1.
        -14    1    4    4    0    0  0.28649826206E+02 -0.10215561664E+03 -0.18550084960E+03  0.21369873129E+03  0.00000000000E+00 0.  1.
</event>
<event>
12    1  0.1066489E+000  0.2121892E+03  0.7818608E-02  0.1141911E+00
         21   -1    0    0  501  502  0.00000000000E+00  0.00000000000E+00  0.16720192223E+03  0.16720192223E+03  0.00000000000E+00 0.  1.
         21   -1    0    0  502  503 -0.00000000000E+00 -0.00000000000E+00 -0.25642420204E+03  0.25642420204E+03  0.00000000000E+00 0.  1.
         -6    2    1    2    0  503 -0.64536123687E+02 -0.84648785575E+02 -0.46800848833E+02  0.20723798401E+03  0.17154280634E+03 0.  0.
        -24    2    3    3    0    0 -0.10693586539E+03 -0.50352752730E+02 -0.10547105336E+02  0.14158450061E+03  0.77228559267E+02 0.  0.
          6    2    1    2  501    0  0.64536123687E+02  0.84648785575E+02 -0.42421430974E+02  0.21638814026E+03  0.18355904030E+03 0.  0.
         24    2    5    5    0    0 -0.12593070771E+02  0.50998571943E+01  0.27389964369E+02  0.85343622766E+02  0.79678917060E+02 0.  0.
          5    1    5    5  501    0  0.77129194458E+02  0.79548928381E+02 -0.69811395343E+02  0.13104451749E+03  0.47000000000E+01 0. -1.
        -11    1    6    6    0    0 -0.25600399052E+02  0.29284020941E+02  0.39406095099E+02  0.55369437825E+02  0.00000000000E+00 0.  1.
         12    1    6    6    0    0  0.13007328281E+02 -0.24184163747E+02 -0.12016130730E+02  0.29974184941E+02  0.00000000000E+00 0. -1.
         -5    1    3    3    0  503  0.42399741706E+02 -0.34296032845E+02 -0.36253743496E+02  0.65653483405E+02  0.47000000000E+01 0.  1.
         13    1    4    4    0    0 -0.41400344503E+02  0.17075987104E+02  0.86602446774E+01  0.45613350002E+02  0.00000000000E+00 0. -1.
        -14    1    4    4    0    0 -0.65535520890E+02 -0.67428739834E+02 -0.19207350014E+02  0.95971150605E+02  0.00000000000E+00 0.  1.
</event>
<event>
12    1  0.1066489E+000  0.4164435E+03  0.7818608E-02  0.1038267E+00
         21   -1    0    0  501  502  0.00000000000E+00  0.00000000000E+00  0.29838189669E+03  0.29838189669E+03  0.00000000000E+00 0. -1.
         21   -1    0    0  502  503 -0.00000000000E+00 -0.00000000000E+00 -0.59520624374E+03  0.59520624374E+03  0.00000000000E+00 0. -1.
         -6    2    1    2    0  503 -0.36040612450E+03  0.11752438721E+03 -0.78344150601E+02  0.42331287459E+03  0.17132258372E+03 0.  0.
        -24    2    3    3    0    0 -0.11575428728E+03 -0.11276707802E+01  0.29205895642E+01  0.13948391146E+03  0.77761848268E+02 0.  0.
          6    2    1    2  501    0  0.36040612450E+03 -0.11752438721E+03 -0.21848019645E+03  0.47027526585E+03  0.17239684818E+03 0.  0.
         24    2    5    5    0    0  0.33784620699E+03 -0.14795176119E+03 -0.19055329064E+03  0.42298068864E+03  0.81069865981E+02 0.  0.
          5    1    5    5  501    0  0.22559917505E+02  0.30427373979E+02 -0.27926905813E+02  0.47294577209E+02  0.47000000000E+01 0. -1.
        -13    1    6    6    0    0  0.25210866332E+03 -0.14587448267E+03 -0.13709432102E+03  0.32192079099E+03  0.00000000000E+00 0.  1.
         14    1    6    6    0    0  0.85737543674E+02 -0.20772785277E+01 -0.53458969614E+02  0.10105989765E+03  0.00000000000E+00 0. -1.
         -5    1    3    3    0  503 -0.24465183721E+03  0.11865205799E+03 -0.81264740165E+02  0.28382896313E+03  0.47000000000E+01 0.  1.
         11    1    4    4    0    0 -0.83568150677E+02 -0.27122085951E+02 -0.22798659281E+02  0.90769059811E+02  0.00000000000E+00 0. -1.
        -12    1    4    4    0    0 -0.32186136608E+02  0.25994415171E+02  0.25719248845E+02  0.48714851647E+02  0.00000000000E+00 0.  1.
</event>
<event>
12    1  0.1066489E+000  0.2632262E+03  0.7818608E-02  0.1105332E+00
         21   -1    0    0  503  502  0.00000000000E+00  0.00000000000E+00  0.74629264722E+03  0.74629264722E+03  0.00000000000E+00 0. -1.
         21   -1    0    0  501  503 -0.00000000000E+00 -0.00000000000E+00 -0.10412766762E+03  0.10412766762E+03  0.00000000000E+00 0. -1.
          6    2    1    2  501    0  0.29935927770E+02  0.20012766331E+03  0.46311325857E+03  0.53269308862E+03  0.16834724531E+03 0.  0.
         24    2    3    3    0    0 -0.36130905481E+02  0.12809096970E+03  0.35182941731E+03  0.38450302482E+03  0.79661147132E+02 0.  0.
         -6    2    1    2    0  502 -0.29935927770E+02 -0.20012766331E+03  0.17905172104E+03  0.31772722622E+03  0.16716408132E+03 0.  0.
        -24    2    5    5    0    0 -0.26088271547E+02 -0.64604384980E+02  0.18634066436E+02  0.10763848941E+03  0.79903013083E+02 0.  0.
          5    1    3    3  501    0  0.66066833251E+02  0.72036693616E+02  0.11128384126E+03  0.14819006380E+03  0.47000000000E+01 0. -1.
        -13    1    4    4    0    0 -0.37749926535E+01  0.12145197679E+03  0.28939572105E+03  0.31387054114E+03  0.00000000000E+00 0.  1.
         14    1    4    4    0    0 -0.32355912828E+02  0.66389929087E+01  0.62433696262E+02  0.70632483679E+02  0.00000000000E+00 0. -1.
         -5    1    5    5    0  502 -0.38476562229E+01 -0.13552327833E+03  0.16041765460E+03  0.21008873681E+03  0.47000000000E+01 0.  1.
         11    1    6    6    0    0  0.14167278662E+01 -0.71534673358E+02 -0.35383340174E+01  0.71636139049E+02  0.00000000000E+00 0. -1.
        -12    1    6    6    0    0 -0.27504999413E+02  0.69302883776E+01  0.22172400453E+02  0.36002350362E+02  0.00000000000E+00 0.  1.
</event>
<event>
12    1  0.1066489E+000  0.7172212E+03  0.7818608E-02  0.9690045E-01
         21   -1    0    0  501  502  0.00000000000E+00  0.00000000000E+00  0.14380615433E+04  0.14380615433E+04  0.00000000000E+00 0. -1.
         21   -1    0    0  502  503 -0.00000000000E+00 -0.00000000000E+00 -0.40345923239E+03  0.40345923239E+03  0.00000000000E+00 0. -1.
         -6    2    1    2    0  503  0.61536250946E+03  0.31589000305E+03  0.83604245874E+03  0.11015322560E+04  0.18960170361E+03 0.  0.
        -24    2    3    3    0    0  0.14459185314E+03  0.11922275439E+03  0.18859878113E+03  0.27720924691E+03  0.78451240742E+02 0.  0.
          6    2    1    2  501    0 -0.61536250946E+03 -0.31589000305E+03  0.19855985220E+03  0.73998851976E+03  0.17233537768E+03 0.  0.
         24    2    5    5    0    0 -0.54934790644E+03 -0.27716093399E+03  0.12376275866E+03  0.63286912934E+03  0.81269974771E+02 0.  0.
          5    1    5    5  501    0 -0.66014603021E+02 -0.38729069061E+02  0.74797093546E+02  0.10711939043E+03  0.47000000000E+01 0. -1.
        -13    1    6    6    0    0 -0.20068288728E+03 -0.58387126204E+02  0.38846707745E+02  0.21258349996E+03  0.00000000000E+00 0.  1.
         14    1    6    6    0    0 -0.34866501917E+03 -0.21877380778E+03  0.84916050911E+02  0.42028562938E+03  0.00000000000E+00 0. -1.
         -5    1    3    3    0  503  0.47077065632E+03  0.19666724866E+03  0.64744367762E+03  0.82432300904E+03  0.47000000000E+01 0.  1.
         13    1    4    4    0    0  0.12202722322E+03  0.59203774727E+02  0.10325612572E+03  0.17046277496E+03  0.00000000000E+00 0. -1.
        -14    1    4    4    0    0  0.22564629923E+02  0.60018979661E+02  0.85342655406E+02  0.10674647195E+03  0.00000000000E+00 0.  1.
</event>
<event>
12    1  0.1066489E+000  0.3857058E+03  0.7818608E-02  0.1048874E+00
         21   -1    0    0  503  502  0.00000000000E+00  0.00000000000E+00  0.74760128227E+02  0.74760128227E+02  0.00000000000E+00 0.  1.
         21   -1    0    0  501  503 -0.00000000000E+00 -0.00000000000E+00 -0.20132685892E+04  0.20132685892E+04  0.00000000000E+00 0.  1.
          6    2    1    2  501    0 -0.29911651840E+03  0.17261038430E+03 -0.10851827465E+04  0.11515813008E+04  0.17103468320E+03 0.  0.
         24    2    3    3    0    0 -0.22295737956E+03  0.14811625411E+03 -0.98000385049E+03  0.10193509450E+04  0.83787733478E+02 0.  0.
         -6    2    1    2    0  502  0.29911651840E+03 -0.17261038430E+03 -0.85332571452E+03  0.93644741660E+03  0.17176714660E+03 0.  0.
        -24    2    5    5    0    0  0.21773005908E+03 -0.80427249113E+02 -0.68650848651E+03  0.72915158033E+03  0.80580419599E+02 0.  0.
          5    1    3    3  501    0 -0.76159138841E+02  0.24494130196E+02 -0.10517889596E+03  0.13223035581E+03  0.47000000000E+01 0. -1.
        -11    1    4    4    0    0 -0.11858621352E+03  0.10070270636E+03 -0.42372376061E+03  0.45138182331E+03  0.00000000000E+00 0.  1.
         12    1    4    4    0    0 -0.10437116604E+03  0.47413547752E+02 -0.55628008988E+03  0.56796912170E+03  0.00000000000E+00 0. -1.
         -5    1    5    5    0  502  0.81386459321E+02 -0.92183135190E+02 -0.16681722800E+03  0.20729583627E+03  0.47000000000E+01 0.  1.
         11    1    6    6    0    0  0.15350820667E+03 -0.15403041150E+02 -0.42580923742E+03  0.45289682033E+03  0.00000000000E+00 0. -1.
        -12    1    6    6    0    0  0.64221852412E+02 -0.65024207963E+02 -0.26069924909E+03  0.27625476000E+03  0.00000000000E+00 0.  1.
</event>
<event>
12    1  0.1066489E+000  0.2330291E+03  0.7818608E-02  0.1125447E+00
         21   -1    0    0  503  502  0.00000000000E+00  0.00000000000E+00  0.19883450171E+03  0.19883450171E+03  0.00000000000E+00 0. -1.
         21   -1    0    0  501  503 -0.00000000000E+00 -0.00000000000E+00 -0.27907720720E+03  0.27907720720E+03  0.00000000000E+00 0. -1.
          6    2    1    2  501    0 -0.23655612238E+02 -0.15542461788E+03 -0.89446761774E+02  0.24470086990E+03  0.16480713790E+03 0.  0.
         24    2    3    3    0    0 -0.58557596296E+02 -0.16296491737E+03 -0.85009736841E+02  0.20841338173E+03  0.78885524318E+02 0.  0.
         -6    2    1    2    0  502  0.23655612238E+02  0.15542461788E+03  0.92040562805E+01  0.23321083902E+03  0.17200633985E+03 0.  0.
        -24    2    5    5    0    0 -0.39133316108E+02  0.28843902859E+02 -0.19800708902E+01  0.91392992327E+02  0.77365180825E+02 0.  0.
          5    1    3    3  501    0  0.34901984057E+02  0.75402994909E+01 -0.44370249329E+01  0.36287488172E+02  0.47000000000E+01 0. -1.
        -11    1    4    4    0    0  0.16534063781E+02 -0.86673972037E+01 -0.74490932932E+01  0.20099453482E+02  0.00000000000E+00 0.  1.
         12    1    4    4    0    0 -0.75091660077E+02 -0.15429752017E+03 -0.77560643548E+02  0.18831392825E+03  0.00000000000E+00 0. -1.
         -5    1    5    5    0  502  0.62788928347E+02  0.12658071502E+03  0.11184127171E+02  0.14181784669E+03  0.47000000000E+01 0.  1.
         11    1    6    6    0    0  0.73358045536E+01 -0.61861019642E+01 -0.26545751935E+02  0.28226916795E+02  0.00000000000E+00 0. -1.
        -12    1    6    6    0    0 -0.46469120662E+02  0.35030004823E+02  0.24565681044E+02  0.63166075533E+02  0.00000000000E+00 0.  1.
</event>
<event>
12    1  0.1066489E+000  0.1941611E+03  0.7818608E-02  0.1154783E+00
         21   -1    0    0  503  502  0.00000000000E+00  0.00000000000E+00  0.18957480850E+03  0.18957480850E+03  0.00000000000E+00 0.  1.
         21   -1    0    0  501  503 -0.00000000000E+00 -0.00000000000E+00 -0.39236385282E+03  0.39236385282E+03  0.00000000000E+00 0.  1.
          6    2    1    2  501    0 -0.71699537760E+02 -0.52664780618E+02  0.10300976182E+03  0.21970748453E+03  0.17247018552E+03 0.  0.
         24    2    3    3    0    0 -0.86543900030E+02  0.82309456202E+01  0.33800778137E+02  0.12621621227E+03  0.85032020674E+02 0.  0.
         -6    2    1    2    0  502  0.71699537760E+02  0.52664780618E+02 -0.30579880614E+03  0.36223117679E+03  0.17258074276E+03 0.  0.
        -24    2    5    5    0    0  0.13411723695E+02  0.72763529433E+02 -0.98620819105E+02  0.14602239509E+03  0.78243647411E+02 0.  0.
          5    1    3    3  501    0  0.14844362269E+02 -0.60895726238E+02  0.69208983684E+02  0.93491272255E+02  0.47000000000E+01 0. -1.
        -13    1    4    4    0    0 -0.66277240548E+02 -0.28471615359E+02  0.42036377405E+02  0.83488696967E+02  0.00000000000E+00 0.  1.
         14    1    4    4    0    0 -0.20266659481E+02  0.36702560980E+02 -0.82355992682E+01  0.42727515307E+02  0.00000000000E+00 0. -1.
         -5    1    5    5    0  502  0.58287814065E+02 -0.20098748815E+02 -0.20717798703E+03  0.21620878170E+03  0.47000000000E+01 0.  1.
         11    1    6    6    0    0  0.27490835486E+02 -0.44145022985E+01 -0.16106695537E+02  0.32166123599E+02  0.00000000000E+00 0. -1.
        -12    1    6    6    0    0 -0.14079111791E+02  0.77178031732E+02 -0.82514123568E+02  0.11385627150E+03  0.00000000000E+00 0.  1.
</event>
<event>
12    1  0.1066489E+000  0.2416663E+03  0.7818608E-02  0.1118697E+00
         21   -1    0    0  503  502  0.00000000000E+00  0.00000000000E+00  0.46054579081E+02  0.46054579081E+02  0.00000000000E+00 0.  1.
         21   -1    0    0  501  503 -0.00000000000E+00 -0.00000000000E+00 -0.13805818936E+04  0.13805818936E+04  0.00000000000E+00 0.  1.
          6    2    1    2  501    0 -0.16890568120E+03  0.19466013245E+02 -0.87118026608E+03  0.90407835632E+03  0.17173981356E+03 0.  0.
         24    2    3    3    0    0 -0.43255772301E+02  0.48684721579E+02 -0.51312305526E+03  0.52346216022E+03  0.80474215659E+02 0.  0.
         -6    2    1    2    0  502  0.16890568120E+03 -0.19466013245E+02 -0.46334704840E+03  0.52255811632E+03  0.17166374939E+03 0.  0.
        -24    2    5    5    0    0  0.10912171138E+03  0.29299424547E+01 -0.42954398820E+03  0.45016724150E+03  0.78907382794E+02 0.  0.
          5    1    3    3  501    0 -0.12564990890E+03 -0.29218708334E+02 -0.35805721081E+03  0.38061619610E+03  0.47000000000E+01 0. -1.
        -11    1    4    4    0    0  0.17220269814E+02  0.19004171166E+02 -0.26883582691E+03  0.27005628681E+03  0.00000000000E+00 0.  1.
         12    1    4    4    0    0 -0.60476042115E+02  0.29680550413E+02 -0.24428722836E+03  0.25340587341E+03  0.00000000000E+00 0. -1.
         -5    1    5    5    0  502  0.59783969815E+02 -0.22395955700E+02 -0.33803060204E+02  0.72390874824E+02  0.47000000000E+01 0.  1.
         11    1    6    6    0    0  0.83690763713E+01 -0.20186946511E+02 -0.15993096573E+03  0.16141706244E+03  0.00000000000E+00 0. -1.
        -12    1    6    6    0    0  0.10075263501E+03  0.23116888966E+02 -0.26961302247E+03  0.28875017905E+03  0.00000000000E+00 0.  1.
</event>
<event>
12    1  0.1066489E+000  0.1904957E+03  0.7818608E-02  0.1158068E+00
         21   -1    0    0  501  502  0.00000000000E+00  0.00000000000E+00  0.23906040744E+03  0.23906040744E+03  0.00000000000E+00 0. -1.
         21   -1    0    0  502  503 -0.00000000000E+00 -0.00000000000E+00 -0.15165844160E+03  0.15165844160E+03  0.00000000000E+00 0. -1.
         -6    2    1    2    0  503  0.54483225684E+02 -0.60388332718E+02  0.47170937121E+02  0.19602130371E+03  0.17200023718E+03 0.  0.
        -24    2    3    3    0    0  0.23257284116E+02  0.27592641653E+02  0.50845068082E+02  0.10247291775E+03  0.81321723945E+02 0.  0.
          6    2    1    2  501    0 -0.54483225684E+02  0.60388332718E+02  0.40231028724E+02  0.19469754533E+03  0.17225976278E+03 0.  0.
         24    2    5    5    0    0 -0.20610126998E+02  0.82385686966E+02  0.76325525100E+02  0.14032684479E+03  0.81571188753E+02 0.  0.
          5    1    5    5  501    0 -0.33873098686E+02 -0.21997354248E+02 -0.36094496376E+02  0.54370700539E+02  0.47000000000E+01 0. -1.
        -13    1    6    6    0    0 -0.63282313065E+01  0.95758144793E+02  0.72779291399E+02  0.12044290789E+03  0.00000000000E+00 0.  1.
         14    1    6    6    0    0 -0.14281895692E+02 -0.13372457827E+02  0.35462337010E+01  0.19883936893E+02  0.00000000000E+00 0. -1.
         -5    1    3    3    0  503  0.31225941568E+02 -0.87980974370E+02 -0.36741309605E+01  0.93548385963E+02  0.47000000000E+01 0.  1.
         11    1    4    4    0    0 -0.12285310658E+02 -0.22323209723E+02  0.25841449142E+02  0.36290977447E+02  0.00000000000E+00 0. -1.
        -12    1    4    4    0    0  0.35542594774E+02  0.49915851375E+02  0.25003618940E+02  0.66181940300E+02  0.00000000000E+00 0.  1.
</event>
<event>
12    1  0.1066489E+000  0.3144853E+03  0.7818608E-02  0.1078422E+00
         21   -1    0    0  503  502  0.00000000000E+00  0.00000000000E+00  0.22118527252E+03  0.22118527252E+03  0.00000000000E+00 0.  1.
         21   -1    0    0  501  503 -0.00000000000E+00 -0.00000000000E+00 -0.45086193812E+03  0.45086193812E+03  0.00000000000E+00 0.  1.
          6    2    1    2  501    0  0.49497233659E+02 -0.25687966984E+03 -0.75724385341E+02  0.32347359313E+03  0.17453894121E+03 0.  0.
         24    2    3    3    0    0  0.54315099087E+02 -0.19263242965E+03  0.11023908457E+02  0.21531502354E+03  0.78623468890E+02 0.  0.
         -6    2    1    2    0  502 -0.49497233659E+02  0.25687966984E+03 -0.15395228025E+03  0.34857361751E+03  0.17136254350E+03 0.  0.
        -24    2    5    5    0    0 -0.81069330033E+02  0.24087733655E+03 -0.10894081893E+03  0.29111934360E+03  0.91039786110E+02 0.  0.
          5    1    3    3  501    0 -0.48178654281E+01 -0.64247240188E+02 -0.86748293798E+02  0.10815856959E+03  0.47000000000E+01 0. -1.
        -13    1    4    4    0    0  0.65820802032E+02 -0.95793455721E+02  0.17697484743E+02  0.11756685377E+03  0.00000000000E+00 0.  1.
         14    1    4    4    0    0 -0.11505702945E+02 -0.96838973931E+02 -0.66735762869E+01  0.97748169766E+02  0.00000000000E+00 0. -1.
         -5    1    5    5    0  502  0.31572096375E+02  0.16002333289E+02 -0.45011461319E+02  0.57454273907E+02  0.47000000000E+01 0.  1.
         11    1    6    6    0    0 -0.83057743229E+01  0.16162529071E+03 -0.56382898375E+02  0.17137897103E+03  0.00000000000E+00 0. -1.
        -12    1    6    6    0    0 -0.72763555710E+02  0.79252045843E+02 -0.52557920558E+02  0.11974037257E+03  0.00000000000E+00 0.  1.
</event>
<event>
12    1  0.1066489E+000  0.1978442E+03  0.7818608E-02  0.1155839E+00
         21   -1    0    0  501  502  0.00000000000E+00  0.00000000000E+00  0.31249147314E+03  0.31249147314E+03  0.00000000000E+00 0. -1.
         21   -1    0    0  502  503 -0.00000000000E+00 -0.00000000000E+00 -0.20904074413E+03  0.20904074413E+03  0.00000000000E+00 0. -1.
         -6    2    1    2    0  503  0.36108500096E+02  0.16624338885E+02 -0.12296753663E+03  0.23294494182E+03  0.19380954164E+03 0.  0.
        -24    2    3    3    0    0 -0.20089373677E+02  0.28229489287E+02  0.10356302865E+02  0.87720230726E+02  0.79919327259E+02 0.  0.
          6    2    1    2  501    0 -0.36108500096E+02 -0.16624338885E+02  0.22641826565E+03  0.28858727546E+03  0.17446258084E+03 0.  0.
         24    2    5    5    0    0 -0.32864400098E+02 -0.63051994031E+02  0.77405779653E+02  0.13240513074E+03  0.80522302356E+02 0.  0.
          5    1    5    5  501    0 -0.32440999978E+01  0.46427655146E+02  0.14901248600E+03  0.15618214472E+03  0.47000000000E+01 0. -1.
        -11    1    6    6    0    0 -0.18120592676E+02 -0.31740679241E+02  0.88752595626E+02  0.95983591452E+02  0.00000000000E+00 0.  1.
         12    1    6    6    0    0 -0.14743807422E+02 -0.31311314789E+02 -0.11346815973E+02  0.36421539285E+02  0.00000000000E+00 0. -1.
         -5    1    3    3    0  503  0.56197873773E+02 -0.11605150402E+02 -0.13332383950E+03  0.14522471109E+03  0.47000000000E+01 0.  1.
         11    1    4    4    0    0 -0.17689930814E+02  0.47864603592E+02 -0.17155214053E+02  0.53835446487E+02  0.00000000000E+00 0. -1.
        -12    1    4    4    0    0 -0.23994428623E+01 -0.19635114306E+02  0.27511516918E+02  0.33884784239E+02  0.00000000000E+00 0.  1.
</event>
<event>
12    1  0.1066489E+000  0.2015817E+03  0.7818608E-02  0.1148703E+00
         21   -1    0    0  503  502  0.00000000000E+00  0.00000000000E+00  0.30308856156E+03  0.30308856156E+03  0.00000000000E+00 0.  1.
         21   -1    0    0  501  503 -0.00000000000E+00 -0.00000000000E+00 -0.13316710616E+03  0.13316710616E+03  0.00000000000E+00 0.  1.
          6    2    1    2  501    0  0.27354002906E+02 -0.97875479613E+02  0.87298437679E+02  0.21839849614E+03  0.17247908543E+03 0.  0.
         24    2    3    3    0    0  0.19536621139E+01  0.22643422302E+02  0.49319737993E+02  0.89423868165E+02  0.71046817470E+02 0.  0.
         -6    2    1    2    0  502 -0.27354002906E+02  0.97875479613E+02  0.82623017723E+02  0.21785717159E+03  0.17409001456E+03 0.  0.
        -24    2    5    5    0    0  0.19513507482E+02  0.11473373475E+03  0.89703914471E+02  0.16733001656E+03  0.80049580295E+02 0.  0.
          5    1    3    3  501    0  0.25400340792E+02 -0.12051890191E+03  0.37978699686E+02  0.12897462797E+03  0.47000000000E+01 0. -1.
        -13    1    4    4    0    0 -0.18624748564E+02 -0.19221147046E+02  0.10554613085E+02  0.28770359925E+02  0.00000000000E+00 0.  1.
         14    1    4    4    0    0  0.20578410678E+02  0.41864569348E+02  0.38765124908E+02  0.60653508240E+02  0.00000000000E+00 0. -1.
         -5    1    5    5    0  502 -0.46867510388E+02 -0.16858255141E+02 -0.70808967484E+01  0.50527155027E+02  0.47000000000E+01 0.  1.
         11    1    6    6    0    0 -0.30552259963E+02  0.52297770499E+02  0.46672858109E+02  0.76464717825E+02  0.00000000000E+00 0. -1.
        -12    1    6    6    0    0  0.50065767445E+02  0.62435964255E+02  0.43031056362E+02  0.90865298734E+02  0.00000000000E+00 0.  1.
</event>
<event>
12    1  0.1066489E+000  0.1771060E+03  0.7818608E-02  0.1170889E+00
         21   -1    0    0  501  502  0.00000000000E+00  0.00000000000E+00  0.11246975843E+04  0.11246975843E+04  0.00000000000E+00 0. -1.
         21   -1    0    0  502  503 -0.00000000000E+00 -0.00000000000E+00 -0.27890955169E+02  0.27890955169E+02  0.00000000000E+00 0. -1.
         -6    2    1    2    0  503 -0.42756341780E+02 -0.29388594453E+01  0.50577433394E+03  0.53588638243E+03  0.17184235901E+03 0.  0.
        -24    2    3    3    0    0 -0.54844433001E+02  0.33830238655E+02  0.47613915418E+03  0.48691269150E+03  0.78886488834E+02 0.  0.
          6    2    1    2  501    0  0.42756341780E+02  0.29388594453E+01  0.59103229517E+03  0.61670215701E+03  0.17077949196E+03 0.  0.
         24    2    5    5    0    0  0.55058547306E+02  0.29640358268E+02  0.57273642603E+03  0.58175729862E+03  0.80650767691E+02 0.  0.
          5    1    5    5  501    0 -0.12302205526E+02 -0.26701498823E+02  0.18295869133E+02  0.34944858385E+02  0.47000000000E+01 0. -1.
        -13    1    6    6    0    0  0.39863602469E+02  0.23301493844E+02  0.11784766794E+03  0.12657068877E+03  0.00000000000E+00 0.  1.
         14    1    6    6    0    0  0.15194944837E+02  0.63388644242E+01  0.45488875810E+03  0.45518660986E+03  0.00000000000E+00 0. -1.
         -5    1    3    3    0  503  0.12088091221E+02 -0.36769098100E+02  0.29635179760E+02  0.48973690935E+02  0.47000000000E+01 0.  1.
         11    1    4    4    0    0  0.73620999632E+01  0.10329277067E+00  0.21494399584E+01  0.76701549788E+01  0.00000000000E+00 0. -1.
        -12    1    4    4    0    0 -0.62206532964E+02  0.33726945884E+02  0.47398971422E+03  0.47924253652E+03  0.00000000000E+00 0.  1.
</event>
<event>
12    1  0.1066489E+000  0.1866064E+03  0.7818608E-02  0.1162296E+00
         21   -1    0    0  503  502  0.00000000000E+00  0.00000000000E+00  0.72476163391E+03  0.72476163391E+03  0.00000000000E+00 0. -1.
         21   -1    0    0  501  503 -0.00000000000E+00 -0.00000000000E+00 -0.49375743035E+02  0.49375743035E+02  0.00000000000E+00 0. -1.
          6    2    1    2  501    0 -0.61016156698E+02  0.26637155250E+02  0.25433173201E+03  0.31358494366E+03  0.17093383973E+03 0.  0.
         24    2    3    3    0    0 -0.80732570488E+02  0.47288836812E+02  0.10720560336E+03  0.16364023166E+03  0.80815233724E+02 0.  0.
         -6    2    1    2    0  502  0.61016156698E+02 -0.26637155250E+02  0.42105415887E+03  0.46055243329E+03  0.17432564267E+03 0.  0.
        -24    2    5    5    0    0 -0.13385942141E+02  0.46756408325E+01  0.86091785433E+02  0.11596856088E+03  0.76392843438E+02 0.  0.
          5    1    3    3  501    0  0.19716413789E+02 -0.20651681562E+02  0.14712612865E+03  0.14994471200E+03  0.47000000000E+01 0. -1.
        -11    1    4    4    0    0 -0.32874151699E+02  0.52215606696E+01  0.92415742594E+02  0.98227511549E+02  0.00000000000E+00 0.  1.
         12    1    4    4    0    0 -0.47858418788E+02  0.42067276143E+02  0.14789860764E+02  0.65412720112E+02  0.00000000000E+00 0. -1.
         -5    1    5    5    0  502  0.74402098840E+02 -0.31312796082E+02  0.33496237343E+03  0.34458387241E+03  0.47000000000E+01 0.  1.
         13    1    6    6    0    0 -0.25249745760E+02 -0.63334874692E+00  0.96226938630E+02  0.99486554416E+02  0.00000000000E+00 0. -1.
        -14    1    6    6    0    0  0.11863803619E+02  0.53089895794E+01 -0.10135153196E+02  0.16482006460E+02  0.00000000000E+00 0.  1.
</event>
<event>
12    1  0.1066489E+000  0.1781701E+03  0.7818608E-02  0.1169857E+00
         21   -1    0    0  503  502  0.00000000000E+00  0.00000000000E+00  0.13811369728E+03  0.13811369728E+03  0.00000000000E+00 0.  1.
         21   -1    0    0  501  503 -0.00000000000E+00 -0.00000000000E+00 -0.22973369360E+03  0.22973369360E+03  0.00000000000E+00 0.  1.
          6    2    1    2  501    0 -0.32245461857E+02  0.34887007042E+02 -0.31785283475E+02  0.17989850514E+03  0.17057636071E+03 0.  0.
         24    2    3    3    0    0 -0.78455517563E+02  0.21512256662E+02  0.14263760594E+02  0.11313880430E+03  0.77323274306E+02 0.  0.
         -6    2    1    2    0  502  0.32245461857E+02 -0.34887007042E+02 -0.59834712848E+02  0.18794888574E+03  0.17171988154E+03 0.  0.
        -24    2    5    5    0    0  0.57730476089E+01 -0.17659005714E+02  0.33838422390E+02  0.88982532814E+02  0.80172836763E+02 0.  0.
          5    1    3    3  501    0  0.46210055706E+02  0.13374750380E+02 -0.46049044069E+02  0.66759700836E+02  0.47000000000E+01 0. -1.
        -13    1    4    4    0    0 -0.13500521713E+02  0.39582172634E+02  0.18183819289E+02  0.45603330589E+02  0.00000000000E+00 0.  1.
         14    1    4    4    0    0 -0.64954995850E+02 -0.18069915971E+02 -0.39200586954E+01  0.67535473710E+02  0.00000000000E+00 0. -1.
         -5    1    5    5    0  502  0.26472414248E+02 -0.17228001328E+02 -0.93673135238E+02  0.98966352924E+02  0.47000000000E+01 0.  1.
         13    1    6    6    0    0 -0.16727963966E+02 -0.41099652125E+02  0.34718846014E+01  0.44509102057E+02  0.00000000000E+00 0. -1.
        -14    1    6    6    0    0  0.22501011574E+02  0.23440646411E+02  0.30366537788E+02  0.44473430757E+02  0.00000000000E+00 0.  1.
</event>
<event>
12    1  0.1066489E+000  0.2114781E+03  0.7818608E-02  0.1140623E+00
         21   -1    0    0  503  502  0.00000000000E+00  0.00000000000E+00  0.10919488157E+03  0.10919488157E+03  0.00000000000E+00 0. -1.
         21   -1    0    0  501  503 -0.00000000000E+00 -0.00000000000E+00 -0.72075600690E+03  0.72075600690E+03  0.00000000000E+00 0. -1.
          6    2    1    2  501    0  0.49310466321E+02  0.10817937764E+03 -0.57894263177E+03  0.61597202521E+03  0.17353001215E+03 0.  0.
         24    2    3    3    0    0 -0.22670790330E+02  0.63172876775E+01 -0.27278669234E+03  0.28535028374E+03  0.80363748388E+02 0.  0.
         -6    2    1    2    0  502 -0.49310466321E+02 -0.10817937764E+03 -0.32618493562E+02  0.21397886326E+03  0.17489622056E+03 0.  0.
        -24    2    5    5    0    0  0.29377604310E+02 -0.40792768875E+02 -0.54371529661E+02  0.10801636009E+03  0.78639539556E+02 0.  0.
          5    1    3    3  501    0  0.71981256650E+02  0.10186208996E+03 -0.30615593943E+03  0.33062174147E+03  0.47000000000E+01 0. -1.
        -13    1    4    4    0    0 -0.13383926409E+02  0.36800906347E+02 -0.71179471581E+02  0.81240097050E+02  0.00000000000E+00 0.  1.
         14    1    4    4    0    0 -0.92868639203E+01 -0.30483618670E+02 -0.20160722076E+03  0.20411018669E+03  0.00000000000E+00 0. -1.
         -5    1    5    5    0  502 -0.78688070630E+02 -0.67386608761E+02  0.21753036099E+02  0.10596250318E+03  0.47000000000E+01 0.  1.
         13    1    6    6    0    0  0.22492028742E+02 -0.25406370180E+02  0.14654975219E+02  0.36961375804E+02  0.00000000000E+00 0. -1.
        -14    1    6    6    0    0  0.68855755680E+01 -0.15386398695E+02 -0.69026504880E+02  0.71054984284E+02  0.00000000000E+00 0.  1.
</event>
<event>
12    1  0.1066489E+000  0.2554184E+03  0.7818608E-02  0.1110140E+00
         21   -1    0    0  503  502  0.00000000000E+00  0.00000000000E+00  0.63882116038E+03  0.63882116038E+03  0.00000000000E+00 0. -1.
         21   -1    0    0  501  503 -0.00000000000E+00 -0.00000000000E+00 -0.10229498134E+03  0.10229498134E+03  0.00000000000E+00 0. -1.
          6    2    1    2  501    0  0.18643343102E+03 -0.19985148654E+02  0.23786575962E+03  0.34902532599E+03  0.17344084931E+03 0.  0.
         24    2    3    3    0    0  0.55316248493E+02 -0.52131214940E+02  0.57786400847E+02  0.12391257515E+03  0.78977890821E+02 0.  0.
         -6    2    1    2    0  502 -0.18643343102E+03  0.19985148654E+02  0.29866041942E+03  0.39209081573E+03  0.17140691727E+03 0.  0.
        -24    2    5    5    0    0 -0.85640521097E+02 -0.51582977640E+02  0.12323817987E+03  0.17743700254E+03  0.79379710604E+02 0.  0.
          5    1    3    3  501    0  0.13111718253E+03  0.32146066285E+02  0.18007935878E+03  0.22511275084E+03  0.47000000000E+01 0. -1.
        -11    1    4    4    0    0  0.50327760746E+02 -0.53132235786E+01  0.57807165263E+02  0.76829565938E+02  0.00000000000E+00 0.  1.
         12    1    4    4    0    0  0.49884877476E+01 -0.46817991361E+02 -0.20764416511E-01  0.47083009210E+02  0.00000000000E+00 0. -1.
         -5    1    5    5    0  502 -0.10079290993E+03  0.71568126294E+02  0.17542223954E+03  0.21465381320E+03  0.47000000000E+01 0.  1.
         11    1    6    6    0    0 -0.63871359397E+02 -0.65886583157E+02  0.12018350089E+03  0.15121066853E+03  0.00000000000E+00 0. -1.
        -12    1    6    6    0    0 -0.21769161699E+02  0.14303605517E+02  0.30546789848E+01  0.26226334009E+02  0.00000000000E+00 0.  1.
</event>
<event>
12    1  0.1066489E+000  0.2422306E+03  0.7818608E-02  0.1118425E+00
         21   -1    0    0  501  502  0.00000000000E+00  0.00000000000E+00  0.62311653349E+03  0.62311653349E+03  0.00000000000E+00 0. -1.
         21   -1    0    0  502  503 -0.00000000000E+00 -0.00000000000E+00 -0.95163921723E+02  0.95163921723E+02  0.00000000000E+00 0. -1.
         -6    2    1    2    0  503  0.81381793683E+02 -0.14904842543E+03  0.22233260866E+03  0.32830704818E+03  0.17180017331E+03 0.  0.
        -24    2    3    3    0    0  0.30082720303E+02 -0.14010272681E+03  0.22158302313E+03  0.27601677823E+03  0.80947400241E+02 0.  0.
          6    2    1    2  501    0 -0.81381793683E+02  0.14904842543E+03  0.30562000310E+03  0.38997340703E+03  0.17273460113E+03 0.  0.
         24    2    5    5    0    0 -0.90538795159E+02  0.14281807302E+03  0.32028351931E+03  0.37100562712E+03  0.80432376598E+02 0.  0.
          5    1    5    5  501    0  0.91570014763E+01  0.62303524072E+01 -0.14663516203E+02  0.18967779907E+02  0.47000000000E+01 0. -1.
        -13    1    6    6    0    0 -0.85476958051E+01  0.59616109466E+02  0.56782035092E+02  0.82772840477E+02  0.00000000000E+00 0.  1.
         14    1    6    6    0    0 -0.81991099354E+02  0.83201963553E+02  0.26350148421E+03  0.28823278664E+03  0.00000000000E+00 0. -1.
         -5    1    3    3    0  503  0.51299073379E+02 -0.89456986189E+01  0.74958553196E+00  0.52290269954E+02  0.47000000000E+01 0.  1.
         13    1    4    4    0    0 -0.12050577607E+02  0.36279833265E+01  0.32142918965E+02  0.34518776388E+02  0.00000000000E+00 0. -1.
        -14    1    4    4    0    0  0.42133297910E+02 -0.14373071013E+03  0.18944010416E+03  0.24149800184E+03  0.00000000000E+00 0.  1.
</event>
<event>
12    1  0.1066489E+000  0.2136324E+03  0.7818608E-02  0.1138984E+00
         21   -1    0    0  501  502  0.00000000000E+00  0.00000000000E+00  0.21122956154E+03  0.21122956154E+03  0.00000000000E+00 0. -1.
         21   -1    0    0  502  503 -0.00000000000E+00 -0.00000000000E+00 -0.26002602076E+03  0.26002602076E+03  0.00000000000E+00 0. -1.
         -6    2    1    2    0  503  0.72421373826E+02  0.10043736416E+03 -0.12283949902E+03  0.24643124500E+03  0.17408703710E+03 0.  0.
        -24    2    3    3    0    0  0.31278966561E+02 -0.18876653123E+02 -0.56857156297E+02  0.10393811553E+03  0.78966409663E+02 0.  0.
          6    2    1    2  501    0 -0.72421373826E+02 -0.10043736416E+03  0.74043039799E+02  0.22482433730E+03  0.17242706109E+03 0.  0.
         24    2    5    5    0    0  0.28399233817E+02 -0.46032156479E+02  0.44108486865E+02  0.10632164110E+03  0.80207585932E+02 0.  0.
          5    1    5    5  501    0 -0.10082060764E+03 -0.54405207677E+02  0.29934552934E+02  0.11850269620E+03  0.47000000000E+01 0. -1.
        -13    1    6    6    0    0  0.35162736917E+02 -0.64332937981E+02  0.46264516113E+02  0.86692274327E+02  0.00000000000E+00 0.  1.
         14    1    6    6    0    0 -0.67635030992E+01  0.18300781502E+02 -0.21560292481E+01  0.19629366773E+02  0.00000000000E+00 0. -1.
         -5    1    3    3    0  503  0.41142407266E+02  0.11931401728E+03 -0.65982342722E+02  0.14249312947E+03  0.47000000000E+01 0.  1.
         11    1    4    4    0    0 -0.19890487097E+02 -0.28239288033E+02 -0.17588076639E+02  0.38761182973E+02  0.00000000000E+00 0. -1.
        -12    1    4    4    0    0  0.51169453658E+02  0.93626349102E+01 -0.39269079658E+02  0.65176932555E+02  0.00000000000E+00 0.  1.
</event>
<event>
12    1  0.1066489E+000  0.1794393E+03  0.7818608E-02  0.1172305E+00
         21   -1    0    0  503  502  0.00000000000E+00  0.00000000000E+00  0.17127774373E+02  0.17127774373E+02  0.00000000000E+00 0.  1.
         21   -1    0    0  501  503 -0.00000000000E+00 -0.00000000000E+00 -0.19857654772E+04  0.19857654772E+04  0.00000000000E+00 0.  1.
          6    2    1    2  501    0 -0.46583492442E+02  0.27464792487E+02 -0.13883773052E+04  0.13999249931E+04  0.17109678047E+03 0.  0.
         24    2    3    3    0    0 -0.98223561506E+01  0.64463653266E+02 -0.12002865834E+04  0.12046802584E+04  0.79464465721E+02 0.  0.
         -6    2    1    2    0  502  0.46583492442E+02 -0.27464792487E+02 -0.58026039761E+03  0.60296825840E+03  0.15473931305E+03 0.  0.
        -24    2    5    5    0    0  0.22556005270E+02 -0.68566346012E+02 -0.25954945696E+03  0.27870870912E+03  0.71431832915E+02 0.  0.
          5    1    3    3  501    0 -0.36761136292E+02 -0.36998860778E+02 -0.18809072173E+03  0.19524473474E+03  0.47000000000E+01 0. -1.
        -11    1    4    4    0    0 -0.37870902202E+02  0.87225229714E+01 -0.36393494720E+03  0.36600400740E+03  0.00000000000E+00 0.  1.
         12    1    4    4    0    0  0.28048546052E+02  0.55741130294E+02 -0.83635163624E+03  0.83867625100E+03  0.00000000000E+00 0. -1.
         -5    1    5    5    0  502  0.24027487172E+02  0.41101553525E+02 -0.32071094065E+03  0.32425954928E+03  0.47000000000E+01 0.  1.
         13    1    6    6    0    0  0.12938834135E+02 -0.52261354131E+02 -0.25301937575E+03  0.25868410672E+03  0.00000000000E+00 0. -1.
        -14    1    6    6    0    0  0.96171711348E+01 -0.16304991881E+02 -0.65300812127E+01  0.20024602406E+02  0.00000000000E+00 0.  1.
</event>
<event>
12    1  0.1066489E+000  0.3138394E+03  0.7818608E-02  0.1078633E+00
         21   -1    0    0  501  502  0.00000000000E+00  0.00000000000E+00  0.52049025986E+03  0.52049025986E+03  0.00000000000E+00 0. -1.
         21   -1    0    0  502  503 -0.00000000000E+00 -0.00000000000E+00 -0.18967054258E+03  0.18967054258E+03  0.00000000000E+00 0. -1.
         -6    2    1    2    0  503  0.88104826044E+01 -0.26212340032E+03  0.13925178678E+03  0.34247417174E+03  0.17062003571E+03 0.  0.
        -24    2    3    3    0    0  0.38091072725E+02 -0.17777905564E+03  0.29647242509E+02  0.20102959756E+03  0.80483648412E+02 0.  0.
          6    2    1    2  501    0 -0.88104826044E+01  0.26212340032E+03  0.19156793050E+03  0.36768663070E+03  0.17236265488E+03 0.  0.
         24    2    5    5    0    0 -0.40153694414E+01  0.18006778713E+03  0.20523779324E+03  0.28422962431E+03  0.78888506204E+02 0.  0.
          5    1    5    5  501    0 -0.47951131630E+01  0.82055613193E+02 -0.13669862741E+02  0.83457006381E+02  0.47000000000E+01 0. -1.
        -11    1    6    6    0    0 -0.33741570578E+02  0.11783604948E+03  0.16078748772E+03  0.20217923818E+03  0.00000000000E+00 0.  1.
         12    1    6    6    0    0  0.29726201136E+02  0.62231737646E+02  0.44450305518E+02  0.82050386136E+02  0.00000000000E+00 0. -1.
         -5    1    3    3    0  503 -0.29280590120E+02 -0.84344344680E+02  0.10960454428E+03  0.14144457417E+03  0.47000000000E+01 0.  1.
         11    1    4    4    0    0  0.58515395778E+02 -0.83063348871E+02  0.20993204062E+02  0.10375107751E+03  0.00000000000E+00 0. -1.
        -12    1    4    4    0    0 -0.20424323053E+02 -0.94715706772E+02  0.86540384464E+01  0.97278520049E+02  0.00000000000E+00 0.  1.
</event>
<event>
12    1  0.1066489E+000  0.2384957E+03  0.7818608E-02  0.1120897E+00
         21   -1    0    0  501  502  0.00000000000E+00  0.00000000000E+00  0.17447500465E+03  0.17447500465E+03  0.00000000000E+00 0.  1.
         21   -1    0    0  502  503 -0.00000000000E+00 -0.00000000000E+00 -0.54679481829E+03  0.54679481829E+03  0.00000000000E+00 0.  1.
         -6    2    1    2    0  503  0.44471534140E+02 -0.15895549821E+03  0.43278126454E+02  0.24239058472E+03  0.17215002636E+03 0.  0.
        -24    2    3    3    0    0  0.12951302147E+02 -0.11057089600E+02  0.37031726028E+02  0.90968750724E+02  0.81326314425E+02 0.  0.
          6    2    1    2  501    0 -0.44471534140E+02  0.15895549821E+03 -0.41559794009E+03  0.47887923821E+03  0.17134500060E+03 0.  0.
         24    2    5    5    0    0  0.32646362211E+02  0.10076534350E+03 -0.30080926363E+03  0.32877329468E+03  0.79913871081E+02 0.  0.
          5    1    5    5  501    0 -0.77117896351E+02  0.58190154703E+02 -0.11478867645E+03  0.15010594353E+03  0.47000000000E+01 0. -1.
        -13    1    6    6    0    0 -0.88180828565E+01 -0.94528810678E+00 -0.95662755909E+02  0.96072967181E+02  0.00000000000E+00 0.  1.
         14    1    6    6    0    0  0.41464445068E+02  0.10171063161E+03 -0.20514650772E+03  0.23270032750E+03  0.00000000000E+00 0. -1.
         -5    1    3    3    0  503  0.31520231993E+02 -0.14789840861E+03  0.62464004257E+01  0.15142183400E+03  0.47000000000E+01 0.  1.
         13    1    4    4    0    0  0.44443613624E+01 -0.29979328784E+02 -0.15822443683E+02  0.34188627150E+02  0.00000000000E+00 0. -1.
        -14    1    4    4    0    0  0.85069407844E+01  0.18922239184E+02  0.52854169711E+02  0.56780123574E+02  0.00000000000E+00 0.  1.
</event>
<event>
12    1  0.1066489E+000  0.1866112E+03  0.7818608E-02  0.1161713E+00
         21   -1    0    0  503  502  0.00000000000E+00  0.00000000000E+00  0.76675751956E+02  0.76675751956E+02  0.00000000000E+00 0. -1.
         21   -1    0    0  501  503 -0.00000000000E+00 -0.00000000000E+00 -0.60285972399E+03  0.60285972399E+03  0.00000000000E+00 0. -1.
          6    2    1    2  501    0 -0.69645165412E+02 -0.17545670538E+02 -0.93771290449E+02  0.20884631389E+03  0.17223654749E+03 0.  0.
         24    2    3    3    0    0 -0.18988837172E+02 -0.37422696548E+02 -0.39611712198E+00  0.10066973256E+03  0.91505212914E+02 0.  0.
         -6    2    1    2    0  502  0.69645165412E+02  0.17545670538E+02 -0.43241268158E+03  0.47068916206E+03  0.17149128393E+03 0.  0.
        -24    2    5    5    0    0  0.89234646999E+02  0.35541653201E+02 -0.42449733527E+03  0.44254052287E+03  0.80113016360E+02 0.  0.
          5    1    3    3  501    0 -0.50656328241E+02  0.19877026011E+02 -0.93375173327E+02  0.10817658133E+03  0.47000000000E+01 0. -1.
        -11    1    4    4    0    0 -0.46575885273E+02 -0.70095394092E+01  0.24047175649E+02  0.52883961542E+02  0.00000000000E+00 0.  1.
         12    1    4    4    0    0  0.27587048101E+02 -0.30413157139E+02 -0.24443292771E+02  0.47785771016E+02  0.00000000000E+00 0. -1.
         -5    1    5    5    0  502 -0.19589481586E+02 -0.17995982663E+02 -0.79153463063E+01  0.28148639185E+02  0.47000000000E+01 0.  1.
         13    1    6    6    0    0  0.30379544691E+01  0.37243181124E+02 -0.98937830231E+02  0.10575905615E+03  0.00000000000E+00 0. -1.
        -14    1    6    6    0    0  0.86196692529E+02 -0.17015279229E+01 -0.32555950504E+03  0.33678146672E+03  0.00000000000E+00 0.  1.
</event>
<event>
12    1  0.1066489E+000  0.1969179E+03  0.7818608E-02  0.1153128E+00
         21   -1    0    0  501  502  0.00000000000E+00  0.00000000000E+00  0.17210024320E+03  0.17210024320E+03  0.00000000000E+00 0. -1.
         21   -1    0    0  502  503 -0.00000000000E+00 -0.00000000000E+00 -0.23079950809E+03  0.23079950809E+03  0.00000000000E+00 0. -1.
         -6    2    1    2    0  503 -0.38215410008E+02  0.80554082192E+02  0.11736455027E+02  0.19376379891E+03  0.17163125494E+03 0.  0.
        -24    2    3    3    0    0 -0.46323047756E+01  0.74815829207E+02 -0.51629615000E+02  0.12166593948E+03  0.80734857014E+02 0.  0.
          6    2    1    2  501    0  0.38215410008E+02 -0.80554082192E+02 -0.70435719915E+02  0.20913595238E+03  0.17557698658E+03 0.  0.
         24    2    5    5    0    0 -0.24088593759E+02 -0.11909345548E+02 -0.78472305472E+02  0.11596640015E+03  0.81044496282E+02 0.  0.
          5    1    5    5  501    0  0.62304003767E+02 -0.68644736644E+02  0.80365855569E+01  0.93169552224E+02  0.47000000000E+01 0. -1.
        -13    1    6    6    0    0  0.10713715080E+02 -0.33442852786E+02 -0.10550305314E+02  0.36667656531E+02  0.00000000000E+00 0.  1.
         14    1    6    6    0    0 -0.34802308839E+02  0.21533507237E+02 -0.67922000158E+02  0.79298743621E+02  0.00000000000E+00 0. -1.
         -5    1    3    3    0  503 -0.33583105232E+02  0.57382529848E+01  0.63366070027E+02  0.72097859434E+02  0.47000000000E+01 0.  1.
         11    1    4    4    0    0  0.26851208446E+02  0.59755751746E+02 -0.56395622715E+02  0.86441908373E+02  0.00000000000E+00 0. -1.
        -12    1    4    4    0    0 -0.31483513221E+02  0.15060077462E+02  0.47660077149E+01  0.35224031107E+02  0.00000000000E+00 0.  1.
</event>
<event>
12    1  0.1066489E+000  0.2893706E+03  0.7818608E-02  0.1090737E+00
         21   -1    0    0  503  502  0.00000000000E+00  0.00000000000E+00  0.26891058177E+03  0.26891058177E+03  0.00000000000E+00 0. -1.
         21   -1    0    0  501  503 -0.00000000000E+00 -0.00000000000E+00 -0.32299159635E+03  0.32299159635E+03  0.00000000000E+00 0. -1.
          6    2    1    2  501    0 -0.16429433611E+03  0.16335391116E+03  0.30197374579E+02  0.29094193516E+03  0.17337300549E+03 0.  0.
         24    2    3    3    0    0 -0.64641022865E+02  0.12966675460E+03  0.67284607876E+02  0.17930341030E+03  0.81428283804E+02 0.  0.
         -6    2    1    2    0  502  0.16429433611E+03 -0.16335391116E+03 -0.84278389162E+02  0.30096024296E+03  0.17261834142E+03 0.  0.
        -24    2    5    5    0    0  0.81669839729E+02 -0.16263624199E+03 -0.26820182434E+02  0.20020877661E+03  0.79017226709E+02 0.  0.
          5    1    3    3  501    0 -0.99653313247E+02  0.33687156555E+02 -0.37087233297E+02  0.11163852485E+03  0.47000000000E+01 0. -1.
        -13    1    4    4    0    0  0.11910928148E+01  0.61775170465E+02 -0.24010783692E+01  0.61833288490E+02  0.00000000000E+00 0.  1.
         14    1    4    4    0    0 -0.65832115680E+02  0.67891584139E+02  0.69685686245E+02  0.11747012181E+03  0.00000000000E+00 0. -1.
         -5    1    5    5    0  502  0.82624496383E+02 -0.71766917037E+00 -0.57458206728E+02  0.10075146635E+03  0.47000000000E+01 0.  1.
         11    1    6    6    0    0  0.10811825123E+02 -0.18933206934E+02  0.23706126622E+02  0.32207799160E+02  0.00000000000E+00 0. -1.
        -12    1    6    6    0    0  0.70858014606E+02 -0.14370303505E+03 -0.50526309056E+02  0.16800097745E+03  0.00000000000E+00 0.  1.
</event>
<event>
12    1  0.1066489E+000  0.2013574E+03  0.7818608E-02  0.1148720E+00
         21   -1    0    0  501  502  0.00000000000E+00  0.00000000000E+00  0.28959665083E+03  0.28959665083E+03  0.00000000000E+00 0.  1.
         21   -1    0    0  502  503 -0.00000000000E+00 -0.00000000000E+00 -0.81386242174E+03  0.81386242174E+03  0.00000000000E+00 0. -1.
         -6    2    1    2    0  503  0.45526546364E+02 -0.93653212350E+02 -0.76438260437E+03  0.79045909188E+03  0.17234041738E+03 0.  0.
        -24    2    3    3    0    0  0.74354104874E+02 -0.10425692798E+02 -0.49445947378E+03  0.50649001861E+03  0.80029618067E+02 0.  0.
          6    2    1    2  501    0 -0.45526546364E+02  0.93653212350E+02  0.24011683347E+03  0.31299998069E+03  0.17166625640E+03 0.  0.
         24    2    5    5    0    0 -0.94891484298E+02  0.64844499493E+02  0.19454640792E+03  0.23974977442E+03  0.80140168402E+02 0.  0.
          5    1    5    5  501    0  0.49364937935E+02  0.28808712857E+02  0.45570425548E+02  0.73250206269E+02  0.47000000000E+01 0. -1.
        -13    1    6    6    0    0  0.88398094493E+01  0.26211033257E+02  0.55607359279E+02  0.62107478628E+02  0.00000000000E+00 0.  1.
         14    1    6    6    0    0 -0.10373129375E+03  0.38633466237E+02  0.13893904864E+03  0.17764229579E+03  0.00000000000E+00 0. -1.
         -5    1    3    3    0  503 -0.28827558510E+02 -0.83227519552E+02 -0.26992313060E+03  0.28396907327E+03  0.47000000000E+01 0.  1.
         11    1    4    4    0    0  0.67095483970E+02 -0.12150750253E+02 -0.18873839586E+03  0.20067791800E+03  0.00000000000E+00 0. -1.
        -12    1    4    4    0    0  0.72586209040E+01  0.17250574553E+01 -0.30572107792E+03  0.30581210062E+03  0.00000000000E+00 0.  1.
</event>
<event>
12    1  0.1066489E+000  0.1877207E+03  0.7818608E-02  0.1160555E+00
         21   -1    0    0  501  502  0.00000000000E+00  0.00000000000E+00  0.29745143309E+02  0.29745143309E+02  0.00000000000E+00 0.  1.
         21   -1    0    0  502  503 -0.00000000000E+00 -0.00000000000E+00 -0.12195753137E+04  0.12195753137E+04  0.00000000000E+00 0.  1.
         -6    2    1    2    0  503  0.39751454575E+02  0.59922865885E+02 -0.48852938187E+03  0.52335459450E+03  0.17340169154E+03 0.  0.
        -24    2    3    3    0    0 -0.42654451207E+02  0.30919729435E+02 -0.19621708242E+03  0.21823087263E+03  0.79675206054E+02 0.  0.
          6    2    1    2  501    0 -0.39751454575E+02 -0.59922865885E+02 -0.70130078856E+03  0.72596586256E+03  0.17329947942E+03 0.  0.
         24    2    5    5    0    0 -0.39663568880E+02 -0.55354929033E+02 -0.20939493921E+03  0.23401634442E+03  0.79246716177E+02 0.  0.
          5    1    5    5  501    0 -0.87885695866E-01 -0.45679368512E+01 -0.49190584935E+03  0.49194951814E+03  0.47000000000E+01 0. -1.
        -13    1    6    6    0    0 -0.35143677778E+02  0.11865864245E+02 -0.72116859526E+02  0.81096968192E+02  0.00000000000E+00 0.  1.
         14    1    6    6    0    0 -0.45198911013E+01 -0.67220793278E+02 -0.13727807969E+03  0.15291937623E+03  0.00000000000E+00 0. -1.
         -5    1    3    3    0  503  0.82405905782E+02  0.29003136449E+02 -0.29231229945E+03  0.30512372186E+03  0.47000000000E+01 0.  1.
         11    1    4    4    0    0 -0.28231013907E+02 -0.24364404888E+02 -0.61867843263E+02  0.72237416910E+02  0.00000000000E+00 0. -1.
        -12    1    4    4    0    0 -0.14423437300E+02  0.55284134323E+02 -0.13434923916E+03  0.14599345572E+03  0.00000000000E+00 0.  1.
</event>
<event>
12    1  0.1066489E+000  0.2464868E+03  0.7818608E-02  0.1116026E+00
         21   -1    0    0  501  502  0.00000000000E+00  0.00000000000E+00  0.77283973512E+03  0.77283973512E+03  0.00000000000E+00 0.  1.
         21   -1    0    0  502  503 -0.00000000000E+00 -0.00000000000E+00 -0.78149917096E+02  0.78149917096E+02  0.00000000000E+00 0.  1.
         -6    2    1    2    0  503 -0.17537208091E+03  0.19495347856E+02  0.37862429372E+03  0.45017402884E+03  0.16782391098E+03 0.  0.
        -24    2    3    3    0    0 -0.15000851844E+03  0.12715875492E+02  0.38628011769E+03  0.42242563812E+03  0.81036049499E+02 0.  0.
          6    2    1    2  501    0  0.17537208091E+03 -0.19495347856E+02  0.31606552431E+03  0.40081562338E+03  0.17210552848E+03 0.  0.
         24    2    5    5    0    0  0.60806785670E+02  0.41110724870E+02  0.19840830508E+03  0.22570533195E+03  0.78673276687E+02 0.  0.
          5    1    5    5  501    0  0.11456529524E+03 -0.60606072726E+02  0.11765721923E+03  0.17511029142E+03  0.47000000000E+01 0. -1.
        -11    1    6    6    0    0 -0.64095619331E+01  0.36635285430E+02  0.97736620769E+02  0.10457377139E+03  0.00000000000E+00 0.  1.
         12    1    6    6    0    0  0.67216347603E+02  0.44754394395E+01  0.10067168431E+03  0.12113156057E+03  0.00000000000E+00 0. -1.
         -5    1    3    3    0  503 -0.25363562475E+02  0.67794723643E+01 -0.76558239782E+01  0.27748390723E+02  0.47000000000E+01 0.  1.
         13    1    4    4    0    0 -0.11814670121E+03  0.12497967357E+01  0.19370529236E+03  0.22689633158E+03  0.00000000000E+00 0. -1.
        -14    1    4    4    0    0 -0.31861817225E+02  0.11466078756E+02  0.19257482534E+03  0.19552930653E+03  0.00000000000E+00 0.  1.
</event>
<event>
12    1  0.1066489E+000  0.3157146E+03  0.7818608E-02  0.1077660E+00
         21   -1    0    0  501  502  0.00000000000E+00  0.00000000000E+00  0.97104370951E+03  0.97104370951E+03  0.00000000000E+00 0.  1.
         21   -1    0    0  502  503 -0.00000000000E+00 -0.00000000000E+00 -0.13823285367E+03  0.13823285367E+03  0.00000000000E+00 0.  1.
         -6    2    1    2    0  503  0.46150179119E+02 -0.26042697723E+03  0.69814110665E+03  0.76620931654E+03  0.17240551746E+03 0.  0.
        -24    2    3    3    0    0  0.72573075030E+02 -0.10772970898E+03  0.26592514961E+03  0.30702814458E+03  0.81716307757E+02 0.  0.
          6    2    1    2  501    0 -0.46150179119E+02  0.26042697723E+03  0.13466974919E+03  0.34306724664E+03  0.17206726844E+03 0.  0.
         24    2    5    5    0    0 -0.47766519250E+02  0.22443203235E+03  0.46760631834E+02  0.24794442327E+03  0.81477008013E+02 0.  0.
          5    1    5    5  501    0  0.16163401304E+01  0.35994944883E+02  0.87909117356E+02  0.95122823375E+02  0.47000000000E+01 0. -1.
        -13    1    6    6    0    0 -0.51435839852E+02  0.61497779950E+02  0.21663787436E+02  0.83047831074E+02  0.00000000000E+00 0.  1.
         14    1    6    6    0    0  0.36693206025E+01  0.16293425240E+03  0.25096844398E+02  0.16489659219E+03  0.00000000000E+00 0. -1.
         -5    1    3    3    0  503 -0.26422895911E+02 -0.15269726825E+03  0.43221595704E+03  0.45918117196E+03  0.47000000000E+01 0.  1.
         13    1    4    4    0    0  0.27980556467E+02 -0.99405915219E+02  0.21693801641E+03  0.24026350219E+03  0.00000000000E+00 0. -1.
        -14    1    4    4    0    0  0.44592518563E+02 -0.83237937582E+01  0.48987133201E+02  0.66764642390E+02  0.00000000000E+00 0.  1.
</event>
<event>
12    1  0.1066489E+000  0.2045283E+03  0.7818608E-02  0.1146347E+00
         21   -1    0    0  501  502  0.00000000000E+00  0.00000000000E+00  0.35483930967E+03  0.35483930967E+03  0.00000000000E+00 0. -1.
         21   -1    0    0  502  503 -0.00000000000E+00 -0.00000000000E+00 -0.18112917088E+03  0.18112917088E+03  0.00000000000E+00 0. -1.
         -6    2    1    2    0  503 -0.35890162658E+02  0.10519792666E+03  0.24675078590E+03  0.32049613317E+03  0.17168900222E+03 0.  0.
        -24    2    3    3    0    0 -0.44673085479E+02  0.10687147204E+03  0.97232516713E+02  0.17063705500E+03  0.79029400427E+02 0.  0.
          6    2    1    2  501    0  0.35890162658E+02 -0.10519792666E+03 -0.73040647114E+02  0.21547234738E+03  0.16952489141E+03 0.  0.
         24    2    5    5    0    0  0.72228953907E+02 -0.45478069129E+02 -0.85057314454E+02  0.14438465909E+03  0.79541853662E+02 0.  0.
          5    1    5    5  501    0 -0.36338791249E+02 -0.59719857530E+02  0.12016667340E+02  0.71087688293E+02  0.47000000000E+01 0. -1.
        -11    1    6    6    0    0  0.15828085348E+02  0.17035866334E+02  0.19167342600E+01  0.23332871614E+02  0.00000000000E+00 0.  1.
         12    1    6    6    0    0  0.56400868560E+02 -0.62513935462E+02 -0.86974048714E+02  0.12105178748E+03  0.00000000000E+00 0. -1.
         -5    1    3    3    0  503  0.87829228207E+01 -0.16735453793E+01  0.14951826919E+03  0.14985907816E+03  0.47000000000E+01 0.  1.
         11    1    4    4    0    0 -0.23757548860E+01 -0.11799565961E+02  0.94936930087E+00  0.12073743008E+02  0.00000000000E+00 0. -1.
        -12    1    4    4    0    0 -0.42297330593E+02  0.11867103800E+03  0.96283147412E+02  0.15856331199E+03  0.00000000000E+00 0.  1.
</event>
<event>
12    1  0.1066489E+000  0.1970803E+03  0.7818608E-02  0.1152496E+00
         21   -1    0    0  501  502  0.00000000000E+00  0.00000000000E+00  0.86345671518E+03  0.86345671518E+03  0.00000000000E+00 0. -1.
         21   -1    0    0  502  503 -0.00000000000E+00 -0.00000000000E+00 -0.76419179325E+02  0.76419179325E+02  0.00000000000E+00 0. -1.
         -6    2    1    2    0  503 -0.52973725678E+02 -0.80009037688E+02  0.69555661938E+03  0.72259860866E+03  0.17071050568E+03 0.  0.
        -24    2    3    3    0    0  0.23147686150E+02  0.70829752028E+01  0.35766616198E+03  0.36542702629E+03  0.70893188733E+02 0.  0.
          6    2    1    2  501    0  0.52973725678E+02  0.80009037688E+02  0.91480916480E+02  0.21727728585E+03  0.17214238044E+03 0.  0.
         24    2    5    5    0    0  0.45773839403E+02  0.11375343195E+03  0.33146917754E+02  0.14934005074E+03  0.78540721571E+02 0.  0.
          5    1    5    5  501    0  0.71998862744E+01 -0.33744394263E+02  0.58333998725E+02  0.67937235106E+02  0.47000000000E+01 0. -1.
        -11    1    6    6    0    0  0.15929499358E+02  0.57779166722E+02  0.55892256394E+02  0.81951969969E+02  0.00000000000E+00 0.  1.
         12    1    6    6    0    0  0.29844340045E+02  0.55974265228E+02 -0.22745338640E+02  0.67388080774E+02  0.00000000000E+00 0. -1.
         -5    1    3    3    0  503 -0.76121411828E+02 -0.87092012891E+02  0.33789045740E+03  0.35717158237E+03  0.47000000000E+01 0.  1.
         13    1    4    4    0    0  0.40066173310E+02  0.12871861998E+02  0.12143761905E+03  0.12852267658E+03  0.00000000000E+00 0. -1.
        -14    1    4    4    0    0 -0.16918487160E+02 -0.57888867952E+01  0.23622854293E+03  0.23690434971E+03  0.00000000000E+00 0.  1.
</event>
<event>
12    1  0.1066489E+000  0.3626249E+03  0.7818608E-02  0.1057638E+00
         21   -1    0    0  503  502  0.00000000000E+00  0.00000000000E+00  0.56424015795E+02  0.56424015795E+02  0.00000000000E+00 0. -1.
         21   -1    0    0  501  503 -0.00000000000E+00 -0.00000000000E+00 -0.25810621206E+04  0.25810621206E+04  0.00000000000E+00 0. -1.
          6    2    1    2  501    0  0.20219412111E+03 -0.24608726434E+03 -0.84813803084E+03  0.92240715819E+03  0.17336505372E+03 0.  0.
         24    2    3    3    0    0  0.15109613452E+03 -0.25535426606E+03 -0.68130313919E+03  0.74761341510E+03  0.81951253233E+02 0.  0.
         -6    2    1    2    0  502 -0.20219412111E+03  0.24608726434E+03 -0.16765000740E+04  0.17150789782E+04  0.17147011161E+03 0.  0.
        -24    2    5    5    0    0 -0.16649978929E+03  0.20070392803E+03 -0.15713705936E+04  0.15950455238E+04  0.83429215129E+02 0.  0.
          5    1    3    3  501    0  0.51097986581E+02  0.92670017143E+01 -0.16683489165E+03  0.17479374310E+03  0.47000000000E+01 0. -1.
        -11    1    4    4    0    0  0.11712736863E+03 -0.11892605888E+03 -0.35319379234E+03  0.39065084527E+03  0.00000000000E+00 0.  1.
         12    1    4    4    0    0  0.33968765896E+02 -0.13642820717E+03 -0.32810934684E+03  0.35696256982E+03  0.00000000000E+00 0. -1.
         -5    1    5    5    0  502 -0.35694331811E+02  0.45383336313E+02 -0.10512948037E+03  0.12003345443E+03  0.47000000000E+01 0.  1.
         13    1    6    6    0    0 -0.19280261146E+02  0.75129198533E+02 -0.55812592794E+03  0.56348973050E+03  0.00000000000E+00 0. -1.
        -14    1    6    6    0    0 -0.14721952815E+03  0.12557472950E+03 -0.10132446656E+04  0.10315557933E+04  0.00000000000E+00 0.  1.
</event>
<event>
12    1  0.1066489E+000  0.6960457E+03  0.7818608E-02  0.9724464E-01
         21   -1    0    0  501  502  0.00000000000E+00  0.00000000000E+00  0.48864950909E+03  0.48864950909E+03  0.00000000000E+00 0. -1.
         21   -1    0    0  502  503 -0.00000000000E+00 -0.00000000000E+00 -0.99073217997E+03  0.99073217997E+03  0.00000000000E+00 0.  1.
         -6    2    1    2    0  503 -0.62651501194E+03  0.25127007555E+03 -0.23064827984E+03  0.73228309926E+03  0.16547567019E+03 0.  0.
        -24    2    3    3    0    0 -0.16130073364E+03  0.98739028548E+02 -0.91048953898E+02  0.22316611189E+03  0.75801576885E+02 0.  0.
          6    2    1    2  501    0  0.62651501194E+03 -0.25127007555E+03 -0.27143439104E+03  0.74709858980E+03  0.16977032482E+03 0.  0.
         24    2    5    5    0    0  0.18823756469E+03 -0.33301580978E+02 -0.63181527586E+02  0.21513173883E+03  0.75811500234E+02 0.  0.
          5    1    5    5  501    0  0.43827744724E+03 -0.21796849457E+03 -0.20825286346E+03  0.53196685097E+03  0.47000000000E+01 0. -1.
        -13    1    6    6    0    0  0.34531543273E+02 -0.23657435870E+02 -0.42653484592E+02  0.59761371308E+02  0.00000000000E+00 0.  1.
         14    1    6    6    0    0  0.15370602142E+03 -0.96441451083E+01 -0.20528042995E+02  0.15537036752E+03  0.00000000000E+00 0. -1.
         -5    1    3    3    0  503 -0.46521427829E+03  0.15253104700E+03 -0.13959932594E+03  0.50911698737E+03  0.47000000000E+01 0.  1.
         13    1    4    4    0    0 -0.10783540403E+03  0.48115298324E+02 -0.17998026838E+02  0.11944657913E+03  0.00000000000E+00 0. -1.
        -14    1    4    4    0    0 -0.53465329614E+02  0.50623730225E+02 -0.73050927061E+02  0.10371953277E+03  0.00000000000E+00 0.  1.
</event>
<event>
12    1  0.1066489E+000  0.2306965E+03  0.7818608E-02  0.1126207E+00
         21   -1    0    0  501  502  0.00000000000E+00  0.00000000000E+00  0.62769550901E+02  0.62769550901E+02  0.00000000000E+00 0.  1.
         21   -1    0    0  502  503 -0.00000000000E+00 -0.00000000000E+00 -0.87717754572E+03  0.87717754572E+03  0.00000000000E+00 0.  1.
         -6    2    1    2    0  503  0.26628543051E+02 -0.15038735016E+03 -0.31932265710E+03  0.39375081470E+03  0.17247408603E+03 0.  0.
        -24    2    3    3    0    0  0.76519215095E+02 -0.11361648688E+03 -0.17626484344E+03  0.23777388182E+03  0.81873240285E+02 0.  0.
          6    2    1    2  501    0 -0.26628543051E+02  0.15038735016E+03 -0.49508533773E+03  0.54619628192E+03  0.17290301431E+03 0.  0.
         24    2    5    5    0    0  0.48736568522E+02  0.62262635623E+02 -0.27339349813E+03  0.29596593385E+03  0.81240016428E+02 0.  0.
          5    1    5    5  501    0 -0.75365111573E+02  0.88124714541E+02 -0.22169183959E+03  0.25023034807E+03  0.47000000000E+01 0. -1.
        -13    1    6    6    0    0  0.33361206458E+02  0.72496671330E+01 -0.20035828435E+03  0.20324608207E+03  0.00000000000E+00 0.  1.
         14    1    6    6    0    0  0.15375362064E+02  0.55012968489E+02 -0.73035213788E+02  0.92719851778E+02  0.00000000000E+00 0. -1.
         -5    1    3    3    0  503 -0.49890672043E+02 -0.36770863285E+02 -0.14305781365E+03  0.15597693288E+03  0.47000000000E+01 0.  1.
         11    1    4    4    0    0  0.24518289924E+02 -0.99687442944E+02 -0.13674566762E+03  0.17099155077E+03  0.00000000000E+00 0. -1.
        -12    1    4    4    0    0  0.52000925170E+02 -0.13929043934E+02 -0.39519175822E+02  0.66782331055E+02  0.00000000000E+00 0.  1.
</event>
<event>
12    1  0.1066489E+000  0.3118097E+03  0.7818608E-02  0.1079916E+00
         21   -1    0    0  503  502  0.00000000000E+00  0.00000000000E+00  0.24966303935E+03  0.24966303935E+03  0.00000000000E+00 0. -1.
         21   -1    0    0  501  503 -0.00000000000E+00 -0.00000000000E+00 -0.44057456052E+03  0.44057456052E+03  0.00000000000E+00 0. -1.
          6    2    1    2  501    0 -0.25569070876E+03 -0.63863064115E+01  0.27709394014E+02  0.30942216217E+03  0.17191783057E+03 0.  0.
         24    2    3    3    0    0 -0.21588841692E+03  0.36643836893E+02 -0.15839830458E+02  0.23624811882E+03  0.87245023199E+02 0.  0.
         -6    2    1    2    0  502  0.25569070876E+03  0.63863064115E+01 -0.21862091518E+03  0.38081543770E+03  0.17834452496E+03 0.  0.
        -24    2    5    5    0    0  0.11219057777E+03  0.17409677815E+02 -0.18816344719E+03  0.23363001157E+03  0.79294872618E+02 0.  0.
          5    1    3    3  501    0 -0.39802291840E+02 -0.43030143305E+02  0.43549224472E+02  0.73174043353E+02  0.47000000000E+01 0. -1.
        -13    1    4    4    0    0 -0.97889944642E+01 -0.19745945309E+02 -0.11441332576E+01  0.22068887822E+02  0.00000000000E+00 0.  1.
         14    1    4    4    0    0 -0.20609942245E+03  0.56389782203E+02 -0.14695697201E+02  0.21417923099E+03  0.00000000000E+00 0. -1.
         -5    1    5    5    0  502  0.14350013099E+03 -0.11023371403E+02 -0.30457467989E+02  0.14718542614E+03  0.47000000000E+01 0.  1.
         13    1    6    6    0    0  0.34960355486E+01 -0.22382865120E+02 -0.33793620843E+02  0.40684440825E+02  0.00000000000E+00 0. -1.
        -14    1    6    6    0    0  0.10869454222E+03  0.39792542934E+02 -0.15436982635E+03  0.19294557074E+03  0.00000000000E+00 0.  1.
</event>
<event>
12    1  0.1066489E+000  0.1892932E+03  0.7818608E-02  0.1160400E+00
         21   -1    0    0  501  502  0.00000000000E+00  0.00000000000E+00  0.20480126997E+04  0.20480126997E+04  0.00000000000E+00 0.  1.
         21   -1    0    0  502  503 -0.00000000000E+00 -0.00000000000E+00 -0.18767872739E+02  0.18767872739E+02  0.00000000000E+00 0.  1.
         -6    2    1    2    0  503 -0.17879303651E+02  0.62403857979E+02  0.68164500885E+03  0.70595097527E+03  0.17179333633E+03 0.  0.
        -24    2    3    3    0    0 -0.18957927086E+02  0.10886104178E+03  0.51882069225E+03  0.53656006220E+03  0.80694858740E+02 0.  0.
          6    2    1    2  501    0  0.17879303651E+02 -0.62403857979E+02  0.13475998182E+04  0.13608295972E+04  0.17781454316E+03 0.  0.
         24    2    5    5    0    0  0.78017456839E+02 -0.64378902281E+02  0.95499865860E+03  0.96361648218E+03  0.79390932525E+02 0.  0.
          5    1    5    5  501    0 -0.60138153188E+02  0.19750443025E+01  0.39260115956E+03  0.39721311504E+03  0.47000000000E+01 0. -1.
        -13    1    6    6    0    0  0.45674105535E+02 -0.73113870855E+02  0.49926237955E+03  0.50665045708E+03  0.00000000000E+00 0.  1.
         14    1    6    6    0    0  0.32343351304E+02  0.87349685736E+01  0.45573627905E+03  0.45696602510E+03  0.00000000000E+00 0. -1.
         -5    1    3    3    0  503  0.10786234355E+01 -0.46457183797E+02  0.16282431660E+03  0.16939091307E+03  0.47000000000E+01 0.  1.
         11    1    4    4    0    0 -0.47469007082E+02  0.39389033600E+02  0.22680220623E+03  0.23504051428E+03  0.00000000000E+00 0. -1.
        -12    1    4    4    0    0  0.28511079996E+02  0.69472008175E+02  0.29201848602E+03  0.30151954792E+03  0.00000000000E+00 0.  1.
</event>
<event>
12    1  0.1066489E+000  0.2682029E+03  0.7818608E-02  0.1102372E+00
         21   -1    0    0  501  502  0.00000000000E+00  0.00000000000E+00  0.21123696537E+03  0.21123696537E+03  0.00000000000E+00 0.  1.
         21   -1    0    0  502  503 -0.00000000000E+00 -0.00000000000E+00 -0.34195524261E+03  0.34195524261E+03  0.00000000000E+00 0.  1.
         -6    2    1    2    0  503 -0.19991050031E+03  0.51861402151E+02 -0.86173233600E+02  0.28131527387E+03  0.17046596128E+03 0.  0.
        -24    2    3    3    0    0 -0.10950052364E+03  0.78707083642E+02 -0.98921727487E+02  0.18603007779E+03  0.81464789812E+02 0.  0.
          6    2    1    2  501    0  0.19991050031E+03 -0.51861402151E+02 -0.44545043637E+02  0.27187693410E+03  0.17111105521E+03 0.  0.
         24    2    5    5    0    0  0.39025749825E+02 -0.58203193951E+02 -0.55661039128E+01  0.10614954046E+03  0.79536925330E+02 0.  0.
          5    1    5    5  501    0  0.16088475049E+03  0.63417918001E+01 -0.38978939724E+02  0.16572739365E+03  0.47000000000E+01 0. -1.
        -13    1    6    6    0    0 -0.18292932241E+02 -0.18864399794E+02 -0.22503640080E+02  0.34596398171E+02  0.00000000000E+00 0.  1.
         14    1    6    6    0    0  0.57318682066E+02 -0.39338794158E+02  0.16937536168E+02  0.71553142286E+02  0.00000000000E+00 0. -1.
         -5    1    3    3    0  503 -0.90409976670E+02 -0.26845681491E+02  0.12748493886E+02  0.95285196083E+02  0.47000000000E+01 0.  1.
         11    1    4    4    0    0 -0.11623489504E+03  0.56564727297E+02 -0.64277907313E+02  0.14436678485E+03  0.00000000000E+00 0. -1.
        -12    1    4    4    0    0  0.67343713925E+01  0.22142356345E+02 -0.34643820173E+02  0.41663292942E+02  0.00000000000E+00 0.  1.
</event>
<event>
12    1  0.1066489E+000  0.2525321E+03  0.7818608E-02  0.1113200E+00
         21   -1    0    0  503  502  0.00000000000E+00  0.00000000000E+00  0.97582699718E+02  0.97582699718E+02  0.00000000000E+00 0. -1.
         21   -1    0    0  501  503 -0.00000000000E+00 -0.00000000000E+00 -0.77758859135E+03  0.77758859135E+03  0.00000000000E+00 0. -1.
          6    2    1    2  501    0 -0.12727009621E+03  0.11609003612E+03 -0.15431054803E+03  0.29594629477E+03  0.18465614065E+03 0.  0.
         24    2    3    3    0    0 -0.13475495603E+02  0.13537953541E+02 -0.82254975451E+02  0.12659389204E+03  0.94314724983E+02 0.  0.
         -6    2    1    2    0  502  0.12727009621E+03 -0.11609003612E+03 -0.52569534360E+03  0.57922499630E+03  0.17167244441E+03 0.  0.
        -24    2    5    5    0    0  0.14437268591E+03 -0.59666066851E+02 -0.44835888062E+03  0.48186390864E+03  0.82241283096E+02 0.  0.
          5    1    3    3  501    0 -0.11379460061E+03  0.10255208258E+03 -0.72055572578E+02  0.16935240273E+03  0.47000000000E+01 0. -1.
        -11    1    4    4    0    0 -0.71184392346E+01  0.35268029925E+01 -0.10267403036E+03  0.10298090612E+03  0.00000000000E+00 0.  1.
         12    1    4    4    0    0 -0.63570563682E+01  0.10011150548E+02  0.20419054904E+02  0.23612985922E+02  0.00000000000E+00 0. -1.
         -5    1    5    5    0  502 -0.17102589700E+02 -0.56423969272E+02 -0.77336462982E+02  0.97361087656E+02  0.47000000000E+01 0.  1.
         13    1    6    6    0    0  0.78617676483E+02 -0.49793681723E+02 -0.35662298820E+03  0.36856492713E+03  0.00000000000E+00 0. -1.
        -14    1    6    6    0    0  0.65755009431E+02 -0.98723851284E+01 -0.91735892422E+02  0.11329898151E+03  0.00000000000E+00 0.  1.
</event>
<event>
12    1  0.1066489E+000  0.2252150E+03  0.7818608E-02  0.1130062E+00
         21   -1    0    0  503  502  0.00000000000E+00  0.00000000000E+00  0.12131388290E+03  0.12131388290E+03  0.00000000000E+00 0.  1.
         21   -1    0    0  501  503 -0.00000000000E+00 -0.00000000000E+00 -0.42927765297E+03  0.42927765297E+03  0.00000000000E+00 0.  1.
          6    2    1    2  501    0 -0.14131546907E+03  0.33533865626E+02 -0.10937202519E+03  0.25032421648E+03  0.17206217341E+03 0.  0.
         24    2    3    3    0    0 -0.32814938232E+02  0.65400290845E+02 -0.29269121197E+02  0.11166492369E+03  0.79109768756E+02 0.  0.
         -6    2    1    2    0  502  0.14131546907E+03 -0.33533865626E+02 -0.19859174488E+03  0.30026731939E+03  0.17212553564E+03 0.  0.
        -24    2    5    5    0    0  0.66376800042E+02  0.46825934512E+02 -0.93811707606E+02  0.14836456166E+03  0.81319486884E+02 0.  0.
          5    1    3    3  501    0 -0.10850053084E+03 -0.31866425219E+02 -0.80102903990E+02  0.13865929279E+03  0.47000000000E+01 0. -1.
        -11    1    4    4    0    0  0.62937500202E+01 -0.13610713176E+02 -0.16977927365E+02  0.22651993733E+02  0.00000000000E+00 0.  1.
         12    1    4    4    0    0 -0.39108688252E+02  0.79011004021E+02 -0.12291193832E+02  0.89012929954E+02  0.00000000000E+00 0. -1.
         -5    1    5    5    0  502  0.74938669031E+02 -0.80359800138E+02 -0.10478003728E+03  0.15190275773E+03  0.47000000000E+01 0.  1.
         11    1    6    6    0    0  0.71493833758E+02  0.90125276365E+01 -0.40061628107E+02  0.82447122244E+02  0.00000000000E+00 0. -1.
        -12    1    6    6    0    0 -0.51170337155E+01  0.37813406875E+02 -0.53750079499E+02  0.65917439420E+02  0.00000000000E+00 0.  1.
</event>
<event>
12    1  0.1066489E+000  0.2578591E+03  0.7818608E-02  0.1108462E+00
         21   -1    0    0  501  502  0.00000000000E+00  0.00000000000E+00  0.17144640464E+03  0.17144640464E+03  0.00000000000E+00 0. -1.
         21   -1    0    0  502  503 -0.00000000000E+00 -0.00000000000E+00 -0.38789351028E+03  0.38789351028E+03  0.00000000000E+00 0. -1.
         -6    2    1    2    0  503 -0.16197122276E+03 -0.10369202424E+03 -0.11631482846E+03  0.28287888014E+03  0.17176905605E+03 0.  0.
        -24    2    3    3    0    0 -0.16886599747E+03 -0.52139093771E+02 -0.12462040752E+03  0.22999868345E+03  0.78325846411E+02 0.  0.
          6    2    1    2  501    0  0.16197122276E+03  0.10369202424E+03 -0.10013227717E+03  0.27646103478E+03  0.17151535770E+03 0.  0.
         24    2    5    5    0    0  0.70233255670E+02 -0.87950612200E+01 -0.76977952042E+02  0.12939842304E+03  0.76212095369E+02 0.  0.
          5    1    5    5  501    0  0.91737967089E+02  0.11248708546E+03 -0.23154325132E+02  0.14706261174E+03  0.47000000000E+01 0. -1.
        -13    1    6    6    0    0  0.48037942001E+02  0.30594081892E+02 -0.30698111826E+02  0.64699426491E+02  0.00000000000E+00 0.  1.
         14    1    6    6    0    0  0.22195313669E+02 -0.39389143112E+02 -0.46279840216E+02  0.64698996548E+02  0.00000000000E+00 0. -1.
         -5    1    3    3    0  503  0.68947747139E+01 -0.51552930468E+02  0.83055790625E+01  0.52880196688E+02  0.47000000000E+01 0.  1.
         13    1    4    4    0    0 -0.29546558653E+02  0.60616272127E+00 -0.61453311556E+02  0.68189999727E+02  0.00000000000E+00 0. -1.
        -14    1    4    4    0    0 -0.13931943882E+03 -0.52745256493E+02 -0.63167095965E+02  0.16180868372E+03  0.00000000000E+00 0.  1.
</event>
<event>
12    1  0.1066489E+000  0.2161853E+03  0.7818608E-02  0.1136766E+00
         21   -1    0    0  501  502  0.00000000000E+00  0.00000000000E+00  0.16648887107E+03  0.16648887107E+03  0.00000000000E+00 0.  1.
         21   -1    0    0  502  503 -0.00000000000E+00 -0.00000000000E+00 -0.35233299007E+03  0.35233299007E+03  0.00000000000E+00 0.  1.
         -6    2    1    2    0  503  0.12846268088E+03 -0.35192486439E+02 -0.20992118977E+03  0.30133535881E+03  0.17027895077E+03 0.  0.
        -24    2    3    3    0    0  0.79622331386E+02  0.41718609845E+02 -0.14857584850E+03  0.19139884365E+03  0.80489605110E+02 0.  0.
          6    2    1    2  501    0 -0.12846268088E+03  0.35192486439E+02  0.24077070772E+02  0.21748650232E+03  0.17023366845E+03 0.  0.
         24    2    5    5    0    0 -0.56254422149E+02  0.67952379204E+02 -0.27305918693E+02  0.12288446847E+03  0.81073383696E+02 0.  0.
          5    1    5    5  501    0 -0.72208258732E+02 -0.32759892765E+02  0.51382989465E+02  0.94602033854E+02  0.47000000000E+01 0. -1.
        -13    1    6    6    0    0  0.13688130867E+02  0.14893180671E+02 -0.28664443615E+02  0.35083074051E+02  0.00000000000E+00 0.  1.
         14    1    6    6    0    0 -0.69942553016E+02  0.53059198533E+02  0.13585249219E+01  0.87801394416E+02  0.00000000000E+00 0. -1.
         -5    1    3    3    0  503  0.48840349495E+02 -0.76911096284E+02 -0.61345341272E+02  0.10993651516E+03  0.47000000000E+01 0.  1.
         13    1    4    4    0    0  0.76324901753E+02  0.42775093208E+02 -0.68163433576E+02  0.11091191507E+03  0.00000000000E+00 0. -1.
        -14    1    4    4    0    0  0.32974296336E+01 -0.10564833631E+01 -0.80412414925E+02  0.80486928587E+02  0.00000000000E+00 0.  1.
</event>
<event>
12    1  0.1066489E+000  0.2337040E+03  0.7818608E-02  0.1124231E+00
         21   -1    0    0  503  502  0.00000000000E+00  0.00000000000E+00  0.86993634006E+03  0.86993634006E+03  0.00000000000E+00 0. -1.
         21   -1    0    0  501  503 -0.00000000000E+00 -0.00000000000E+00 -0.70243038272E+02  0.70243038272E+02  0.00000000000E+00 0.  1.
          6    2    1    2  501    0 -0.17853794402E+02 -0.15672663297E+03  0.24319352976E+03  0.33659876765E+03  0.17109541784E+03 0.  0.
         24    2    3    3    0    0 -0.41083773202E+02 -0.17883460368E+03  0.20941681305E+03  0.28978690082E+03  0.80320323728E+02 0.  0.
         -6    2    1    2    0  502  0.17853794402E+02  0.15672663297E+03  0.55649977202E+03  0.60358061069E+03  0.17244002399E+03 0.  0.
        -24    2    5    5    0    0 -0.31800063822E+02  0.21445037453E+02  0.26858084819E+03  0.28157748582E+03  0.75359636508E+02 0.  0.
          5    1    3    3  501    0  0.23229978800E+02  0.22107970711E+02  0.33776716710E+02  0.46811866826E+02  0.47000000000E+01 0. -1.
        -11    1    4    4    0    0 -0.22860600419E+02 -0.29189672687E+02  0.90431597244E+02  0.97736982884E+02  0.00000000000E+00 0.  1.
         12    1    4    4    0    0 -0.18223172783E+02 -0.14964493099E+03  0.11898521581E+03  0.19204991794E+03  0.00000000000E+00 0. -1.
         -5    1    5    5    0  502  0.49653858224E+02  0.13528159552E+03  0.28791892383E+03  0.32200312486E+03  0.47000000000E+01 0.  1.
         13    1    6    6    0    0  0.14936266756E+02 -0.26100073040E+01  0.11113479783E+02  0.18799298807E+02  0.00000000000E+00 0. -1.
        -14    1    6    6    0    0 -0.46736330579E+02  0.24055044757E+02  0.25746736841E+03  0.26277818701E+03  0.00000000000E+00 0.  1.
</event>
<event>
12    1  0.1066489E+000  0.1822693E+03  0.7818608E-02  0.1166153E+00
         21   -1    0    0  503  502  0.00000000000E+00  0.00000000000E+00  0.95667862027E+03  0.95667862027E+03  0.00000000000E+00 0. -1.
         21   -1    0    0  501  503 -0.00000000000E+00 -0.00000000000E+00 -0.39430404761E+02  0.39430404761E+02  0.00000000000E+00 0. -1.
          6    2    1    2  501    0 -0.53753915727E+02  0.12050005892E+02  0.64056841715E+03  0.66599549360E+03  0.17374525704E+03 0.  0.
         24    2    3    3    0    0 -0.10331931900E+03  0.42382941760E+01  0.42576932658E+03  0.44536346657E+03  0.79851443815E+02 0.  0.
         -6    2    1    2    0  502  0.53753915727E+02 -0.12050005892E+02  0.27667979836E+03  0.33011353143E+03  0.17143088029E+03 0.  0.
        -24    2    5    5    0    0  0.49631181964E+02 -0.53937150764E+02  0.92458216605E+02  0.14108652007E+03  0.77358993487E+02 0.  0.
          5    1    3    3  501    0  0.49565403275E+02  0.78117117157E+01  0.21479909056E+03  0.22063202702E+03  0.47000000000E+01 0. -1.
        -11    1    4    4    0    0 -0.74541966335E+02  0.37057171246E+02  0.22503952025E+03  0.23994275226E+03  0.00000000000E+00 0.  1.
         12    1    4    4    0    0 -0.28777352667E+02 -0.32818877070E+02  0.20072980633E+03  0.20542071431E+03  0.00000000000E+00 0. -1.
         -5    1    5    5    0  502  0.41227337631E+01  0.41887144872E+02  0.18422158175E+03  0.18902701136E+03  0.47000000000E+01 0.  1.
         11    1    6    6    0    0  0.47741143733E+02 -0.43374413031E+01  0.17192345664E+02  0.50927467553E+02  0.00000000000E+00 0. -1.
        -12    1    6    6    0    0  0.18900382316E+01 -0.49599709461E+02  0.75265870940E+02  0.90159052521E+02  0.00000000000E+00 0.  1.
</event>
<event>
12    1  0.1066489E+000  0.1922357E+03  0.7818608E-02  0.1156526E+00
         21   -1    0    0  501  502  0.00000000000E+00  0.00000000000E+00  0.26520248456E+02  0.26520248456E+02  0.00000000000E+00 0.  1.
         21   -1    0    0  502  503 -0.00000000000E+00 -0.00000000000E+00 -0.14583287466E+04  0.14583287466E+04  0.00000000000E+00 0.  1.
         -6    2    1    2    0  503  0.46120747309E+02  0.71861791422E+02 -0.87558146770E+03  0.89643597716E+03  0.17223041008E+03 0.  0.
        -24    2    3    3    0    0  0.18845511936E+02  0.44819615704E+02 -0.84170989564E+03  0.84501038891E+03  0.56595562391E+02 0.  0.
          6    2    1    2  501    0 -0.46120747309E+02 -0.71861791422E+02 -0.55622703047E+03  0.58841301793E+03  0.17190151204E+03 0.  0.
         24    2    5    5    0    0  0.21667441460E+02  0.91393254943E+01 -0.19425671605E+03  0.21131751543E+03  0.79789819587E+02 0.  0.
          5    1    5    5  501    0 -0.67788188769E+02 -0.81001116917E+02 -0.36197031443E+03  0.37709550250E+03  0.47000000000E+01 0. -1.
        -11    1    6    6    0    0  0.29116581533E+02 -0.22528977118E+02 -0.15957043935E+03  0.16376219114E+03  0.00000000000E+00 0.  1.
         12    1    6    6    0    0 -0.74491400730E+01  0.31668302612E+02 -0.34686276692E+02  0.47555324296E+02  0.00000000000E+00 0. -1.
         -5    1    3    3    0  503  0.27275235373E+02  0.27042175718E+02 -0.33871572068E+02  0.51425588247E+02  0.47000000000E+01 0.  1.
         11    1    4    4    0    0  0.29034980164E+02  0.28256354945E+02 -0.75756523573E+03  0.75864783533E+03  0.00000000000E+00 0. -1.
        -12    1    4    4    0    0 -0.10189468228E+02  0.16563260760E+02 -0.84144659909E+02  0.86362553581E+02  0.00000000000E+00 0.  1.
</event>
<event>
12    1  0.1066489E+000  0.2381789E+03  0.7818608E-02  0.1123213E+00
         21   -1    0    0  503  502  0.00000000000E+00  0.00000000000E+00  0.41195916299E+02  0.41195916299E+02  0.00000000000E+00 0. -1.
         21   -1    0    0  501  503 -0.00000000000E+00 -0.00000000000E+00 -0.17724768819E+04  0.17724768819E+04  0.00000000000E+00 0. -1.
          6    2    1    2  501    0 -0.14370832404E+03 -0.17204366794E+02 -0.41730232308E+03  0.48048975483E+03  0.18915893586E+03 0.  0.
         24    2    3    3    0    0  0.11857783682E+02  0.12910215885E+02 -0.16117961323E+03  0.17927781207E+03  0.76513956059E+02 0.  0.
         -6    2    1    2    0  502  0.14370832404E+03  0.17204366794E+02 -0.13139786425E+04  0.13331830433E+04  0.17288459007E+03 0.  0.
        -24    2    5    5    0    0  0.13402252064E+03 -0.38499803294E+02 -0.71046771578E+03  0.72701120465E+03  0.65853212798E+02 0.  0.
          5    1    3    3  501    0 -0.15556610772E+03 -0.30114582679E+02 -0.25612270985E+03  0.30121194276E+03  0.47000000000E+01 0. -1.
        -11    1    4    4    0    0 -0.18153825314E+02  0.34511426978E+02 -0.60052787027E+02  0.71602633998E+02  0.00000000000E+00 0.  1.
         12    1    4    4    0    0  0.30011608996E+02 -0.21601211094E+02 -0.10112682620E+03  0.10767517808E+03  0.00000000000E+00 0. -1.
         -5    1    5    5    0  502  0.96858034000E+01  0.55704170089E+02 -0.60351092670E+03  0.60617183867E+03  0.47000000000E+01 0.  1.
         11    1    6    6    0    0  0.13560316697E+03 -0.22200244197E+02 -0.65000474626E+03  0.66436980658E+03  0.00000000000E+00 0. -1.
        -12    1    6    6    0    0 -0.15806463306E+01 -0.16299559097E+02 -0.60462969518E+02  0.62641398073E+02  0.00000000000E+00 0.  1.
</event>
<event>
12    1  0.1066489E+000  0.6213656E+03  0.7818608E-02  0.9862217E-01
         21   -1    0    0  503  502  0.00000000000E+00  0.00000000000E+00  0.74366688419E+03  0.74366688419E+03  0.00000000000E+00 0.  1.
         21   -1    0    0  501  503 -0.00000000000E+00 -0.00000000000E+00 -0.53756135818E+03  0.53756135818E+03  0.00000000000E+00 0.  1.
          6    2    1    2  501    0 -0.53325425265E+03 -0.26773106163E+03  0.22247689350E+03  0.65999334474E+03  0.17336443588E+03 0.  0.
         24    2    3    3    0    0 -0.26824747822E+03 -0.63463064257E+02  0.10704435069E+03  0.30601486067E+03  0.78754884543E+02 0.  0.
         -6    2    1    2    0  502  0.53325425265E+03  0.26773106163E+03 -0.16371367488E+02  0.62123489763E+03  0.17211843896E+03 0.  0.
        -24    2    5    5    0    0  0.50865105913E+03  0.24519748914E+03 -0.51456892895E+02  0.57259167494E+03  0.79785373045E+02 0.  0.
          5    1    3    3  501    0 -0.26500677443E+03 -0.20426799737E+03  0.11543254281E+03  0.35397848407E+03  0.47000000000E+01 0. -1.
        -13    1    4    4    0    0 -0.11549349907E+03 -0.53690406125E+02  0.17174804368E+02  0.12851607659E+03  0.00000000000E+00 0.  1.
         14    1    4    4    0    0 -0.15275397915E+03 -0.97726581328E+01  0.89869546321E+02  0.17749878407E+03  0.00000000000E+00 0. -1.
         -5    1    5    5    0  502  0.24603193520E+02  0.22533572489E+02  0.35085525407E+02  0.48643222689E+02  0.47000000000E+01 0.  1.
         11    1    6    6    0    0  0.45027067979E+03  0.24068011582E+03 -0.34946929540E+02  0.51175374069E+03  0.00000000000E+00 0. -1.
        -12    1    6    6    0    0  0.58380379345E+02  0.45173733207E+01 -0.16509963355E+02  0.60837934253E+02  0.00000000000E+00 0.  1.
</event>
<event>
12    1  0.1066489E+000  0.1866805E+03  0.7818608E-02  0.1161559E+00
         21   -1    0    0  501  502  0.00000000000E+00  0.00000000000E+00  0.11409116004E+03  0.11409116004E+03  0.00000000000E+00 0. -1.
         21   -1    0    0  502  503 -0.00000000000E+00 -0.00000000000E+00 -0.31998642500E+03  0.31998642500E+03  0.00000000000E+00 0. -1.
         -6    2    1    2    0  503 -0.58101135216E+02  0.43618213994E+02 -0.56003313207E+02  0.19489989775E+03  0.17196310229E+03 0.  0.
        -24    2    3    3    0    0 -0.26529691477E+02 -0.10921615240E+02 -0.90788207901E+02  0.12276510773E+03  0.77496237153E+02 0.  0.
          6    2    1    2  501    0  0.58101135216E+02 -0.43618213994E+02 -0.14989195175E+03  0.23917768729E+03  0.17163938474E+03 0.  0.
         24    2    5    5    0    0 -0.21999162983E+02  0.47930001091E+01 -0.32837361362E+02  0.89232462116E+02  0.79857397730E+02 0.  0.
          5    1    5    5  501    0  0.80100298199E+02 -0.48411214103E+02 -0.11705459039E+03  0.14994522518E+03  0.47000000000E+01 0. -1.
        -13    1    6    6    0    0  0.89822058761E+01 -0.30927669905E+02 -0.26134338791E+02  0.41475347524E+02  0.00000000000E+00 0.  1.
         14    1    6    6    0    0 -0.30981368859E+02  0.35720670014E+02 -0.67030225709E+01  0.47757114593E+02  0.00000000000E+00 0. -1.
         -5    1    3    3    0  503 -0.31571443739E+02  0.54539829234E+02  0.34784894694E+02  0.72134790022E+02  0.47000000000E+01 0.  1.
         11    1    4    4    0    0  0.27185552675E+02 -0.16856954449E+01 -0.22072900957E+02  0.35058648006E+02  0.00000000000E+00 0. -1.
        -12    1    4    4    0    0 -0.53715244153E+02 -0.92359197953E+01 -0.68715306944E+02  0.87706459724E+02  0.00000000000E+00 0.  1.
</event>
<event>
12    1  0.1066489E+000  0.2811743E+03  0.7818608E-02  0.1095315E+00
         21   -1    0    0  501  502  0.00000000000E+00  0.00000000000E+00  0.91700441539E+02  0.91700441539E+02  0.00000000000E+00 0. -1.
         21   -1    0    0  502  503 -0.00000000000E+00 -0.00000000000E+00 -0.88351666061E+03  0.88351666061E+03  0.00000000000E+00 0. -1.
         -6    2    1    2    0  503  0.38070099280E+02 -0.21686420931E+03 -0.31146892060E+03  0.41960919969E+03  0.17487016391E+03 0.  0.
        -24    2    3    3    0    0 -0.23850775078E+02 -0.75595212818E+02 -0.20079541900E+03  0.22970965254E+03  0.78512600930E+02 0.  0.
          6    2    1    2  501    0 -0.38070099280E+02  0.21686420931E+03 -0.48034729848E+03  0.55560790246E+03  0.17171836357E+03 0.  0.
         24    2    5    5    0    0 -0.20221738979E+02  0.21174176623E+03 -0.30459548228E+03  0.37881538485E+03  0.74021575773E+02 0.  0.
          5    1    5    5  501    0 -0.17848360301E+02  0.51224430885E+01 -0.17575181620E+03  0.17679251762E+03  0.47000000000E+01 0. -1.
        -11    1    6    6    0    0 -0.35317692405E+02  0.43525111295E+02 -0.68018685611E+02  0.88138052522E+02  0.00000000000E+00 0.  1.
         12    1    6    6    0    0  0.15095953426E+02  0.16821665493E+03 -0.23657679667E+03  0.29067733232E+03  0.00000000000E+00 0. -1.
         -5    1    3    3    0  503  0.61920874357E+02 -0.14126899650E+03 -0.11067350160E+03  0.18989954715E+03  0.47000000000E+01 0.  1.
         13    1    4    4    0    0  0.69302190937E+01 -0.92762032956E+01 -0.12072946291E+03  0.12128346589E+03  0.00000000000E+00 0. -1.
        -14    1    4    4    0    0 -0.30780994171E+02 -0.66319009522E+02 -0.80065956096E+02  0.10842618665E+03  0.00000000000E+00 0.  1.
</event>
<event>
12    1  0.1066489E+000  0.2504545E+03  0.7818608E-02  0.1113182E+00
         21   -1    0    0  503  502  0.00000000000E+00  0.00000000000E+00  0.28203936803E+02  0.28203936803E+02  0.00000000000E+00 0. -1.
         21   -1    0    0  501  503 -0.00000000000E+00 -0.00000000000E+00 -0.23377546759E+04  0.23377546759E+04  0.00000000000E+00 0. -1.
          6    2    1    2  501    0  0.17812264003E+03  0.35570238379E+02 -0.88129677051E+03  0.91591141909E+03  0.17092926363E+03 0.  0.
         24    2    3    3    0    0  0.64842990533E+01  0.70238884874E+01 -0.24115757837E+03  0.25253001334E+03  0.74317217981E+02 0.  0.
         -6    2    1    2    0  502 -0.17812264003E+03 -0.35570238379E+02 -0.14282539686E+04  0.14500471936E+04  0.17243708465E+03 0.  0.
        -24    2    5    5    0    0 -0.16657592729E+03 -0.69629175396E+02 -0.94304214187E+03  0.96348173599E+03  0.79829898025E+02 0.  0.
          5    1    3    3  501    0  0.17163834097E+03  0.28546349892E+02 -0.64013919213E+03  0.66338140574E+03  0.47000000000E+01 0. -1.
        -11    1    4    4    0    0  0.12014867728E+02  0.17710346022E+02 -0.15194164880E+02  0.26246448314E+02  0.00000000000E+00 0.  1.
         12    1    4    4    0    0 -0.55305686744E+01 -0.10686457534E+02 -0.22596341349E+03  0.22628356503E+03  0.00000000000E+00 0. -1.
         -5    1    5    5    0  502 -0.11546712735E+02  0.34058937017E+02 -0.48521182668E+03  0.48656545758E+03  0.47000000000E+01 0.  1.
         13    1    6    6    0    0 -0.24384102790E+01 -0.62235396588E+01 -0.33863702444E+01  0.74930497133E+01  0.00000000000E+00 0. -1.
        -14    1    6    6    0    0 -0.16413751701E+03 -0.63405635738E+02 -0.93965577163E+03  0.95598868628E+03  0.00000000000E+00 0.  1.
</event>
<event>
12    1  0.1066489E+000  0.2120937E+03  0.7818608E-02  0.1140418E+00
         21   -1    0    0  501  502  0.00000000000E+00  0.00000000000E+00  0.66130897551E+03  0.66130897551E+03  0.00000000000E+00 0. -1.
         21   -1    0    0  502  503 -0.00000000000E+00 -0.00000000000E+00 -0.12957794950E+03  0.12957794950E+03  0.00000000000E+00 0. -1.
         -6    2    1    2    0  503 -0.10178973228E+03 -0.63543596716E+02  0.54103845030E+03  0.58112508174E+03  0.17488515558E+03 0.  0.
        -24    2    3    3    0    0 -0.54348793943E+02 -0.53967532731E+02  0.51318330111E+03  0.52508631865E+03  0.80574533865E+02 0.  0.
          6    2    1    2  501    0  0.10178973228E+03  0.63543596716E+02 -0.93074242835E+01  0.20976184328E+03  0.17179774290E+03 0.  0.
         24    2    5    5    0    0  0.11438698439E+03  0.95151212212E+02 -0.29168461206E+02  0.17008460918E+03  0.77070355956E+02 0.  0.
          5    1    5    5  501    0 -0.12597252110E+02 -0.31607615496E+02  0.19861036922E+02  0.39677234098E+02  0.47000000000E+01 0. -1.
        -13    1    6    6    0    0 -0.66025379932E+01  0.18140931749E+01 -0.15161529177E+02  0.16635997385E+02  0.00000000000E+00 0.  1.
         14    1    6    6    0    0  0.12098952238E+03  0.93337119037E+02 -0.14006932028E+02  0.15344861179E+03  0.00000000000E+00 0. -1.
         -5    1    3    3    0  503 -0.47440938338E+02 -0.95760639842E+01  0.27855149190E+02  0.56038763086E+02  0.47000000000E+01 0.  1.
         13    1    4    4    0    0  0.86446828164E+01 -0.50974495632E+01  0.24737861176E+03  0.24758209162E+03  0.00000000000E+00 0. -1.
        -14    1    4    4    0    0 -0.62993476759E+02 -0.48870083168E+02  0.26580468934E+03  0.27750422703E+03  0.00000000000E+00 0.  1.
</event>
<event>
12    1  0.1066489E+000  0.2318535E+03  0.7818608E-02  0.1125643E+00
         21   -1    0    0  501  502  0.00000000000E+00  0.00000000000E+00  0.41352854642E+03  0.41352854642E+03  0.00000000000E+00 0.  1.
         21   -1    0    0  502  503 -0.00000000000E+00 -0.00000000000E+00 -0.15260525095E+03  0.15260525095E+03  0.00000000000E+00 0.  1.
         -6    2    1    2    0  503 -0.11594463249E+03 -0.10305369834E+03  0.24130637545E+03  0.33345185722E+03  0.16999456375E+03 0.  0.
        -24    2    3    3    0    0 -0.12737564419E+03 -0.49696430142E+02  0.22738330273E+03  0.27693984034E+03  0.79361318673E+02 0.  0.
          6    2    1    2  501    0  0.11594463249E+03  0.10305369834E+03  0.19616920022E+02  0.23268194016E+03  0.17231610250E+03 0.  0.
         24    2    5    5    0    0  0.14457272966E+03  0.11377702534E+03  0.15138890628E+02  0.20142973325E+03  0.80611821524E+02 0.  0.
          5    1    5    5  501    0 -0.28628097167E+02 -0.10723327006E+02  0.44780293942E+01  0.31252206910E+02  0.47000000000E+01 0. -1.
        -11    1    6    6    0    0  0.57783731087E+02  0.89181550490E+02  0.29031048850E+02  0.11015947678E+03  0.00000000000E+00 0.  1.
         12    1    6    6    0    0  0.86788998570E+02  0.24595474854E+02 -0.13892158221E+02  0.91270256470E+02  0.00000000000E+00 0. -1.
         -5    1    3    3    0  503  0.11431011704E+02 -0.53357268195E+02  0.13923072712E+02  0.56512016877E+02  0.47000000000E+01 0.  1.
         11    1    4    4    0    0 -0.88880661859E+02 -0.69956606715E+02  0.18025390257E+03  0.21280312091E+03  0.00000000000E+00 0. -1.
        -12    1    4    4    0    0 -0.38494982334E+02  0.20260176572E+02  0.47129400162E+02  0.64136719430E+02  0.00000000000E+00 0.  1.
</event>
<event>
12    1  0.1066489E+000  0.3351893E+03  0.7818608E-02  0.1069124E+00
         21   -1    0    0  501  502  0.00000000000E+00  0.00000000000E+00  0.10897817458E+03  0.10897817458E+03  0.00000000000E+00 0. -1.
         21   -1    0    0  502  503 -0.00000000000E+00 -0.00000000000E+00 -0.12041347601E+04  0.12041347601E+04  0.00000000000E+00 0. -1.
         -6    2    1    2    0  503  0.25150499680E+03  0.13556217859E+03 -0.29170705074E+03  0.44254816670E+03  0.17065757739E+03 0.  0.
        -24    2    3    3    0    0  0.13685299333E+03  0.47241997011E+01 -0.13092601790E+03  0.20561718700E+03  0.79910860222E+02 0.  0.
          6    2    1    2  501    0 -0.25150499680E+03 -0.13556217859E+03 -0.80344953473E+03  0.87056476794E+03  0.17527119741E+03 0.  0.
         24    2    5    5    0    0 -0.20611936619E+03 -0.14452448575E+03 -0.51889038621E+03  0.58223131962E+03  0.79834557320E+02 0.  0.
          5    1    5    5  501    0 -0.45385630604E+02  0.89623071569E+01 -0.28455914852E+03  0.28833344832E+03  0.47000000000E+01 0. -1.
        -13    1    6    6    0    0 -0.14880866533E+03 -0.11526521809E+03 -0.45093840921E+03  0.48864663949E+03  0.00000000000E+00 0.  1.
         14    1    6    6    0    0 -0.57310700864E+02 -0.29259267658E+02 -0.67951976997E+02  0.93584680130E+02  0.00000000000E+00 0. -1.
         -5    1    3    3    0  503  0.11465200346E+03  0.13083797889E+03 -0.16078103285E+03  0.23693097970E+03  0.47000000000E+01 0.  1.
         13    1    4    4    0    0  0.11506982914E+03  0.23169494006E+02 -0.13251957247E+03  0.17702917307E+03  0.00000000000E+00 0. -1.
        -14    1    4    4    0    0  0.21783164197E+02 -0.18445294305E+02  0.15935545745E+01  0.28588013932E+02  0.00000000000E+00 0.  1.
</event>
<event>
12    1  0.1066489E+000  0.3080530E+03  0.7818608E-02  0.1081763E+00
         21   -1    0    0  503  502  0.00000000000E+00  0.00000000000E+00  0.56652660867E+03  0.56652660867E+03  0.00000000000E+00 0. -1.
         21   -1    0    0  501  503 -0.00000000000E+00 -0.00000000000E+00 -0.22396190486E+03  0.22396190486E+03  0.00000000000E+00 0.  1.
          6    2    1    2  501    0 -0.20206909877E+03 -0.14903619971E+03 -0.30063865149E+02  0.30951655591E+03  0.17847395578E+03 0.  0.
         24    2    3    3    0    0 -0.18891551408E+03 -0.17768058724E+03 -0.42910609881E+02  0.27515601783E+03  0.81302221169E+02 0.  0.
         -6    2    1    2    0  502  0.20206909877E+03  0.14903619971E+03  0.37262856896E+03  0.48097195762E+03  0.17157582613E+03 0.  0.
        -24    2    5    5    0    0  0.20042730432E+03  0.13347995083E+03  0.38463346730E+03  0.46070129032E+03  0.79465546931E+02 0.  0.
          5    1    3    3  501    0 -0.13153584685E+02  0.28644387524E+02  0.12846744732E+02  0.34360538076E+02  0.47000000000E+01 0. -1.
        -13    1    4    4    0    0 -0.11184191910E+02  0.55812395902E+01  0.79974629600E+01  0.14838995850E+02  0.00000000000E+00 0.  1.
         14    1    4    4    0    0 -0.17773132217E+03 -0.18326182683E+03 -0.50908072841E+02  0.26031702198E+03  0.00000000000E+00 0. -1.
         -5    1    5    5    0  502  0.16417944478E+01  0.15556248887E+02 -0.12004898343E+02  0.20270667297E+02  0.47000000000E+01 0.  1.
         11    1    6    6    0    0  0.18885853237E+03  0.12376849280E+03  0.30410839784E+03  0.37877183461E+03  0.00000000000E+00 0. -1.
        -12    1    6    6    0    0  0.11568771950E+02  0.97114580244E+01  0.80525069463E+02  0.81929455713E+02  0.00000000000E+00 0.  1.
</event>
<event>
12    1  0.1066489E+000  0.2455964E+03  0.7818608E-02  0.1118323E+00
         21   -1    0    0  501  502  0.00000000000E+00  0.00000000000E+00  0.15730383655E+04  0.15730383655E+04  0.00000000000E+00 0. -1.
         21   -1    0    0  502  503 -0.00000000000E+00 -0.00000000000E+00 -0.36824723850E+02  0.36824723850E+02  0.00000000000E+00 0. -1.
         -6    2    1    2    0  503  0.15235056312E+03 -0.17084374235E+02  0.84261092100E+03  0.87406262166E+03  0.17461309362E+03 0.  0.
        -24    2    3    3    0    0  0.11402599495E+02  0.20537171879E+02  0.22208960998E+03  0.23660635131E+03  0.78147142704E+02 0.  0.
          6    2    1    2  501    0 -0.15235056312E+03  0.17084374235E+02  0.69360272065E+03  0.73580046770E+03  0.19187241656E+03 0.  0.
         24    2    5    5    0    0 -0.11554132462E+03 -0.65205569283E+02  0.46233579946E+03  0.48754045545E+03  0.79622485979E+02 0.  0.
          5    1    5    5  501    0 -0.36809238497E+02  0.82289943518E+02  0.23126692119E+03  0.24826001225E+03  0.47000000000E+01 0. -1.
        -13    1    6    6    0    0 -0.28009869887E+02 -0.51846358666E+02  0.26140602947E+03  0.26796587462E+03  0.00000000000E+00 0.  1.
         14    1    6    6    0    0 -0.87531454738E+02 -0.13359210618E+02  0.20092976999E+03  0.21957458083E+03  0.00000000000E+00 0. -1.
         -5    1    3    3    0  503  0.14094796363E+03 -0.37621546114E+02  0.62052131102E+03  0.63745627035E+03  0.47000000000E+01 0.  1.
         11    1    4    4    0    0 -0.56769166980E+01 -0.28251576776E+02  0.98857302256E+02  0.10297157463E+03  0.00000000000E+00 0. -1.
        -12    1    4    4    0    0  0.17079516193E+02  0.48788748655E+02  0.12323230773E+03  0.13363477667E+03  0.00000000000E+00 0.  1.
</event>
<event>
12    1  0.1066489E+000  0.1975810E+03  0.7818608E-02  0.1152244E+00
         21   -1    0    0  503  502  0.00000000000E+00  0.00000000000E+00  0.77301739397E+03  0.77301739397E+03  0.00000000000E+00 0.  1.
         21   -1    0    0  501  503 -0.00000000000E+00 -0.00000000000E+00 -0.16058885771E+03  0.16058885771E+03  0.00000000000E+00 0.  1.
          6    2    1    2  501    0  0.90147653712E+02 -0.31103836748E+02  0.69414037482E+03  0.72171263726E+03  0.17304399066E+03 0.  0.
         24    2    3    3    0    0  0.11148372158E+03 -0.65998499838E+02  0.59633752548E+03  0.61559782848E+03  0.80980367862E+02 0.  0.
         -6    2    1    2    0  502 -0.90147653712E+02  0.31103836748E+02 -0.81711838547E+02  0.21189361442E+03  0.17066936205E+03 0.  0.
        -24    2    5    5    0    0 -0.57662465992E+02 -0.48169493532E+02 -0.39585310789E+02  0.11630971067E+03  0.79471327373E+02 0.  0.
          5    1    3    3  501    0 -0.21336067865E+02  0.34894663090E+02  0.97802849336E+02  0.10611480878E+03  0.47000000000E+01 0. -1.
        -13    1    4    4    0    0 -0.86339253951E+01 -0.62484041730E+01  0.11965155904E+02  0.16023488330E+02  0.00000000000E+00 0.  1.
         14    1    4    4    0    0  0.12011764697E+03 -0.59750095665E+02  0.58437236958E+03  0.59957434015E+03  0.00000000000E+00 0. -1.
         -5    1    5    5    0  502 -0.32485187720E+02  0.79273330281E+02 -0.42126527758E+02  0.95583903749E+02  0.47000000000E+01 0.  1.
         11    1    6    6    0    0 -0.76605611199E+02 -0.43255560158E+02 -0.23718276213E+02  0.91115420090E+02  0.00000000000E+00 0. -1.
        -12    1    6    6    0    0  0.18943145207E+02 -0.49139333742E+01 -0.15867034577E+02  0.25194290580E+02  0.00000000000E+00 0.  1.
</event>
<event>
12    1  0.1066489E+000  0.3820224E+03  0.7818608E-02  0.1050218E+00
         21   -1    0    0  503  502  0.00000000000E+00  0.00000000000E+00  0.53791279012E+03  0.53791279012E+03  0.00000000000E+00 0.  1.
         21   -1    0    0  501  503 -0.00000000000E+00 -0.00000000000E+00 -0.46899245796E+03  0.46899245796E+03  0.00000000000E+00 0.  1.
          6    2    1    2  501    0  0.98569119466E+02  0.32609892434E+03 -0.29259014136E+03  0.48094806712E+03  0.17217918770E+03 0.  0.
         24    2    3    3    0    0  0.18528208830E+02  0.15439871847E+03 -0.21351399151E+03  0.27561264507E+03  0.78688288632E+02 0.  0.
         -6    2    1    2    0  502 -0.98569119466E+02 -0.32609892434E+03  0.36151047352E+03  0.52595718095E+03  0.17287207398E+03 0.  0.
        -24    2    5    5    0    0 -0.13515296055E+03 -0.29498639822E+03  0.32287375377E+03  0.46414089812E+03  0.76785510080E+02 0.  0.
          5    1    3    3  501    0  0.80040910636E+02  0.17170020587E+03 -0.79076149854E+02  0.20533542205E+03  0.47000000000E+01 0. -1.
        -13    1    4    4    0    0 -0.16935506371E+02  0.54340026009E+01 -0.42440514882E+02  0.46016704182E+02  0.00000000000E+00 0.  1.
         14    1    4    4    0    0  0.35463715200E+02  0.14896471587E+03 -0.17107347662E+03  0.22959594089E+03  0.00000000000E+00 0. -1.
         -5    1    5    5    0  502  0.36583841080E+02 -0.31112526118E+02  0.38636719757E+02  0.61816282832E+02  0.47000000000E+01 0.  1.
         11    1    6    6    0    0 -0.70251993585E+01 -0.78744121072E+02  0.10548957888E+03  0.13182579900E+03  0.00000000000E+00 0. -1.
        -12    1    6    6    0    0 -0.12812776119E+03 -0.21624227715E+03  0.21738417488E+03  0.33231509912E+03  0.00000000000E+00 0.  1.
</event>
<event>
12    1  0.1066489E+000  0.1865671E+03  0.7818608E-02  0.1161634E+00
         21   -1    0    0  501  502  0.00000000000E+00  0.00000000000E+00  0.90328806644E+02  0.90328806644E+02  0.00000000000E+00 0. -1.
         21   -1    0    0  502  503 -0.00000000000E+00 -0.00000000000E+00 -0.38534431425E+03  0.38534431425E+03  0.00000000000E+00 0. -1.
         -6    2    1    2    0  503 -0.50025751738E+02 -0.52938742897E+02 -0.14033433935E+03  0.23345452570E+03  0.17176205178E+03 0.  0.
        -24    2    3    3    0    0 -0.25644346681E+02 -0.33342548643E+02 -0.12697970135E+01  0.90837904376E+02  0.80501890787E+02 0.  0.
          6    2    1    2  501    0  0.50025751738E+02  0.52938742897E+02 -0.15468116825E+03  0.24221859519E+03  0.17157650687E+03 0.  0.
         24    2    5    5    0    0 -0.34167456024E+02  0.48904293323E+02 -0.92709125803E+02  0.13749325412E+03  0.82160622965E+02 0.  0.
          5    1    5    5  501    0  0.84193207762E+02  0.40344495739E+01 -0.61972042447E+02  0.10472534107E+03  0.47000000000E+01 0. -1.
        -11    1    6    6    0    0 -0.89423227162E+01  0.32871066393E+02 -0.10090534279E+03  0.10650051805E+03  0.00000000000E+00 0.  1.
         12    1    6    6    0    0 -0.25225133307E+02  0.16033226930E+02  0.81962169911E+01  0.30992736070E+02  0.00000000000E+00 0. -1.
         -5    1    3    3    0  503 -0.24381405057E+02 -0.19596194254E+02 -0.13906454234E+03  0.14261662132E+03  0.47000000000E+01 0.  1.
         13    1    4    4    0    0 -0.82758197746E+01  0.17587979814E+01 -0.36920845581E+02  0.37877848430E+02  0.00000000000E+00 0. -1.
        -14    1    4    4    0    0 -0.17368526906E+02 -0.35101346624E+02  0.35651048568E+02  0.52960055945E+02  0.00000000000E+00 0.  1.
</event>
<event>
12    1  0.1066489E+000  0.1855749E+03  0.7818608E-02  0.1162921E+00
         21   -1    0    0  503  502  0.00000000000E+00  0.00000000000E+00  0.95984567488E+02  0.95984567488E+02  0.00000000000E+00 0. -1.
         21   -1    0    0  501  503 -0.00000000000E+00 -0.00000000000E+00 -0.36107120405E+03  0.36107120405E+03  0.00000000000E+00 0. -1.
          6    2    1    2  501    0  0.69885494539E+01 -0.69048031270E+02 -0.16172771770E+03  0.24615827362E+03  0.17210918207E+03 0.  0.
         24    2    3    3    0    0  0.29505871731E+02 -0.16820159153E+02 -0.16754530955E+03  0.18879352135E+03  0.80112725155E+02 0.  0.
         -6    2    1    2    0  502 -0.69885494539E+01  0.69048031270E+02 -0.10335891886E+03  0.21089749792E+03  0.17022989771E+03 0.  0.
        -24    2    5    5    0    0  0.50263423751E+02  0.18027636280E+02 -0.20843656623E+02  0.98151200227E+02  0.79673035888E+02 0.  0.
          5    1    3    3  501    0 -0.22517322277E+02 -0.52227872117E+02  0.58175918439E+01  0.57364752273E+02  0.47000000000E+01 0. -1.
        -13    1    4    4    0    0  0.13783058039E+02 -0.46673414433E+02 -0.67518376491E+02  0.83229270499E+02  0.00000000000E+00 0.  1.
         14    1    4    4    0    0  0.15722813693E+02  0.29853255280E+02 -0.10002693305E+03  0.10556425085E+03  0.00000000000E+00 0. -1.
         -5    1    5    5    0  502 -0.57251973205E+02  0.51020394991E+02 -0.82515262240E+02  0.11274629769E+03  0.47000000000E+01 0.  1.
         13    1    6    6    0    0 -0.69356849959E+01  0.34808928474E+02 -0.16659810447E+01  0.35532249024E+02  0.00000000000E+00 0. -1.
        -14    1    6    6    0    0  0.57199108747E+02 -0.16781292194E+02 -0.19177675578E+02  0.62618951203E+02  0.00000000000E+00 0.  1.
</event>
<event>
12    1  0.1066489E+000  0.2300916E+03  0.7818608E-02  0.1126880E+00
         21   -1    0    0  501  502  0.00000000000E+00  0.00000000000E+00  0.20056949717E+03  0.20056949717E+03  0.00000000000E+00 0. -1.
         21   -1    0    0  502  503 -0.00000000000E+00 -0.00000000000E+00 -0.30603746614E+03  0.30603746614E+03  0.00000000000E+00 0. -1.
         -6    2    1    2    0  503 -0.15089154907E+03  0.15682964382E+02  0.43539170267E+02  0.23248057894E+03  0.17069664696E+03 0.  0.
        -24    2    3    3    0    0 -0.52164358088E+02  0.23967983900E+02  0.81685583022E+02  0.12621234007E+03  0.77210334827E+02 0.  0.
          6    2    1    2  501    0  0.15089154907E+03 -0.15682964382E+02 -0.14900713924E+03  0.27412638437E+03  0.17299691359E+03 0.  0.
         24    2    5    5    0    0  0.10525465991E+03 -0.73731178245E+02 -0.12507757798E+03  0.19636370253E+03  0.79996706684E+02 0.  0.
          5    1    5    5  501    0  0.45636889153E+02  0.58048213862E+02 -0.23929561254E+02  0.77762681834E+02  0.47000000000E+01 0. -1.
        -13    1    6    6    0    0  0.25137390905E+02  0.14492512855E+02 -0.42170927099E+02  0.51188948444E+02  0.00000000000E+00 0.  1.
         14    1    6    6    0    0  0.80117269008E+02 -0.88223691100E+02 -0.82906650882E+02  0.14517475409E+03  0.00000000000E+00 0. -1.
         -5    1    3    3    0  503 -0.98727190979E+02 -0.82850195183E+01 -0.38146412755E+02  0.10626823887E+03  0.47000000000E+01 0.  1.
         13    1    4    4    0    0 -0.12030336762E+02 -0.26568075262E+02  0.39550497228E+02  0.49140954984E+02  0.00000000000E+00 0. -1.
        -14    1    4    4    0    0 -0.40134021326E+02  0.50536059163E+02  0.42135085793E+02  0.77071385081E+02  0.00000000000E+00 0.  1.
</event>
<event>
12    1  0.1066489E+000  0.2950518E+03  0.7818608E-02  0.1087859E+00
         21   -1    0    0  501  502  0.00000000000E+00  0.00000000000E+00  0.51970484464E+03  0.51970484464E+03  0.00000000000E+00 0. -1.
         21   -1    0    0  502  503 -0.00000000000E+00 -0.00000000000E+00 -0.16792545627E+03  0.16792545627E+03  0.00000000000E+00 0. -1.
         -6    2    1    2    0  503 -0.16182727165E+03 -0.17655994477E+03  0.15045613800E+03  0.33119872866E+03  0.17231966939E+03 0.  0.
        -24    2    3    3    0    0 -0.10402036336E+02 -0.51789318664E+02  0.76112618361E+02  0.12132648195E+03  0.78336764425E+02 0.  0.
          6    2    1    2  501    0  0.16182727165E+03  0.17655994477E+03  0.20132325037E+03  0.35643157226E+03  0.17073644783E+03 0.  0.
         24    2    5    5    0    0  0.87292426223E+02  0.25050216887E+02  0.56343980097E+02  0.13382941676E+03  0.80549287114E+02 0.  0.
          5    1    5    5  501    0  0.74534845424E+02  0.15150972788E+03  0.14497927028E+03  0.22260215550E+03  0.47000000000E+01 0. -1.
        -11    1    6    6    0    0  0.70390749638E+02  0.35019892371E+02  0.49040357356E+01  0.78773726983E+02  0.00000000000E+00 0.  1.
         12    1    6    6    0    0  0.16901676585E+02 -0.99696754839E+01  0.51439944362E+02  0.55055689775E+02  0.00000000000E+00 0. -1.
         -5    1    3    3    0  503 -0.15142523531E+03 -0.12477062610E+03  0.74343519635E+02  0.20987224671E+03  0.47000000000E+01 0.  1.
         13    1    4    4    0    0  0.32597952441E+02 -0.89936531420E+01  0.27231836237E+02  0.43417567931E+02  0.00000000000E+00 0. -1.
        -14    1    4    4    0    0 -0.42999988777E+02 -0.42795665522E+02  0.48880782125E+02  0.77908914017E+02  0.00000000000E+00 0.  1.
</event>
<event>
12    1  0.1066489E+000  0.2426095E+03  0.7818608E-02  0.1118084E+00
         21   -1    0    0  503  502  0.00000000000E+00  0.00000000000E+00  0.49458378797E+03  0.49458378797E+03  0.00000000000E+00 0.  1.
         21   -1    0    0  501  503 -0.00000000000E+00 -0.00000000000E+00 -0.12154421837E+03  0.12154421837E+03  0.00000000000E+00 0.  1.
          6    2    1    2  501    0  0.13138304258E+03  0.10970468818E+03  0.14152818152E+03  0.28078207836E+03  0.17178977525E+03 0.  0.
         24    2    3    3    0    0  0.15003464330E+03  0.91832022432E+02  0.70950161183E+02  0.20547828467E+03  0.79018260968E+02 0.  0.
         -6    2    1    2    0  502 -0.13138304258E+03 -0.10970468818E+03  0.23151138809E+03  0.33534592799E+03  0.17193820436E+03 0.  0.
        -24    2    5    5    0    0 -0.15639609885E+03 -0.59208660334E+02  0.16449821878E+03  0.24766265323E+03  0.79446338039E+02 0.  0.
          5    1    3    3  501    0 -0.18651600715E+02  0.17872665745E+02  0.70578020333E+02  0.75303793691E+02  0.47000000000E+01 0. -1.
        -11    1    4    4    0    0  0.12073124717E+03  0.31455734720E+02  0.36222045900E+02  0.12991356318E+03  0.00000000000E+00 0.  1.
         12    1    4    4    0    0  0.29303396128E+02  0.60376287712E+02  0.34728115284E+02  0.75564721489E+02  0.00000000000E+00 0. -1.
         -5    1    5    5    0  502  0.25013056270E+02 -0.50496027843E+02  0.67013169305E+02  0.87683274757E+02  0.47000000000E+01 0.  1.
         11    1    6    6    0    0 -0.74326717734E+02 -0.65235374507E+02  0.11482713252E+03  0.15154334502E+03  0.00000000000E+00 0. -1.
        -12    1    6    6    0    0 -0.82069381117E+02  0.60267141739E+01  0.49671086261E+02  0.96119308211E+02  0.00000000000E+00 0.  1.
</event>
<event>
12    1  0.1066489E+000  0.1827322E+03  0.7818608E-02  0.1165533E+00
         21   -1    0    0  501  502  0.00000000000E+00  0.00000000000E+00  0.13925279810E+03  0.13925279810E+03  0.00000000000E+00 0.  1.
         21   -1    0    0  502  503 -0.00000000000E+00 -0.00000000000E+00 -0.23790701174E+03  0.23790701174E+03  0.00000000000E+00 0.  1.
         -6    2    1    2    0  503  0.49969595376E+02  0.25689976704E+02 -0.46873108616E+02  0.18723262397E+03  0.17234277415E+03 0.  0.
        -24    2    3    3    0    0 -0.37907434760E+02  0.24555256947E+02 -0.75655253266E+01  0.90843640578E+02  0.78456329293E+02 0.  0.
          6    2    1    2  501    0 -0.49969595376E+02 -0.25689976704E+02 -0.51781105023E+02  0.18992718587E+03  0.17387960700E+03 0.  0.
         24    2    5    5    0    0 -0.59499346140E+02 -0.75200661455E+02 -0.12108276837E+02  0.12559875242E+03  0.80206761349E+02 0.  0.
          5    1    5    5  501    0  0.95297507639E+01  0.49510684751E+02 -0.39672828186E+02  0.64328433452E+02  0.47000000000E+01 0. -1.
        -11    1    6    6    0    0  0.78101235207E+01  0.96171395017E+01  0.89578614976E+01  0.15288253145E+02  0.00000000000E+00 0.  1.
         12    1    6    6    0    0 -0.67309469660E+02 -0.84817800957E+02 -0.21066138335E+02  0.11031049927E+03  0.00000000000E+00 0. -1.
         -5    1    3    3    0  503  0.87877030136E+02  0.11347197576E+01 -0.39307583290E+02  0.96388983388E+02  0.47000000000E+01 0.  1.
         11    1    4    4    0    0  0.10725966935E+02 -0.19384075172E+02  0.78657225321E+01  0.23508686223E+02  0.00000000000E+00 0. -1.
        -12    1    4    4    0    0 -0.48633401695E+02  0.43939332119E+02 -0.15431247859E+02  0.67334954355E+02  0.00000000000E+00 0.  1.
</event>
<event>
12    1  0.1066489E+000  0.1966728E+03  0.7818608E-02  0.1152935E+00
         21   -1    0    0  501  502  0.00000000000E+00  0.00000000000E+00  0.45600848094E+02  0.45600848094E+02  0.00000000000E+00 0. -1.
         21   -1    0    0  502  503 -0.00000000000E+00 -0.00000000000E+00 -0.11461826085E+04  0.11461826085E+04  0.00000000000E+00 0. -1.
         -6    2    1    2    0  503 -0.59520883414E+02  0.73263766070E+02 -0.24116925689E+03  0.31015425548E+03  0.17065385064E+03 0.  0.
        -24    2    3    3    0    0 -0.27382621865E+02 -0.98642217286E+01 -0.57647639395E+02  0.10608219884E+03  0.84160986995E+02 0.  0.
          6    2    1    2  501    0  0.59520883414E+02 -0.73263766070E+02 -0.85941250348E+03  0.88162920109E+03  0.17253950878E+03 0.  0.
         24    2    5    5    0    0  0.73068567324E+02 -0.90849264991E+02 -0.46805806499E+03  0.48961749713E+03  0.83990099513E+02 0.  0.
          5    1    5    5  501    0 -0.13547683910E+02  0.17585498921E+02 -0.39135443849E+03  0.39201170396E+03  0.47000000000E+01 0. -1.
        -13    1    6    6    0    0  0.61691161012E+01 -0.58100591803E+02 -0.30228014853E+03  0.30787501516E+03  0.00000000000E+00 0.  1.
         14    1    6    6    0    0  0.66899451223E+02 -0.32748673189E+02 -0.16577791645E+03  0.18174248197E+03  0.00000000000E+00 0. -1.
         -5    1    3    3    0  503 -0.32138261549E+02  0.83127987798E+02 -0.18352161750E+03  0.20407205664E+03  0.47000000000E+01 0.  1.
         11    1    4    4    0    0 -0.10811395320E+02 -0.43194316428E+02 -0.51958724045E+02  0.68427657017E+02  0.00000000000E+00 0. -1.
        -12    1    4    4    0    0 -0.16571226545E+02  0.33330094699E+02 -0.56889153497E+01  0.37654541821E+02  0.00000000000E+00 0.  1.
</event>
<event>
12    1  0.1066489E+000  0.3313013E+03  0.7818608E-02  0.1070851E+00
         21   -1    0    0  501  502  0.00000000000E+00  0.00000000000E+00  0.14400989588E+04  0.14400989588E+04  0.00000000000E+00 0. -1.
         21   -1    0    0  502  503 -0.00000000000E+00 -0.00000000000E+00 -0.78562336882E+02  0.78562336882E+02  0.00000000000E+00 0. -1.
         -6    2    1    2    0  503  0.27793910824E+03  0.21670573860E+02  0.82516176950E+03  0.88821817895E+03  0.17412589099E+03 0.  0.
        -24    2    3    3    0    0  0.77968995741E+02  0.52805216070E+02  0.36859125292E+03  0.38878235880E+03  0.80153949645E+02 0.  0.
          6    2    1    2  501    0 -0.27793910824E+03 -0.21670573860E+02  0.53637485245E+03  0.63044311676E+03  0.17899938399E+03 0.  0.
         24    2    5    5    0    0 -0.14789964829E+03  0.39890398711E+02  0.19631772289E+03  0.26117227327E+03  0.78770287107E+02 0.  0.
          5    1    5    5  501    0 -0.13003945996E+03 -0.61560972571E+02  0.34005712957E+03  0.36927084350E+03  0.47000000000E+01 0. -1.
        -13    1    6    6    0    0 -0.49799964651E+02 -0.19232764004E+02  0.91377108230E+02  0.10582868987E+03  0.00000000000E+00 0.  1.
         14    1    6    6    0    0 -0.98099683635E+02  0.59123162715E+02  0.10494061466E+03  0.15534358340E+03  0.00000000000E+00 0. -1.
         -5    1    3    3    0  503  0.19997011250E+03 -0.31134642210E+02  0.45657051657E+03  0.49943582015E+03  0.47000000000E+01 0.  1.
         11    1    4    4    0    0  0.50754102822E+02  0.64586379738E+02  0.17978577329E+03  0.19766209470E+03  0.00000000000E+00 0. -1.
        -12    1    4    4    0    0  0.27214892918E+02 -0.11781163669E+02  0.18880547963E+03  0.19112026410E+03  0.00000000000E+00 0.  1.
</event>
<event>
12    1  0.1066489E+000  0.2569722E+03  0.7818608E-02  0.1109067E+00
         21   -1    0    0  501  502  0.00000000000E+00  0.00000000000E+00  0.12613938582E+04  0.12613938582E+04  0.00000000000E+00 0.  1.
         21   -1    0    0  502  503 -0.00000000000E+00 -0.00000000000E+00 -0.11143628294E+03  0.11143628294E+03  0.00000000000E+00 0.  1.
         -6    2    1    2    0  503 -0.12232621325E+03 -0.14647494717E+03  0.10749991917E+04  0.11051484652E+04  0.17120530245E+03 0.  0.
        -24    2    3    3    0    0 -0.30074891125E+01 -0.94790999647E+02  0.60392061093E+03  0.61643044064E+03  0.79195992550E+02 0.  0.
          6    2    1    2  501    0  0.12232621325E+03  0.14647494717E+03  0.74958383604E+02  0.26768167590E+03  0.17209331115E+03 0.  0.
         24    2    5    5    0    0  0.11429744317E+03  0.11921984585E+03 -0.42486089957E+01  0.18340155147E+03  0.79629148191E+02 0.  0.
          5    1    5    5  501    0  0.80287700722E+01  0.27255101324E+02  0.79206992600E+02  0.84280124429E+02  0.47000000000E+01 0. -1.
        -11    1    6    6    0    0  0.10674826218E+03  0.57921505440E+02 -0.62141697514E+01  0.12160883264E+03  0.00000000000E+00 0.  1.
         12    1    6    6    0    0  0.75491809922E+01  0.61298340408E+02  0.19655607557E+01  0.61792718823E+02  0.00000000000E+00 0. -1.
         -5    1    3    3    0  503 -0.11931872413E+03 -0.51683947525E+02  0.47107858072E+03  0.48871802461E+03  0.47000000000E+01 0.  1.
         11    1    4    4    0    0  0.16972766393E+02 -0.15731765672E+02  0.36762479664E+02  0.43440110051E+02  0.00000000000E+00 0. -1.
        -12    1    4    4    0    0 -0.19980255505E+02 -0.79059233975E+02  0.56715813127E+03  0.57299033059E+03  0.00000000000E+00 0.  1.
</event>
<event>
12    1  0.1066489E+000  0.2176715E+03  0.7818608E-02  0.1136401E+00
         21   -1    0    0  503  502  0.00000000000E+00  0.00000000000E+00  0.23312994771E+02  0.23312994771E+02  0.00000000000E+00 0. -1.
         21   -1    0    0  501  503 -0.00000000000E+00 -0.00000000000E+00 -0.23163284293E+04  0.23163284293E+04  0.00000000000E+00 0. -1.
          6    2    1    2  501    0 -0.90014366376E+02  0.92501440438E+02 -0.70152545016E+03  0.73333471904E+03  0.17024320921E+03 0.  0.
         24    2    3    3    0    0 -0.92780983561E+02  0.12697654559E+03 -0.53632683956E+03  0.56448905581E+03  0.79183718370E+02 0.  0.
         -6    2    1    2    0  502  0.90014366376E+02 -0.92501440438E+02 -0.15914899844E+04  0.16063067051E+04  0.17527623245E+03 0.  0.
        -24    2    5    5    0    0  0.76060291039E+02 -0.10758213364E+03 -0.15644615071E+04  0.15720317563E+04  0.79905896721E+02 0.  0.
          5    1    3    3  501    0  0.27666171856E+01 -0.34475105155E+02 -0.16519861060E+03  0.16884566323E+03  0.47000000000E+01 0. -1.
        -11    1    4    4    0    0 -0.83027714878E+02  0.63965396725E+02 -0.24876304205E+03  0.26994115008E+03  0.00000000000E+00 0.  1.
         12    1    4    4    0    0 -0.97532686838E+01  0.63011148867E+02 -0.28756379751E+03  0.29454790573E+03  0.00000000000E+00 0. -1.
         -5    1    5    5    0  502  0.13954075336E+02  0.15080693206E+02 -0.27028477276E+02  0.34274948722E+02  0.47000000000E+01 0.  1.
         13    1    6    6    0    0  0.66102946251E+02 -0.83316112526E+02 -0.14743343371E+04  0.14781653871E+04  0.00000000000E+00 0. -1.
        -14    1    6    6    0    0  0.99573447885E+01 -0.24266021118E+02 -0.90127170042E+02  0.93866369249E+02  0.00000000000E+00 0.  1.
</event>
<event>
12    1  0.1066489E+000  0.1957177E+03  0.7818608E-02  0.1154560E+00
         21   -1    0    0  501  502  0.00000000000E+00  0.00000000000E+00  0.16553080897E+03  0.16553080897E+03  0.00000000000E+00 0.  1.
         21   -1    0    0  502  503 -0.00000000000E+00 -0.00000000000E+00 -0.23808775511E+03  0.23808775511E+03  0.00000000000E+00 0.  1.
         -6    2    1    2    0  503  0.59564639015E+02  0.69488390309E+02 -0.82687279508E+02  0.20763888029E+03  0.16703333741E+03 0.  0.
        -24    2    3    3    0    0  0.10412759115E+03  0.58825654146E+02 -0.57481592294E+02  0.15513204918E+03  0.80366699621E+02 0.  0.
          6    2    1    2  501    0 -0.59564639015E+02 -0.69488390309E+02  0.10130333370E+02  0.19597968378E+03  0.17299950923E+03 0.  0.
         24    2    5    5    0    0 -0.46717804869E+02  0.24961210087E+02  0.14283897056E+02  0.10045424082E+03  0.84151110997E+02 0.  0.
          5    1    5    5  501    0 -0.12846834146E+02 -0.94449600396E+02 -0.41535636855E+01  0.95525442966E+02  0.47000000000E+01 0. -1.
        -11    1    6    6    0    0  0.87826499834E+01  0.38209692320E+02  0.18272768771E+02  0.43255168552E+02  0.00000000000E+00 0.  1.
         12    1    6    6    0    0 -0.55500454852E+02 -0.13248482233E+02 -0.39888717156E+01  0.57199072264E+02  0.00000000000E+00 0. -1.
         -5    1    3    3    0  503 -0.44562952130E+02  0.10662736164E+02 -0.25205687214E+02  0.52506831108E+02  0.47000000000E+01 0.  1.
         13    1    4    4    0    0  0.21806004571E+02  0.12233250714E+02  0.20662913212E+02  0.32436248871E+02  0.00000000000E+00 0. -1.
        -14    1    4    4    0    0  0.82321586575E+02  0.46592403431E+02 -0.78144505506E+02  0.12269580031E+03  0.00000000000E+00 0.  1.
</event>
<event>
12    1  0.1066489E+000  0.2270855E+03  0.7818608E-02  0.1128716E+00
         21   -1    0    0  501  502  0.00000000000E+00  0.00000000000E+00  0.15959163127E+04  0.15959163127E+04  0.00000000000E+00 0.  1.
         21   -1    0    0  502  503 -0.00000000000E+00 -0.00000000000E+00 -0.83545115144E+02  0.83545115144E+02  0.00000000000E+00 0.  1.
         -6    2    1    2    0  503  0.14774659097E+03  0.11269291301E+02  0.98526917371E+02  0.24749653582E+03  0.17202014337E+03 0.  0.
        -24    2    3    3    0    0  0.10842255381E+03  0.31232511910E+02  0.13247637148E+03  0.19164346510E+03  0.80288907941E+02 0.  0.
          6    2    1    2  501    0 -0.14774659097E+03 -0.11269291301E+02  0.14138442802E+04  0.14319648921E+04  0.17208065353E+03 0.  0.
         24    2    5    5    0    0 -0.14426380646E+03 -0.59524610797E+02  0.11810391129E+04  0.11941392383E+04  0.82218666678E+02 0.  0.
          5    1    5    5  501    0 -0.34827845073E+01  0.48255319496E+02  0.23280516737E+03  0.23782565379E+03  0.47000000000E+01 0. -1.
        -13    1    6    6    0    0 -0.97286609851E+02  0.63188825837E+00  0.76442972557E+03  0.77059580136E+03  0.00000000000E+00 0.  1.
         14    1    6    6    0    0 -0.46977196609E+02 -0.60156499055E+02  0.41660938730E+03  0.42354343693E+03  0.00000000000E+00 0. -1.
         -5    1    3    3    0  503  0.39324037152E+02 -0.19963220609E+02 -0.33949454104E+02  0.55853070721E+02  0.47000000000E+01 0.  1.
         13    1    4    4    0    0  0.11789400441E+03  0.19956353840E+02  0.99599289772E+02  0.15561899260E+03  0.00000000000E+00 0. -1.
        -14    1    4    4    0    0 -0.94714505966E+01  0.11276158070E+02  0.32877081703E+02  0.36024472495E+02  0.00000000000E+00 0.  1.
</event>
<event>
12    1  0.1066489E+000  0.1960782E+03  0.7818608E-02  0.1153987E+00
         21   -1    0    0  501  502  0.00000000000E+00  0.00000000000E+00  0.63072925645E+02  0.63072925645E+02  0.00000000000E+00 0.  1.
         21   -1    0    0  502  503 -0.00000000000E+00 -0.00000000000E+00 -0.98371647779E+03  0.98371647779E+03  0.00000000000E+00 0.  1.
         -6    2    1    2    0  503  0.86121167083E+01 -0.93753182127E+02 -0.13507150085E+03  0.23809867644E+03  0.17199663272E+03 0.  0.
        -24    2    3    3    0    0  0.64190258342E+02 -0.61280819728E+02 -0.45316106981E+02  0.12754776113E+03  0.79618802327E+02 0.  0.
          6    2    1    2  501    0 -0.86121167083E+01  0.93753182127E+02 -0.78557205129E+03  0.80869072700E+03  0.16731233202E+03 0.  0.
         24    2    5    5    0    0  0.27901661882E+02  0.11123871396E+03 -0.70153876789E+03  0.71529542428E+03  0.79613735767E+02 0.  0.
          5    1    5    5  501    0 -0.36513778590E+02 -0.17485531831E+02 -0.84033283404E+02  0.93395302719E+02  0.47000000000E+01 0. -1.
        -13    1    6    6    0    0  0.24464885151E+02  0.27833905254E+02 -0.79880123937E+02  0.88057317057E+02  0.00000000000E+00 0.  1.
         14    1    6    6    0    0  0.34367767305E+01  0.83404808705E+02 -0.62165864395E+03  0.62723810722E+03  0.00000000000E+00 0. -1.
         -5    1    3    3    0  503 -0.55578141633E+02 -0.32472362399E+02 -0.89755393873E+02  0.11055091531E+03  0.47000000000E+01 0.  1.
         11    1    4    4    0    0 -0.12154871937E+02 -0.25826327928E+02 -0.31041353224E+02  0.42169962485E+02  0.00000000000E+00 0. -1.
        -12    1    4    4    0    0  0.76345130279E+02 -0.35454491800E+02 -0.14274753757E+02  0.85377798642E+02  0.00000000000E+00 0.  1.
</event>
<event>
12    1  0.1066489E+000  0.1820315E+03  0.7818608E-02  0.1165940E+00
         21   -1    0    0  501  502  0.00000000000E+00  0.00000000000E+00  0.77327482814E+03  0.77327482814E+03  0.00000000000E+00 0.  1.
         21   -1    0    0  502  503 -0.00000000000E+00 -0.00000000000E+00 -0.77137575058E+02  0.77137575058E+02  0.00000000000E+00 0.  1.
         -6    2    1    2    0  503 -0.42558372414E+02  0.41637045048E+02  0.63171758582E+03  0.65731820272E+03  0.17162532685E+03 0.  0.
        -24    2    3    3    0    0  0.26370055360E+01  0.66390601127E+02  0.55661960470E+03  0.56611975156E+03  0.79066573549E+02 0.  0.
          6    2    1    2  501    0  0.42558372414E+02 -0.41637045048E+02  0.64419667271E+02  0.19309420048E+03  0.17201923772E+03 0.  0.
         24    2    5    5    0    0 -0.84354206494E+01  0.20722751599E+02 -0.12404571673E+02  0.81679816948E+02  0.77570163999E+02 0.  0.
          5    1    5    5  501    0  0.50993793063E+02 -0.62359796648E+02  0.76824238944E+02  0.11141438353E+03  0.47000000000E+01 0. -1.
        -11    1    6    6    0    0  0.26218013962E+01  0.40029879840E+02  0.18028857519E+02  0.43980732441E+02  0.00000000000E+00 0.  1.
         12    1    6    6    0    0 -0.11057222046E+02 -0.19307128241E+02 -0.30433429192E+02  0.37699084507E+02  0.00000000000E+00 0. -1.
         -5    1    3    3    0  503 -0.45195377950E+02 -0.24753556079E+02  0.75097981111E+02  0.91198451157E+02  0.47000000000E+01 0.  1.
         13    1    4    4    0    0 -0.27657279633E+02  0.20236234180E+02  0.91008593785E+02  0.97247079304E+02  0.00000000000E+00 0. -1.
        -14    1    4    4    0    0  0.30294285169E+02  0.46154366947E+02  0.46561101092E+03  0.46887267226E+03  0.00000000000E+00 0.  1.
</event>
<event>
12    1  0.1066489E+000  0.2194761E+03  0.7818608E-02  0.1134441E+00
         21   -1    0    0  503  502  0.00000000000E+00  0.00000000000E+00  0.26009385541E+02  0.26009385541E+02  0.00000000000E+00 0. -1.
         21   -1    0    0  501  503 -0.00000000000E+00 -0.00000000000E+00 -0.18822653148E+04  0.18822653148E+04  0.00000000000E+00 0. -1.
          6    2    1    2  501    0 -0.83076079456E+02  0.10787866759E+03 -0.79485976336E+03  0.82460401999E+03  0.17213455339E+03 0.  0.
         24    2    3    3    0    0 -0.12048815146E+03  0.10928330466E+03 -0.62554741561E+03  0.65113818117E+03  0.78810700261E+02 0.  0.
         -6    2    1    2    0  502  0.83076079456E+02 -0.10787866759E+03 -0.10613961659E+04  0.10836706804E+04  0.17099965082E+03 0.  0.
        -24    2    5    5    0    0  0.11692527378E+03 -0.77552249797E+02 -0.67489217568E+03  0.69447550563E+03  0.84444703982E+02 0.  0.
          5    1    3    3  501    0  0.37412072007E+02 -0.14046370695E+01 -0.16931234775E+03  0.17346583882E+03  0.47000000000E+01 0. -1.
        -13    1    4    4    0    0 -0.93852079452E+02  0.80581730123E+02 -0.31974267111E+03  0.34283670132E+03  0.00000000000E+00 0.  1.
         14    1    4    4    0    0 -0.26636072011E+02  0.28701574536E+02 -0.30580474451E+03  0.30830147985E+03  0.00000000000E+00 0. -1.
         -5    1    5    5    0  502 -0.33849194327E+02 -0.30326417793E+02 -0.38650399026E+03  0.38919517477E+03  0.47000000000E+01 0.  1.
         13    1    6    6    0    0  0.69993541447E+02 -0.16636292332E+02 -0.47289451865E+03  0.47833574802E+03  0.00000000000E+00 0. -1.
        -14    1    6    6    0    0  0.46931732336E+02 -0.60915957465E+02 -0.20199765703E+03  0.21613975761E+03  0.00000000000E+00 0.  1.
</event>
<event>
12    1  0.1066489E+000  0.1738103E+03  0.7818608E-02  0.1174146E+00
         21   -1    0    0  501  502  0.00000000000E+00  0.00000000000E+00  0.32875131113E+03  0.32875131113E+03  0.00000000000E+00 0.  1.
         21   -1    0    0  502  503 -0.00000000000E+00 -0.00000000000E+00 -0.96278434112E+02  0.96278434112E+02  0.00000000000E+00 0.  1.
         -6    2    1    2    0  503 -0.32633062340E+01 -0.23749909423E+02  0.16357003669E+03  0.23806012465E+03  0.17129728158E+03 0.  0.
        -24    2    3    3    0    0 -0.39784770427E+02  0.28548703851E+02  0.14276826525E+03  0.17080117734E+03  0.79952536987E+02 0.  0.
          6    2    1    2  501    0  0.32633062340E+01  0.23749909423E+02  0.68902840327E+02  0.18696962060E+03  0.17214915119E+03 0.  0.
         24    2    5    5    0    0  0.52469736863E+02 -0.30164545237E+02  0.48078882374E+02  0.11091852947E+03  0.79551041313E+02 0.  0.
          5    1    5    5  501    0 -0.49206430629E+02  0.53914454660E+02  0.20823957953E+02  0.76051091126E+02  0.47000000000E+01 0. -1.
        -13    1    6    6    0    0 -0.10204003335E+02 -0.13423367599E+02  0.42600995006E+02  0.45816517297E+02  0.00000000000E+00 0.  1.
         14    1    6    6    0    0  0.62673740198E+02 -0.16741177639E+02  0.54778873676E+01  0.65102012174E+02  0.00000000000E+00 0. -1.
         -5    1    3    3    0  503  0.36521464193E+02 -0.52298613275E+02  0.20801771447E+02  0.67258947305E+02  0.47000000000E+01 0.  1.
         13    1    4    4    0    0 -0.44976019905E+02 -0.87534438900E+01  0.11563852781E+03  0.12438542624E+03  0.00000000000E+00 0. -1.
        -14    1    4    4    0    0  0.51912494782E+01  0.37302147742E+02  0.27129737439E+02  0.46415751107E+02  0.00000000000E+00 0.  1.
</event>
<event>
12    1  0.1066489E+000  0.2243465E+03  0.7818608E-02  0.1130714E+00
         21   -1    0    0  501  502  0.00000000000E+00  0.00000000000E+00  0.14883864192E+03  0.14883864192E+03  0.00000000000E+00 0.  1.
         21   -1    0    0  502  503 -0.00000000000E+00 -0.00000000000E+00 -0.36039379409E+03  0.36039379409E+03  0.00000000000E+00 0.  1.
         -6    2    1    2    0  503 -0.11407463509E+03  0.87705446071E+02 -0.16933911663E+03  0.28094849218E+03  0.17190419191E+03 0.  0.
        -24    2    3    3    0    0 -0.85476389041E+02  0.10190300384E+03 -0.18794472824E+03  0.24369679280E+03  0.79840282257E+02 0.  0.
          6    2    1    2  501    0  0.11407463509E+03 -0.87705446071E+02 -0.42216035542E+02  0.22828394383E+03  0.17212233356E+03 0.  0.
         24    2    5    5    0    0  0.51000124786E+01 -0.68847240902E+02 -0.51751502472E+02  0.11717986917E+03  0.79290295892E+02 0.  0.
          5    1    5    5  501    0  0.10897462262E+03 -0.18858205169E+02  0.95354669296E+01  0.11110407466E+03  0.47000000000E+01 0. -1.
        -11    1    6    6    0    0 -0.50239458540E+01 -0.78158484908E+02 -0.17473778477E+02  0.80245384474E+02  0.00000000000E+00 0.  1.
         12    1    6    6    0    0  0.10123958333E+02  0.93112440057E+01 -0.34277723994E+02  0.36934484692E+02  0.00000000000E+00 0. -1.
         -5    1    3    3    0  503 -0.28598246053E+02 -0.14197557769E+02  0.18605611607E+02  0.37251699387E+02  0.47000000000E+01 0.  1.
         13    1    4    4    0    0 -0.66789241177E+02  0.19905224672E+02 -0.10120864163E+03  0.12288291113E+03  0.00000000000E+00 0. -1.
        -14    1    4    4    0    0 -0.18687147864E+02  0.81997779169E+02 -0.86736086611E+02  0.12081388167E+03  0.00000000000E+00 0.  1.
</event>
<event>
12    1  0.1066489E+000  0.6020771E+03  0.7818608E-02  0.9901352E-01
         21   -1    0    0  503  502  0.00000000000E+00  0.00000000000E+00  0.88603808692E+03  0.88603808692E+03  0.00000000000E+00 0.  1.
         21   -1    0    0  501  503 -0.00000000000E+00 -0.00000000000E+00 -0.43382120564E+03  0.43382120564E+03  0.00000000000E+00 0.  1.
          6    2    1    2  501    0 -0.53601587184E+03  0.21319747846E+03  0.38468590521E+03  0.71447886299E+03  0.17242569502E+03 0.  0.
         24    2    3    3    0    0 -0.31455017460E+03  0.78032240272E+02  0.27608165794E+03  0.43317179021E+03  0.79911670741E+02 0.  0.
         -6    2    1    2    0  502  0.53601587184E+03 -0.21319747846E+03  0.67530976072E+02  0.60538042957E+03  0.17075963250E+03 0.  0.
        -24    2    5    5    0    0  0.29198359775E+03 -0.17385862317E+03  0.12148201845E+01  0.34941320732E+03  0.81282663944E+02 0.  0.
          5    1    3    3  501    0 -0.22146569724E+03  0.13516523819E+03  0.10860424727E+03  0.28130707278E+03  0.47000000000E+01 0. -1.
        -11    1    4    4    0    0 -0.12967158945E+03  0.31856891708E+02  0.64053520544E+02  0.14809603693E+03  0.00000000000E+00 0.  1.
         12    1    4    4    0    0 -0.18487858515E+03  0.46175348563E+02  0.21202813740E+03  0.28507575329E+03  0.00000000000E+00 0. -1.
         -5    1    5    5    0  502  0.24403227409E+03 -0.39338855289E+02  0.66316155887E+02  0.25596722225E+03  0.47000000000E+01 0.  1.
         11    1    6    6    0    0  0.27100032899E+03 -0.13374927087E+03 -0.11394304283E+02  0.30242333894E+03  0.00000000000E+00 0. -1.
        -12    1    6    6    0    0  0.20983268762E+02 -0.40109352307E+02  0.12609124467E+02  0.46989868379E+02  0.00000000000E+00 0.  1.
</event>
<event>
12    1  0.1066489E+000  0.1833891E+03  0.7818608E-02  0.1164590E+00
         21   -1    0    0  503  502  0.00000000000E+00  0.00000000000E+00  0.21790682742E+02  0.21790682742E+02  0.00000000000E+00 0.  1.
         21   -1    0    0  501  503 -0.00000000000E+00 -0.00000000000E+00 -0.16575123451E+04  0.16575123451E+04  0.00000000000E+00 0. -1.
          6    2    1    2  501    0 -0.39235521063E+02  0.50495350993E+02 -0.59637555374E+03  0.62390172999E+03  0.17175669127E+03 0.  0.
         24    2    3    3    0    0 -0.47528275718E+01  0.24312416110E+02 -0.12405997779E+03  0.14958253839E+03  0.79814627455E+02 0.  0.
         -6    2    1    2    0  502  0.39235521063E+02 -0.50495350993E+02 -0.10393461086E+04  0.10554012979E+04  0.17187890921E+03 0.  0.
        -24    2    5    5    0    0  0.87435345784E+02 -0.58799033528E+02 -0.82514400691E+03  0.83563595795E+03  0.79514502119E+02 0.  0.
          5    1    3    3  501    0 -0.34482693492E+02  0.26182934883E+02 -0.47231557595E+03  0.47431919160E+03  0.47000000000E+01 0. -1.
        -11    1    4    4    0    0 -0.37159015552E+02  0.21915769909E+02 -0.10073242038E+03  0.10958154007E+03  0.00000000000E+00 0.  1.
         12    1    4    4    0    0  0.32406187980E+02  0.23966462005E+01 -0.23327557409E+02  0.40000998326E+02  0.00000000000E+00 0. -1.
         -5    1    5    5    0  502 -0.48199824720E+02  0.83036825352E+01 -0.21420210171E+03  0.21976533990E+03  0.47000000000E+01 0.  1.
         13    1    6    6    0    0  0.19104657773E+02  0.19795033034E+02 -0.19836798057E+03  0.20026653988E+03  0.00000000000E+00 0. -1.
        -14    1    6    6    0    0  0.68330688011E+02 -0.78594066562E+02 -0.62677602634E+03  0.63536941807E+03  0.00000000000E+00 0.  1.
</event>
<event>
12    1  0.1066489E+000  0.2185908E+03  0.7818608E-02  0.1135054E+00
         21   -1    0    0  501  502  0.00000000000E+00  0.00000000000E+00  0.29952594198E+04  0.29952594198E+04  0.00000000000E+00 0. -1.
         21   -1    0    0  502  503 -0.00000000000E+00 -0.00000000000E+00 -0.16324715853E+02  0.16324715853E+02  0.00000000000E+00 0.  1.
         -6    2    1    2    0  503 -0.20210825889E+02 -0.13208342777E+03  0.12508024913E+04  0.12697593564E+04  0.17299549567E+03 0.  0.
        -24    2    3    3    0    0 -0.47219104447E+02 -0.14618485083E+03  0.85362039011E+03  0.87138263926E+03  0.83906371390E+02 0.  0.
          6    2    1    2  501    0  0.20210825889E+02  0.13208342777E+03  0.17281322127E+04  0.17418247793E+04  0.17221529519E+03 0.  0.
         24    2    5    5    0    0  0.65468177146E+02  0.75385576327E+02  0.74749691505E+03  0.75849851037E+03  0.81235982735E+02 0.  0.
          5    1    5    5  501    0 -0.45257351256E+02  0.56697851438E+02  0.98063529761E+03  0.98332626890E+03  0.47000000000E+01 0. -1.
        -13    1    6    6    0    0  0.63383779894E+02  0.61187867994E+02  0.73236319595E+03  0.73764307732E+03  0.00000000000E+00 0.  1.
         14    1    6    6    0    0  0.20843972512E+01  0.14197708334E+02  0.15133719103E+02  0.20855433050E+02  0.00000000000E+00 0. -1.
         -5    1    3    3    0  503  0.27008278557E+02  0.14101423061E+02  0.39718210117E+03  0.39837671710E+03  0.47000000000E+01 0.  1.
         13    1    4    4    0    0 -0.14830563077E+02  0.27448867732E+01  0.18488576570E+03  0.18549993629E+03  0.00000000000E+00 0. -1.
        -14    1    4    4    0    0 -0.32388541370E+02 -0.14892973760E+03  0.66873462442E+03  0.68588270298E+03  0.00000000000E+00 0.  1.
</event>
<event>
12    1  0.1066489E+000  0.1995669E+03  0.7818608E-02  0.1150517E+00
         21   -1    0    0  501  502  0.00000000000E+00  0.00000000000E+00  0.20462466117E+03  0.20462466117E+03  0.00000000000E+00 0. -1.
         21   -1    0    0  502  503 -0.00000000000E+00 -0.00000000000E+00 -0.27087383756E+03  0.27087383756E+03  0.00000000000E+00 0. -1.
         -6    2    1    2    0  503 -0.83827994364E+00  0.10053477239E+03  0.94670549164E+02  0.21913526842E+03  0.17014643638E+03 0.  0.
        -24    2    3    3    0    0  0.25136503585E+02  0.21385307549E+02  0.10329985963E+03  0.13525510293E+03  0.80832584259E+02 0.  0.
          6    2    1    2  501    0  0.83827994364E+00 -0.10053477239E+03 -0.16091972555E+03  0.25636323032E+03  0.17239200856E+03 0.  0.
         24    2    5    5    0    0 -0.11416976869E+02 -0.12594577962E+03 -0.80437845728E+02  0.17095050534E+03  0.82226160589E+02 0.  0.
          5    1    5    5  501    0  0.12255256813E+02  0.25411007231E+02 -0.80481879823E+02  0.85412724977E+02  0.47000000000E+01 0. -1.
        -13    1    6    6    0    0  0.32430473299E+02 -0.44738412183E+02 -0.47794178814E+02  0.73058501569E+02  0.00000000000E+00 0.  1.
         14    1    6    6    0    0 -0.43847450168E+02 -0.81207367438E+02 -0.32643666914E+02  0.97892003770E+02  0.00000000000E+00 0. -1.
         -5    1    3    3    0  503 -0.25974783528E+02  0.79149464841E+02 -0.86293104615E+01  0.83880165492E+02  0.47000000000E+01 0.  1.
         13    1    4    4    0    0 -0.19414832473E+02  0.29586151113E+02  0.20561419502E+02  0.40927350629E+02  0.00000000000E+00 0. -1.
        -14    1    4    4    0    0  0.44551336057E+02 -0.82008435635E+01  0.82738440123E+02  0.94327752298E+02  0.00000000000E+00 0.  1.
</event>
<event>
12    1  0.1066489E+000  0.2238980E+03  0.7818608E-02  0.1131204E+00
         21   -1    0    0  501  502  0.00000000000E+00  0.00000000000E+00  0.45715278430E+03  0.45715278430E+03  0.00000000000E+00 0.  1.
         21   -1    0    0  502  503 -0.00000000000E+00 -0.00000000000E+00 -0.10965409303E+03  0.10965409303E+03  0.00000000000E+00 0.  1.
         -6    2    1    2    0  503 -0.39501610921E+02  0.13758845155E+03  0.15469340551E+03  0.27214034792E+03  0.17216085499E+03 0.  0.
        -24    2    3    3    0    0 -0.39489302241E+02  0.16728177385E+03  0.11181190902E+03  0.21977044929E+03  0.79085716346E+02 0.  0.
          6    2    1    2  501    0  0.39501610921E+02 -0.13758845155E+03  0.19280528576E+03  0.29466652941E+03  0.17077331779E+03 0.  0.
         24    2    5    5    0    0  0.73757495975E+02 -0.14226821590E+03  0.18793927382E+03  0.25943679867E+03  0.79409498130E+02 0.  0.
          5    1    5    5  501    0 -0.34255885055E+02  0.46797643541E+01  0.48660119398E+01  0.35229730732E+02  0.47000000000E+01 0. -1.
        -13    1    6    6    0    0 -0.14398529206E+01 -0.59298107908E+02  0.10312058308E+03  0.11896299186E+03  0.00000000000E+00 0.  1.
         14    1    6    6    0    0  0.75197348896E+02 -0.82970107994E+02  0.84818690745E+02  0.14047380682E+03  0.00000000000E+00 0. -1.
         -5    1    3    3    0  503 -0.12308679648E-01 -0.29693322301E+02  0.42881496486E+02  0.52369898622E+02  0.47000000000E+01 0.  1.
         13    1    4    4    0    0 -0.52569947295E+02  0.54733070471E+02  0.44071192531E+02  0.87758637027E+02  0.00000000000E+00 0. -1.
        -14    1    4    4    0    0  0.13080645054E+02  0.11254870338E+03  0.67740716492E+02  0.13201181227E+03  0.00000000000E+00 0.  1.
</event>
<event>
12    1  0.1066489E+000  0.3248468E+03  0.7818608E-02  0.1073515E+00
         21   -1    0    0  501  502  0.00000000000E+00  0.00000000000E+00  0.10213242818E+04  0.10213242818E+04  0.00000000000E+00 0. -1.
         21   -1    0    0  502  503 -0.00000000000E+00 -0.00000000000E+00 -0.10311215985E+03  0.10311215985E+03  0.00000000000E+00 0.  1.
         -6    2    1    2    0  503 -0.26581336088E+03 -0.71397313790E+02  0.46164939389E+03  0.56448701501E+03  0.17254306128E+03 0.  0.
        -24    2    3    3    0    0 -0.27018526205E+03 -0.77257164312E+02  0.36729685167E+03  0.46973500399E+03  0.82311915698E+02 0.  0.
          6    2    1    2  501    0  0.26581336088E+03  0.71397313790E+02  0.45656272803E+03  0.55994942661E+03  0.17128781772E+03 0.  0.
         24    2    5    5    0    0  0.10761245765E+03  0.84622053456E+02  0.28692404812E+03  0.32756657173E+03  0.78950088998E+02 0.  0.
          5    1    5    5  501    0  0.15820090323E+03 -0.13224739667E+02  0.16963867990E+03  0.23238285488E+03  0.47000000000E+01 0. -1.
        -13    1    6    6    0    0 -0.10284961439E+02 -0.29602628565E+01  0.13862228018E+02  0.17512993850E+02  0.00000000000E+00 0.  1.
         14    1    6    6    0    0  0.11789741909E+03  0.87582316313E+02  0.27306182011E+03  0.31005357788E+03  0.00000000000E+00 0. -1.
         -5    1    3    3    0  503  0.43719011645E+01  0.58598505224E+01  0.94352542228E+02  0.94752011022E+02  0.47000000000E+01 0.  1.
         11    1    4    4    0    0 -0.54072490982E+02 -0.35513226290E+02  0.13511919296E+03  0.14980727562E+03  0.00000000000E+00 0. -1.
        -12    1    4    4    0    0 -0.21611277106E+03 -0.41743938022E+02  0.23217765871E+03  0.31992772837E+03  0.00000000000E+00 0.  1.
</event>
<event>
12    1  0.1066489E+000  0.1757136E+03  0.7818608E-02  0.1172644E+00
         21   -1    0    0  501  502  0.00000000000E+00  0.00000000000E+00  0.22346288902E+03  0.22346288902E+03  0.00000000000E+00 0.  1.
         21   -1    0    0  502  503 -0.00000000000E+00 -0.00000000000E+00 -0.14711131812E+03  0.14711131812E+03  0.00000000000E+00 0.  1.
         -6    2    1    2    0  503 -0.10273529903E+02  0.17973177865E+02 -0.12504831208E+02  0.17367133878E+03  0.17197901783E+03 0.  0.
        -24    2    3    3    0    0 -0.28597277517E+02  0.34990637325E+02  0.50664950012E+02  0.10556946721E+03  0.80844457229E+02 0.  0.
          6    2    1    2  501    0  0.10273529903E+02 -0.17973177865E+02  0.88856402114E+02  0.19690286836E+03  0.17448982444E+03 0.  0.
         24    2    5    5    0    0  0.10840324360E+02 -0.66053770503E+02  0.89306559073E+02  0.14858768145E+03  0.98091917895E+02 0.  0.
          5    1    5    5  501    0 -0.56679445697E+00  0.48080592637E+02 -0.45015695896E+00  0.48315186904E+02  0.47000000000E+01 0. -1.
        -13    1    6    6    0    0 -0.38974193700E+02 -0.56000122335E+01  0.20836446030E+02  0.44547787765E+02  0.00000000000E+00 0.  1.
         14    1    6    6    0    0  0.49814518060E+02 -0.60453758269E+02  0.68470113043E+02  0.10403989369E+03  0.00000000000E+00 0. -1.
         -5    1    3    3    0  503  0.18323747614E+02 -0.17017459460E+02 -0.63169781220E+02  0.68101871579E+02  0.47000000000E+01 0.  1.
         13    1    4    4    0    0  0.92540517247E+01  0.47943618409E+02  0.12783912728E+02  0.50474314697E+02  0.00000000000E+00 0. -1.
        -14    1    4    4    0    0 -0.37851329242E+02 -0.12952981084E+02  0.37881037284E+02  0.55095152509E+02  0.00000000000E+00 0.  1.
</event>
<event>
12    1  0.1066489E+000  0.5499328E+03  0.7818608E-02  0.1001607E+00
         21   -1    0    0  501  502  0.00000000000E+00  0.00000000000E+00  0.16388359975E+03  0.16388359975E+03  0.00000000000E+00 0.  1.
         21   -1    0    0  502  503 -0.00000000000E+00 -0.00000000000E+00 -0.18607775253E+04  0.18607775253E+04  0.00000000000E+00 0.  1.
         -6    2    1    2    0  503 -0.37994544725E+03  0.35624594665E+03 -0.95477973576E+03  0.11009947431E+04  0.17121729765E+03 0.  0.
        -24    2    3    3    0    0 -0.26416299275E+03  0.18321087320E+03 -0.66990368832E+03  0.74811634215E+03  0.86941353650E+02 0.  0.
          6    2    1    2  501    0  0.37994544725E+03 -0.35624594665E+03 -0.74211418980E+03  0.92366638202E+03  0.17651174796E+03 0.  0.
         24    2    5    5    0    0  0.26688216253E+03 -0.26946055952E+03 -0.42155060102E+03  0.57281297356E+03  0.81084595618E+02 0.  0.
          5    1    5    5  501    0  0.11306328472E+03 -0.86785387134E+02 -0.32056358878E+03  0.35085340846E+03  0.47000000000E+01 0. -1.
        -13    1    6    6    0    0  0.52886426902E+02 -0.84895136836E+02 -0.71591865808E+02  0.12300225062E+03  0.00000000000E+00 0.  1.
         14    1    6    6    0    0  0.21399573563E+03 -0.18456542268E+03 -0.34995873521E+03  0.44981072294E+03  0.00000000000E+00 0. -1.
         -5    1    3    3    0  503 -0.11578245450E+03  0.17303507345E+03 -0.28487604745E+03  0.35287840090E+03  0.47000000000E+01 0.  1.
         13    1    4    4    0    0 -0.23445693401E+03  0.17644139196E+03 -0.53881304194E+03  0.61353167226E+03  0.00000000000E+00 0. -1.
        -14    1    4    4    0    0 -0.29706058745E+02  0.67694812426E+01 -0.13109064638E+03  0.13458466990E+03  0.00000000000E+00 0.  1.
</event>
<event>
12    1  0.1066489E+000  0.3266894E+03  0.7818608E-02  0.1072717E+00
         21   -1    0    0  501  502  0.00000000000E+00  0.00000000000E+00  0.35867161107E+03  0.35867161107E+03  0.00000000000E+00 0. -1.
         21   -1    0    0  502  503 -0.00000000000E+00 -0.00000000000E+00 -0.33157185704E+03  0.33157185704E+03  0.00000000000E+00 0. -1.
         -6    2    1    2    0  503  0.18368308474E+03  0.20751135721E+03  0.12545195592E+03  0.34907036097E+03  0.17120597148E+03 0.  0.
        -24    2    3    3    0    0  0.80520240431E+02  0.16768016947E+03  0.43395050396E+02  0.21128603055E+03  0.90324459351E+02 0.  0.
          6    2    1    2  501    0 -0.18368308474E+03 -0.20751135721E+03 -0.98352201891E+02  0.34117310714E+03  0.17298986800E+03 0.  0.
         24    2    5    5    0    0 -0.62421820631E+02 -0.27541357853E+02 -0.62886479198E+02  0.12123356471E+03  0.78024725967E+02 0.  0.
          5    1    5    5  501    0 -0.12126126411E+03 -0.17996999936E+03 -0.35465722693E+02  0.21993954244E+03  0.47000000000E+01 0. -1.
        -11    1    6    6    0    0 -0.35965274023E+02 -0.38123849143E+02 -0.73972941779E+02  0.90658286574E+02  0.00000000000E+00 0.  1.
         12    1    6    6    0    0 -0.26456546608E+02  0.10582491289E+02  0.11086462582E+02  0.30575278133E+02  0.00000000000E+00 0. -1.
         -5    1    3    3    0  503  0.10316284431E+03  0.39831187741E+02  0.82056905529E+02  0.13778433041E+03  0.47000000000E+01 0.  1.
         11    1    4    4    0    0 -0.13610535387E+02  0.24582268855E+01  0.12490666688E+02  0.18636155914E+02  0.00000000000E+00 0. -1.
        -12    1    4    4    0    0  0.94130775818E+02  0.16522194258E+03  0.30904383708E+02  0.19264987464E+03  0.00000000000E+00 0.  1.
</event>
<event>
12    1  0.1066489E+000  0.1816417E+03  0.7818608E-02  0.1167934E+00
         21   -1    0    0  501  502  0.00000000000E+00  0.00000000000E+00  0.15008822984E+03  0.15008822984E+03  0.00000000000E+00 0.  1.
         21   -1    0    0  502  503 -0.00000000000E+00 -0.00000000000E+00 -0.22410908575E+03  0.22410908575E+03  0.00000000000E+00 0.  1.
         -6    2    1    2    0  503  0.40400862727E+02 -0.52383873334E+02 -0.80809994832E+02  0.19242882766E+03  0.16162394177E+03 0.  0.
        -24    2    3    3    0    0  0.79832748335E+02 -0.11793979836E+02 -0.73531730867E+02  0.13517958152E+03  0.79713475327E+02 0.  0.
          6    2    1    2  501    0 -0.40400862727E+02  0.52383873334E+02  0.67891389168E+01  0.18176848794E+03  0.16916675473E+03 0.  0.
         24    2    5    5    0    0 -0.19643499225E+02  0.44171017800E+02  0.69307170853E+02  0.11521840565E+03  0.78325290893E+02 0.  0.
          5    1    5    5  501    0 -0.20757363502E+02  0.82128555334E+01 -0.62518031936E+02  0.66550082289E+02  0.47000000000E+01 0. -1.
        -13    1    6    6    0    0 -0.36079506204E+02  0.58339766188E+02  0.61587335480E+02  0.92186002073E+02  0.00000000000E+00 0.  1.
         14    1    6    6    0    0  0.16436006979E+02 -0.14168748388E+02  0.77198353733E+01  0.23032403576E+02  0.00000000000E+00 0. -1.
         -5    1    3    3    0  503 -0.39431885608E+02 -0.40589893498E+02 -0.72782639651E+01  0.57249246136E+02  0.47000000000E+01 0.  1.
         11    1    4    4    0    0 -0.10993855258E+02  0.14555545557E+02 -0.69453295246E+01  0.19518359616E+02  0.00000000000E+00 0. -1.
        -12    1    4    4    0    0  0.90826603593E+02 -0.26349525393E+02 -0.66586401342E+02  0.11566122190E+03  0.00000000000E+00 0.  1.
</event>
<event>
12    1  0.1066489E+000  0.3268027E+03  0.7818608E-02  0.1072639E+00
         21   -1    0    0  503  502  0.00000000000E+00  0.00000000000E+00  0.96792341924E+02  0.96792341924E+02  0.00000000000E+00 0. -1.
         21   -1    0    0  501  503 -0.00000000000E+00 -0.00000000000E+00 -0.11850201808E+04  0.11850201808E+04  0.00000000000E+00 0. -1.
          6    2    1    2  501    0  0.26396499642E+03 -0.87188445251E+02 -0.37402487664E+03  0.49668360554E+03  0.17181574825E+03 0.  0.
         24    2    3    3    0    0  0.18867681958E+03 -0.17741807150E+02 -0.32059883028E+03  0.38106536500E+03  0.80706186009E+02 0.  0.
         -6    2    1    2    0  502 -0.26396499642E+03  0.87188445251E+02 -0.71420296227E+03  0.78512891722E+03  0.17047639429E+03 0.  0.
        -24    2    5    5    0    0 -0.24918248016E+03  0.89700314195E+02 -0.50915243754E+03  0.57947717283E+03  0.80121996991E+02 0.  0.
          5    1    3    3  501    0  0.75288176842E+02 -0.69446638101E+02 -0.53426046360E+02  0.11561824054E+03  0.47000000000E+01 0. -1.
        -11    1    4    4    0    0  0.17450160620E+03 -0.39245377678E+02 -0.29330054847E+03  0.34353489192E+03  0.00000000000E+00 0.  1.
         12    1    4    4    0    0  0.14175213382E+02  0.21503570529E+02 -0.27298281807E+02  0.37530473079E+02  0.00000000000E+00 0. -1.
         -5    1    5    5    0  502 -0.14782516264E+02 -0.25118689447E+01 -0.20505052474E+03  0.20565174438E+03  0.47000000000E+01 0.  1.
         13    1    6    6    0    0 -0.25262627386E+02  0.31465419585E+02 -0.12153452730E+03  0.12805824573E+03  0.00000000000E+00 0. -1.
        -14    1    6    6    0    0 -0.22391985278E+03  0.58234894610E+02 -0.38761791023E+03  0.45141892711E+03  0.00000000000E+00 0.  1.
</event>
<event>
12    1  0.1066489E+000  0.1893413E+03  0.7818608E-02  0.1159113E+00
         21   -1    0    0  503  502  0.00000000000E+00  0.00000000000E+00  0.83493687382E+03  0.83493687382E+03  0.00000000000E+00 0. -1.
         21   -1    0    0  501  503 -0.00000000000E+00 -0.00000000000E+00 -0.43327538038E+02  0.43327538038E+02  0.00000000000E+00 0. -1.
          6    2    1    2  501    0  0.75692283078E+02 -0.22387976335E+02  0.35096125093E+03  0.39865952129E+03  0.17182860956E+03 0.  0.
         24    2    3    3    0    0  0.98068424328E+02 -0.33594332821E+02  0.16111584192E+03  0.20711411298E+03  0.78688920640E+02 0.  0.
         -6    2    1    2    0  502 -0.75692283078E+02  0.22387976335E+02  0.44064808486E+03  0.47960489057E+03  0.17210337930E+03 0.  0.
        -24    2    5    5    0    0 -0.16519744230E+02 -0.47295138366E+02  0.28004282727E+03  0.29474476887E+03  0.77076336257E+02 0.  0.
          5    1    3    3  501    0 -0.22376141250E+02  0.11206356486E+02  0.18984540901E+03  0.19154540831E+03  0.47000000000E+01 0. -1.
        -11    1    4    4    0    0  0.94541408721E+02 -0.42056461558E+02  0.16682830903E+03  0.19631227322E+03  0.00000000000E+00 0.  1.
         12    1    4    4    0    0  0.35270156073E+01  0.84621287367E+01 -0.57124671105E+01  0.10801839766E+02  0.00000000000E+00 0. -1.
         -5    1    5    5    0  502 -0.59172538848E+02  0.69683114701E+02  0.16060525759E+03  0.18486012170E+03  0.47000000000E+01 0.  1.
         11    1    6    6    0    0  0.27755522909E+02 -0.73573116631E+01  0.13315874320E+03  0.13621949191E+03  0.00000000000E+00 0. -1.
        -12    1    6    6    0    0 -0.44275267139E+02 -0.39937826703E+02  0.14688408407E+03  0.15852527696E+03  0.00000000000E+00 0.  1.
</event>
<event>
12    1  0.1159368E+000  0.2182055E+03  0.7818608E-02  0.1135325E+00
         21   -1    0    0  503  502  0.00000000000E+00  0.00000000000E+00  0.12845900953E+04  0.12845900953E+04  0.00000000000E+00 0.  1.
         21   -1    0    0  501  503 -0.00000000000E+00 -0.00000000000E+00 -0.12057090593E+03  0.12057090593E+03  0.00000000000E+00 0.  1.
          6    2    1    2  501    0 -0.12044106550E+03 -0.59943571285E+02  0.11672269667E+04  0.11874478723E+04  0.17179748477E+03 0.  0.
         24    2    3    3    0    0 -0.87385206277E+02 -0.81553567437E+02  0.53509346993E+03  0.55406447385E+03  0.79845231441E+02 0.  0.
         -6    2    1    2    0  502  0.12044106550E+03  0.59943571285E+02 -0.32077773437E+01  0.21771312886E+03  0.17114156317E+03 0.  0.
        -24    2    5    5    0    0  0.19017105118E+02 -0.19533848258E+02  0.21310408723E+02  0.86462561606E+02  0.79236478498E+02 0.  0.
          5    1    3    3  501    0 -0.33055859219E+02  0.21609996152E+02  0.63213349676E+03  0.63338339849E+03  0.47000000000E+01 0. -1.
        -11    1    4    4    0    0 -0.76697248464E+02 -0.31285545547E+02  0.41893170936E+03  0.42704218806E+03  0.00000000000E+00 0.  1.
         12    1    4    4    0    0 -0.10687957813E+02 -0.50268021889E+02  0.11616176057E+03  0.12702228578E+03  0.00000000000E+00 0. -1.
         -5    1    5    5    0  502  0.10142396038E+03  0.79477419543E+02 -0.24518186066E+02  0.13125056725E+03  0.47000000000E+01 0.  1.
         13    1    6    6    0    0  0.16649393445E+01  0.28595295662E+02  0.20624460099E+02  0.35296335665E+02  0.00000000000E+00 0. -1.
        -14    1    6    6    0    0  0.17352165773E+02 -0.48129143920E+02  0.68594862356E+00  0.51166225941E+02  0.00000000000E+00 0.  1.
</event>
<event>
12    1  0.1066489E+000  0.2734860E+03  0.7818608E-02  0.1099326E+00
         21   -1    0    0  501  502  0.00000000000E+00  0.00000000000E+00  0.16459904133E+03  0.16459904133E+03  0.00000000000E+00 0. -1.
         21   -1    0    0  502  503 -0.00000000000E+00 -0.00000000000E+00 -0.50888962241E+03  0.50888962241E+03  0.00000000000E+00 0. -1.
         -6    2    1    2    0  503 -0.10035270731E+03 -0.18773665004E+03 -0.61712606738E+02  0.28036234400E+03  0.17169415385E+03 0.  0.
        -24    2    3    3    0    0 -0.31125576610E+02 -0.18366152455E+03 -0.57794139060E+02  0.21074591877E+03  0.79833092436E+02 0.  0.
          6    2    1    2  501    0  0.10035270731E+03  0.18773665004E+03 -0.28257797434E+03  0.39312631974E+03  0.17141259013E+03 0.  0.
         24    2    5    5    0    0  0.10740960763E+03  0.20956075689E+03 -0.25144472071E+03  0.35417171842E+03  0.82223013327E+02 0.  0.
          5    1    5    5  501    0 -0.70569003195E+01 -0.21824106846E+02 -0.31133253635E+02  0.38954601316E+02  0.47000000000E+01 0. -1.
        -11    1    6    6    0    0  0.19929191097E+02  0.12754851593E+03 -0.14058266154E+03  0.19086456271E+03  0.00000000000E+00 0.  1.
         12    1    6    6    0    0  0.87480416533E+02  0.82012240960E+02 -0.11086205917E+03  0.16330715571E+03  0.00000000000E+00 0. -1.
         -5    1    3    3    0  503 -0.69227130700E+02 -0.40751254917E+01 -0.39184676775E+01  0.69616425229E+02  0.47000000000E+01 0.  1.
         13    1    4    4    0    0 -0.15931642658E+02 -0.50447882227E+02 -0.55463142963E+02  0.76648328659E+02  0.00000000000E+00 0. -1.
        -14    1    4    4    0    0 -0.15193933952E+02 -0.13321364232E+03 -0.23309960976E+01  0.13409759011E+03  0.00000000000E+00 0.  1.
</event>
<event>
12    1  0.1066489E+000  0.2479681E+03  0.7818608E-02  0.1114975E+00
         21   -1    0    0  503  502  0.00000000000E+00  0.00000000000E+00  0.61266752931E+03  0.61266752931E+03  0.00000000000E+00 0. -1.
         21   -1    0    0  501  503 -0.00000000000E+00 -0.00000000000E+00 -0.45766718290E+03  0.45766718290E+03  0.00000000000E+00 0. -1.
          6    2    1    2  501    0 -0.17185242497E+03  0.48843271832E+02  0.55107382850E+03  0.60429342185E+03  0.17195712857E+03 0.  0.
         24    2    3    3    0    0 -0.46851140244E+02  0.77809939796E+02  0.28325056969E+03  0.30728201299E+03  0.77083942583E+02 0.  0.
         -6    2    1    2    0  502  0.17185242497E+03 -0.48843271832E+02 -0.39607348209E+03  0.46604129036E+03  0.16852703029E+03 0.  0.
        -24    2    5    5    0    0  0.35846529025E+02 -0.63383117560E+02 -0.17309115444E+03  0.20440754008E+03  0.80743429829E+02 0.  0.
          5    1    3    3  501    0 -0.12500128472E+03 -0.28966667965E+02  0.26782325880E+03  0.29701140886E+03  0.47000000000E+01 0. -1.
        -11    1    4    4    0    0 -0.43097401280E+02  0.27053794402E+02  0.61775593238E+02  0.80034478249E+02  0.00000000000E+00 0.  1.
         12    1    4    4    0    0 -0.37537389639E+01  0.50756145394E+02  0.22147497645E+03  0.22724753474E+03  0.00000000000E+00 0. -1.
         -5    1    5    5    0  502  0.13600589594E+03  0.14539845728E+02 -0.22298232765E+03  0.26163375029E+03  0.47000000000E+01 0.  1.
         13    1    6    6    0    0 -0.24141744980E+02 -0.11917109732E+02 -0.26014838526E+02  0.37438124667E+02  0.00000000000E+00 0. -1.
        -14    1    6    6    0    0  0.59988274005E+02 -0.51466007828E+02 -0.14707631591E+03  0.16696941541E+03  0.00000000000E+00 0.  1.
</event>
<event>
12    1  0.1066489E+000  0.3656911E+03  0.7818608E-02  0.1056362E+00
         21   -1    0    0  503  502  0.00000000000E+00  0.00000000000E+00  0.42727086028E+03  0.42727086028E+03  0.00000000000E+00 0.  1.
         21   -1    0    0  501  503 -0.00000000000E+00 -0.00000000000E+00 -0.42060350428E+03  0.42060350428E+03  0.00000000000E+00 0.  1.
          6    2    1    2  501    0  0.27684249319E+03 -0.16585342159E+03 -0.21118314523E+03  0.42228939879E+03  0.17199096491E+03 0.  0.
         24    2    3    3    0    0  0.24709235579E+03 -0.75811271895E+02 -0.16742480996E+03  0.31774495225E+03  0.78286693971E+02 0.  0.
         -6    2    1    2    0  502 -0.27684249319E+03  0.16585342159E+03  0.21785050123E+03  0.42558496578E+03  0.17179813363E+03 0.  0.
        -24    2    5    5    0    0 -0.15689386807E+03  0.15612490778E+03  0.18894648448E+03  0.30173082239E+03  0.79687154030E+02 0.  0.
          5    1    3    3  501    0  0.29750137398E+02 -0.90042149693E+02 -0.43758335276E+02  0.10454444654E+03  0.47000000000E+01 0. -1.
        -13    1    4    4    0    0  0.43167833460E+02  0.93680930556E+01 -0.52627032748E+02  0.68708278897E+02  0.00000000000E+00 0.  1.
         14    1    4    4    0    0  0.20392452233E+03 -0.85179364950E+02 -0.11479777721E+03  0.24903667335E+03  0.00000000000E+00 0. -1.
         -5    1    5    5    0  502 -0.11994862512E+03  0.97285138066E+01  0.28904016757E+02  0.12385414339E+03  0.47000000000E+01 0.  1.
         11    1    6    6    0    0 -0.85083362905E+02  0.41583169211E+02  0.47057269806E+02  0.10574840541E+03  0.00000000000E+00 0. -1.
        -12    1    6    6    0    0 -0.71810505165E+02  0.11454173857E+03  0.14188921467E+03  0.19598241698E+03  0.00000000000E+00 0.  1.
</event>
<event>
12    1  0.1066489E+000  0.2538730E+03  0.7818608E-02  0.1112203E+00
         21   -1    0    0  503  502  0.00000000000E+00  0.00000000000E+00  0.30212614502E+03  0.30212614502E+03  0.00000000000E+00 0.  1.
         21   -1    0    0  501  503 -0.00000000000E+00 -0.00000000000E+00 -0.22806688750E+03  0.22806688750E+03  0.00000000000E+00 0.  1.
          6    2    1    2  501    0  0.14933140040E+03 -0.11296486479E+03  0.11827373927E+03  0.27249860610E+03  0.15876361391E+03 0.  0.
         24    2    3    3    0    0  0.12052864960E+03 -0.72908180012E+02  0.14377854173E+03  0.21676063522E+03  0.80437216724E+02 0.  0.
         -6    2    1    2    0  502 -0.14933140040E+03  0.11296486479E+03 -0.44214481749E+02  0.25769442642E+03  0.17143677898E+03 0.  0.
        -24    2    5    5    0    0 -0.99003789463E+02  0.10812454232E+03  0.27850360851E+02  0.16953701786E+03  0.80464220909E+02 0.  0.
          5    1    3    3  501    0  0.28802750800E+02 -0.40056684774E+02 -0.25504802455E+02  0.55737970873E+02  0.47000000000E+01 0. -1.
        -13    1    4    4    0    0  0.10909111967E+03 -0.85853085081E+02  0.10420345460E+03  0.17357990828E+03  0.00000000000E+00 0.  1.
         14    1    4    4    0    0  0.11437529932E+02  0.12944905069E+02  0.39575087124E+02  0.43180726940E+02  0.00000000000E+00 0. -1.
         -5    1    5    5    0  502 -0.50327610939E+02  0.48403224688E+01 -0.72064842600E+02  0.88157408557E+02  0.47000000000E+01 0.  1.
         11    1    6    6    0    0 -0.36788852708E+02  0.31694537727E+02  0.48735464822E+02  0.68797593975E+02  0.00000000000E+00 0. -1.
        -12    1    6    6    0    0 -0.62214936755E+02  0.76430004590E+02 -0.20885103971E+02  0.10073942389E+03  0.00000000000E+00 0.  1.
</event>
<event>
12    1  0.1066489E+000  0.2780079E+03  0.7818608E-02  0.1096799E+00
         21   -1    0    0  503  502  0.00000000000E+00  0.00000000000E+00  0.24284687886E+03  0.24284687886E+03  0.00000000000E+00 0.  1.
         21   -1    0    0  501  503 -0.00000000000E+00 -0.00000000000E+00 -0.39660809559E+03  0.39660809559E+03  0.00000000000E+00 0.  1.
          6    2    1    2  501    0  0.76383872097E+02 -0.20321443400E+03  0.65365898219E+02  0.28547041093E+03  0.17346484590E+03 0.  0.
         24    2    3    3    0    0  0.11349772004E+03 -0.19218630548E+03  0.44069815241E+02  0.24103314641E+03  0.79608545921E+02 0.  0.
         -6    2    1    2    0  502 -0.76383872097E+02  0.20321443400E+03 -0.21912711495E+03  0.35398456353E+03  0.17365994531E+03 0.  0.
        -24    2    5    5    0    0  0.71307362659E+01  0.15664214052E+03 -0.17605359637E+03  0.24900320169E+03  0.80125639286E+02 0.  0.
          5    1    3    3  501    0 -0.37113847942E+02 -0.11028128518E+02  0.21296082978E+02  0.44437264519E+02  0.47000000000E+01 0. -1.
        -13    1    4    4    0    0 -0.62226870295E+01  0.35976150131E+01  0.34730426441E+01  0.79829000280E+01  0.00000000000E+00 0.  1.
         14    1    4    4    0    0  0.11972040707E+03 -0.19578392049E+03  0.40596772597E+02  0.23305024638E+03  0.00000000000E+00 0. -1.
         -5    1    5    5    0  502 -0.83514608363E+02  0.46572293477E+02 -0.43073518578E+02  0.10498136183E+03  0.47000000000E+01 0.  1.
         11    1    6    6    0    0 -0.30177712653E+02  0.10286743600E+03 -0.84707918543E+02  0.13663028652E+03  0.00000000000E+00 0. -1.
        -12    1    6    6    0    0  0.37308448919E+02  0.53774704525E+02 -0.91345677826E+02  0.11237291517E+03  0.00000000000E+00 0.  1.
</event>
<event>
12    1  0.1066489E+000  0.3656894E+03  0.7818608E-02  0.1056407E+00
         21   -1    0    0  503  502  0.00000000000E+00  0.00000000000E+00  0.21638027716E+03  0.21638027716E+03  0.00000000000E+00 0. -1.
         21   -1    0    0  501  503 -0.00000000000E+00 -0.00000000000E+00 -0.95183407845E+03  0.95183407845E+03  0.00000000000E+00 0.  1.
          6    2    1    2  501    0  0.53281716547E+01 -0.32285103642E+03 -0.21518254579E+02  0.36632190704E+03  0.17166107060E+03 0.  0.
         24    2    3    3    0    0  0.67649207598E+02 -0.15863039999E+03 -0.23280522853E+02  0.19060188956E+03  0.77762963359E+02 0.  0.
         -6    2    1    2    0  502 -0.53281716547E+01  0.32285103642E+03 -0.71393554671E+03  0.80189244857E+03  0.17048857173E+03 0.  0.
        -24    2    5    5    0    0  0.33055006840E+02  0.25519111040E+03 -0.42950954887E+03  0.50698335711E+03  0.79614920168E+02 0.  0.
          5    1    3    3  501    0 -0.62321035943E+02 -0.16422063643E+03  0.17622682748E+01  0.17572001747E+03  0.47000000000E+01 0. -1.
        -11    1    4    4    0    0  0.17428382337E+02 -0.20772096936E+02  0.24247014047E+02  0.36375076799E+02  0.00000000000E+00 0.  1.
         12    1    4    4    0    0  0.50220825261E+02 -0.13785830305E+03 -0.47527536900E+02  0.15422681276E+03  0.00000000000E+00 0. -1.
         -5    1    5    5    0  502 -0.38383178495E+02  0.67659926027E+02 -0.28442599783E+03  0.29490909146E+03  0.47000000000E+01 0.  1.
         11    1    6    6    0    0 -0.24985608280E+01  0.14492777256E+03 -0.17420715502E+03  0.22662399459E+03  0.00000000000E+00 0. -1.
        -12    1    6    6    0    0  0.35553567668E+02  0.11026333784E+03 -0.25530239386E+03  0.28035936252E+03  0.00000000000E+00 0.  1.
</event>
<event>
12    1  0.1066489E+000  0.2463165E+03  0.7818608E-02  0.1115768E+00
         21   -1    0    0  501  502  0.00000000000E+00  0.00000000000E+00  0.41902251068E+03  0.41902251068E+03  0.00000000000E+00 0.  1.
         21   -1    0    0  502  503 -0.00000000000E+00 -0.00000000000E+00 -0.15173353461E+03  0.15173353461E+03  0.00000000000E+00 0.  1.
         -6    2    1    2    0  503  0.29446557985E+02  0.17342833483E+03  0.19627941844E+03  0.31440833059E+03  0.17141324670E+03 0.  0.
        -24    2    3    3    0    0  0.39031479847E+02  0.16567103341E+03  0.21905417514E+03  0.28808674259E+03  0.77710307445E+02 0.  0.
          6    2    1    2  501    0 -0.29446557985E+02 -0.17342833483E+03  0.71009557632E+02  0.25634771469E+03  0.17241608526E+03 0.  0.
         24    2    5    5    0    0  0.31611999915E+02 -0.42111510519E+02  0.56809483364E+02  0.11075929500E+03  0.79168214406E+02 0.  0.
          5    1    5    5  501    0 -0.61058557900E+02 -0.13131682431E+03  0.14200074268E+02  0.14558841969E+03  0.47000000000E+01 0. -1.
        -13    1    6    6    0    0 -0.21148786339E+02  0.75447733323E+01  0.16336691685E+02  0.27768368037E+02  0.00000000000E+00 0.  1.
         14    1    6    6    0    0  0.52760786254E+02 -0.49656283852E+02  0.40472791678E+02  0.82990926964E+02  0.00000000000E+00 0. -1.
         -5    1    3    3    0  503 -0.95849218622E+01  0.77573014153E+01 -0.22774756694E+02  0.26321588000E+02  0.47000000000E+01 0.  1.
         11    1    4    4    0    0  0.26489947995E+02  0.73154578099E+01  0.23621981578E+02  0.36238533103E+02  0.00000000000E+00 0. -1.
        -12    1    4    4    0    0  0.12541531853E+02  0.15835557560E+03  0.19543219356E+03  0.25184820949E+03  0.00000000000E+00 0.  1.
</event>
<event>
12    1  0.1066489E+000  0.2406992E+03  0.7818608E-02  0.1120332E+00
         21   -1    0    0  501  502  0.00000000000E+00  0.00000000000E+00  0.18770361835E+03  0.18770361835E+03  0.00000000000E+00 0.  1.
         21   -1    0    0  502  503 -0.00000000000E+00 -0.00000000000E+00 -0.32180114578E+03  0.32180114578E+03  0.00000000000E+00 0.  1.
         -6    2    1    2    0  503 -0.13340365144E+03 -0.87467599799E+02 -0.31486909357E+01  0.24071977511E+03  0.18024699899E+03 0.  0.
        -24    2    3    3    0    0 -0.10909977190E+03 -0.11359183812E+03  0.43501206389E+02  0.18180070088E+03  0.79707427305E+02 0.  0.
          6    2    1    2  501    0  0.13340365144E+03  0.87467599799E+02 -0.13094883650E+03  0.26878498901E+03  0.17219366221E+03 0.  0.
         24    2    5    5    0    0  0.10084609237E+03  0.56329835145E+02 -0.16176201698E+03  0.21400271878E+03  0.79292047736E+02 0.  0.
          5    1    5    5  501    0  0.32557559064E+02  0.31137764655E+02  0.30813180482E+02  0.54782270228E+02  0.47000000000E+01 0. -1.
        -11    1    6    6    0    0  0.22354427246E+01  0.21697282149E+01  0.89924969620E+01  0.95168233310E+01  0.00000000000E+00 0.  1.
         12    1    6    6    0    0  0.98610649649E+02  0.54160106930E+02 -0.17075451394E+03  0.20448589545E+03  0.00000000000E+00 0. -1.
         -5    1    3    3    0  503 -0.24303879541E+02  0.26124238319E+02 -0.46649897324E+02  0.58919074236E+02  0.47000000000E+01 0.  1.
         13    1    4    4    0    0 -0.48879278584E+02 -0.13955432936E+02  0.41075839066E+02  0.65354131761E+02  0.00000000000E+00 0. -1.
        -14    1    4    4    0    0 -0.60220493313E+02 -0.99636405182E+02  0.24253673227E+01  0.11644656912E+03  0.00000000000E+00 0.  1.
</event>
<event>
12    1  0.1066489E+000  0.1831183E+03  0.7818608E-02  0.1165325E+00
         21   -1    0    0  501  502  0.00000000000E+00  0.00000000000E+00  0.33175844792E+02  0.33175844792E+02  0.00000000000E+00 0.  1.
         21   -1    0    0  502  503 -0.00000000000E+00 -0.00000000000E+00 -0.20220889711E+04  0.20220889711E+04  0.00000000000E+00 0.  1.
         -6    2    1    2    0  503  0.50995152324E+02 -0.36504116041E+01 -0.26065239658E+03  0.31732998679E+03  0.17362262988E+03 0.  0.
        -24    2    3    3    0    0  0.54508238666E+02 -0.44027317660E+02 -0.82093055287E+02  0.13416840599E+03  0.79701559938E+02 0.  0.
          6    2    1    2  501    0 -0.50995152324E+02  0.36504116041E+01 -0.17282607297E+04  0.17379348291E+04  0.17583654120E+03 0.  0.
         24    2    5    5    0    0 -0.13994618287E+02  0.53297397147E+02 -0.57767427411E+03  0.58567394521E+03  0.79182960587E+02 0.  0.
          5    1    5    5  501    0 -0.37000534037E+02 -0.49646985543E+02 -0.11505864556E+04  0.11522608839E+04  0.47000000000E+01 0. -1.
        -11    1    6    6    0    0 -0.89729979813E+01  0.73065909516E+01 -0.44525800014E+03  0.44540833811E+03  0.00000000000E+00 0.  1.
         12    1    6    6    0    0 -0.50216203054E+01  0.45990806196E+02 -0.13241627397E+03  0.14026560710E+03  0.00000000000E+00 0. -1.
         -5    1    3    3    0  503 -0.35130863424E+01  0.40376906056E+02 -0.17855934129E+03  0.18316158080E+03  0.47000000000E+01 0.  1.
         11    1    4    4    0    0  0.60431359751E+02 -0.13742434125E+02 -0.82650218305E+02  0.10330470620E+03  0.00000000000E+00 0. -1.
        -12    1    4    4    0    0 -0.59231210847E+01 -0.30284883535E+02  0.55716301826E+00  0.30863699790E+02  0.00000000000E+00 0.  1.
</event>
<event>
12    1  0.1066489E+000  0.1821806E+03  0.7818608E-02  0.1165913E+00
         21   -1    0    0  501  502  0.00000000000E+00  0.00000000000E+00  0.28221350699E+03  0.28221350699E+03  0.00000000000E+00 0. -1.
         21   -1    0    0  502  503 -0.00000000000E+00 -0.00000000000E+00 -0.20902478279E+03  0.20902478279E+03  0.00000000000E+00 0. -1.
         -6    2    1    2    0  503  0.48923508397E+01  0.58231950103E+02 -0.12637772827E+03  0.22102259040E+03  0.17165302256E+03 0.  0.
        -24    2    3    3    0    0  0.32502762288E+02 -0.27712978053E+02 -0.68921272131E+02  0.11391423476E+03  0.80011701762E+02 0.  0.
          6    2    1    2  501    0 -0.48923508397E+01 -0.58231950103E+02  0.19956645247E+03  0.27021569938E+03  0.17255393398E+03 0.  0.
         24    2    5    5    0    0 -0.12029528237E+02  0.33113630703E+01  0.24533550980E+02  0.84481681761E+02  0.79872302800E+02 0.  0.
          5    1    5    5  501    0  0.71371773968E+01 -0.61543313174E+02  0.17503290149E+03  0.18573401762E+03  0.47000000000E+01 0. -1.
        -11    1    6    6    0    0 -0.29322186579E+02  0.32729192815E+02  0.24594791735E+02  0.50357665440E+02  0.00000000000E+00 0.  1.
         12    1    6    6    0    0  0.17292658343E+02 -0.29417829745E+02 -0.61240754656E-01  0.34124016321E+02  0.00000000000E+00 0. -1.
         -5    1    3    3    0  503 -0.27610411449E+02  0.85944928156E+02 -0.57456456137E+02  0.10710835564E+03  0.47000000000E+01 0.  1.
         11    1    4    4    0    0  0.15365288829E+02  0.20616211023E+02 -0.55103827225E+02  0.60807499806E+02  0.00000000000E+00 0. -1.
        -12    1    4    4    0    0  0.17137473459E+02 -0.48329189076E+02 -0.13817444906E+02  0.53106734950E+02  0.00000000000E+00 0.  1.
</event>
<event>
12    1  0.1066489E+000  0.2278335E+03  0.7818608E-02  0.1129030E+00
         21   -1    0    0  501  502  0.00000000000E+00  0.00000000000E+00  0.84622541628E+03  0.84622541628E+03  0.00000000000E+00 0.  1.
         21   -1    0    0  502  503 -0.00000000000E+00 -0.00000000000E+00 -0.93640249288E+02  0.93640249288E+02  0.00000000000E+00 0.  1.
         -6    2    1    2    0  503  0.14022934601E+03 -0.25025804784E+02  0.66020713313E+03  0.69841361364E+03  0.17781326357E+03 0.  0.
        -24    2    3    3    0    0  0.76798967397E+02 -0.69422219343E+02  0.53663672595E+03  0.55251573811E+03  0.81099564000E+02 0.  0.
          6    2    1    2  501    0 -0.14022934601E+03  0.25025804784E+02  0.92378033872E+02  0.24145205193E+03  0.17168235743E+03 0.  0.
         24    2    5    5    0    0 -0.11375179796E+03 -0.46967074128E+02  0.65787956152E+02  0.16013073002E+03  0.78539276362E+02 0.  0.
          5    1    5    5  501    0 -0.26477548051E+02  0.71992878912E+02  0.26590077720E+02  0.81321321914E+02  0.47000000000E+01 0. -1.
        -11    1    6    6    0    0 -0.71441364194E+02 -0.40094454935E+02  0.37499317714E+00  0.81924199442E+02  0.00000000000E+00 0.  1.
         12    1    6    6    0    0 -0.42310433763E+02 -0.68726191927E+01  0.65412962974E+02  0.78206530577E+02  0.00000000000E+00 0. -1.
         -5    1    3    3    0  503  0.63430378610E+02  0.44396414559E+02  0.12357040717E+03  0.14589787553E+03  0.47000000000E+01 0.  1.
         13    1    4    4    0    0  0.40590489274E+02 -0.27927440075E+02  0.42691571061E+03  0.42974940803E+03  0.00000000000E+00 0. -1.
        -14    1    4    4    0    0  0.36208478123E+02 -0.41494779268E+02  0.10972101534E+03  0.12276633008E+03  0.00000000000E+00 0.  1.
</event>
<event>
12    1  0.1066489E+000  0.1983072E+03  0.7818608E-02  0.1151360E+00
         21   -1    0    0  503  502  0.00000000000E+00  0.00000000000E+00  0.37835892272E+02  0.37835892272E+02  0.00000000000E+00 0.  1.
         21   -1    0    0  501  503 -0.00000000000E+00 -0.00000000000E+00 -0.10571693073E+04  0.10571693073E+04  0.00000000000E+00 0.  1.
          6    2    1    2  501    0 -0.96256184009E+02 -0.19578574951E+02 -0.59033050152E+03  0.62274862711E+03  0.17227065329E+03 0.  0.
         24    2    3    3    0    0 -0.60741444893E+02 -0.62082619754E+02 -0.51950829811E+03  0.53271660494E+03  0.79714080164E+02 0.  0.
         -6    2    1    2    0  502  0.96256184009E+02  0.19578574951E+02 -0.42900291347E+03  0.47225657242E+03  0.17127228870E+03 0.  0.
        -24    2    5    5    0    0  0.60671821368E+02  0.12418549422E+02 -0.10272418020E+03  0.14393140645E+03  0.79553141271E+02 0.  0.
          5    1    3    3  501    0 -0.35514739116E+02  0.42504044803E+02 -0.70822203415E+02  0.90032022168E+02  0.47000000000E+01 0. -1.
        -13    1    4    4    0    0  0.51800357915E+01 -0.46075557283E+02 -0.14893432592E+03  0.15598468895E+03  0.00000000000E+00 0.  1.
         14    1    4    4    0    0 -0.65921480685E+02 -0.16007062471E+02 -0.37057397219E+03  0.37673191599E+03  0.00000000000E+00 0. -1.
         -5    1    5    5    0  502  0.35584362641E+02  0.71600255289E+01 -0.32627873327E+03  0.32832516598E+03  0.47000000000E+01 0.  1.
         13    1    6    6    0    0  0.12558334417E+01  0.34008524837E+02 -0.18855999976E+02  0.38906369843E+02  0.00000000000E+00 0. -1.
        -14    1    6    6    0    0  0.59415987926E+02 -0.21589975415E+02 -0.83868180222E+02  0.10502503660E+03  0.00000000000E+00 0.  1.
</event>
<event>
12    1  0.1066489E+000  0.2404964E+03  0.7818608E-02  0.1119832E+00
         21   -1    0    0  501  502  0.00000000000E+00  0.00000000000E+00  0.17065565582E+03  0.17065565582E+03  0.00000000000E+00 0. -1.
         21   -1    0    0  502  503 -0.00000000000E+00 -0.00000000000E+00 -0.43865797025E+03  0.43865797025E+03  0.00000000000E+00 0. -1.
         -6    2    1    2    0  503 -0.18190966789E+02  0.16289663422E+03  0.13992131817E+02  0.23869336398E+03  0.17295235628E+03 0.  0.
        -24    2    3    3    0    0 -0.37736277424E+02  0.33228835490E+02  0.43286526417E+02  0.10424631586E+03  0.80407641791E+02 0.  0.
          6    2    1    2  501    0  0.18190966789E+02 -0.16289663422E+03 -0.28199444625E+03  0.37062026209E+03  0.17598944923E+03 0.  0.
         24    2    5    5    0    0 -0.58822678523E+02 -0.10618932293E+03 -0.14148621702E+03  0.20058652073E+03  0.74029202877E+02 0.  0.
          5    1    5    5  501    0  0.77013645312E+02 -0.56707311292E+02 -0.14050822923E+03  0.17003374136E+03  0.47000000000E+01 0. -1.
        -13    1    6    6    0    0 -0.60651444546E+02 -0.37133242154E+02 -0.88456332481E+02  0.11349889054E+03  0.00000000000E+00 0.  1.
         14    1    6    6    0    0  0.18287660222E+01 -0.69056080775E+02 -0.53029884534E+02  0.87087630182E+02  0.00000000000E+00 0. -1.
         -5    1    3    3    0  503  0.19545310635E+02  0.12966779873E+03 -0.29294394600E+02  0.13444704813E+03  0.47000000000E+01 0.  1.
         13    1    4    4    0    0 -0.31426337630E+02  0.59454554996E+02  0.36124066184E+02  0.76337454531E+02  0.00000000000E+00 0. -1.
        -14    1    4    4    0    0 -0.63099397944E+01 -0.26225719506E+02  0.71624602329E+01  0.27908861324E+02  0.00000000000E+00 0.  1.
</event>
<event>
12    1  0.1066489E+000  0.2364269E+03  0.7818608E-02  0.1122297E+00
         21   -1    0    0  501  502  0.00000000000E+00  0.00000000000E+00  0.81454235004E+02  0.81454235004E+02  0.00000000000E+00 0. -1.
         21   -1    0    0  502  503 -0.00000000000E+00 -0.00000000000E+00 -0.72789122756E+03  0.72789122756E+03  0.00000000000E+00 0. -1.
         -6    2    1    2    0  503 -0.89652299426E+02  0.13340489627E+03 -0.42160210058E+03  0.48308112978E+03  0.17258228645E+03 0.  0.
        -24    2    3    3    0    0  0.20382776053E+01  0.21862284642E+02 -0.97824092461E+02  0.12853465234E+03  0.80433138203E+02 0.  0.
          6    2    1    2  501    0  0.89652299426E+02 -0.13340489627E+03 -0.22483489198E+03  0.32626433279E+03  0.17338767274E+03 0.  0.
         24    2    5    5    0    0  0.57042951428E+02 -0.90412143246E+02 -0.23573644202E+03  0.27101326780E+03  0.80301103801E+02 0.  0.
          5    1    5    5  501    0  0.32609347998E+02 -0.42992753022E+02  0.10901550040E+02  0.55251064990E+02  0.47000000000E+01 0. -1.
        -11    1    6    6    0    0  0.27561629283E+02 -0.17033101285E+01 -0.11527213944E+03  0.11853358513E+03  0.00000000000E+00 0.  1.
         12    1    6    6    0    0  0.29481322145E+02 -0.88708833118E+02 -0.12046430259E+03  0.15247968267E+03  0.00000000000E+00 0. -1.
         -5    1    3    3    0  503 -0.91690577032E+02  0.11154261163E+03 -0.32377800811E+03  0.35454647744E+03  0.47000000000E+01 0.  1.
         11    1    4    4    0    0  0.16109583310E+02 -0.22898941811E+02 -0.66404600194E+02  0.72065603012E+02  0.00000000000E+00 0. -1.
        -12    1    4    4    0    0 -0.14071305704E+02  0.44761226453E+02 -0.31419492267E+02  0.56469049329E+02  0.00000000000E+00 0.  1.
</event>
<event>
12    1  0.1066489E+000  0.1960909E+03  0.7818608E-02  0.1153372E+00
         21   -1    0    0  503  502  0.00000000000E+00  0.00000000000E+00  0.67340798957E+02  0.67340798957E+02  0.00000000000E+00 0. -1.
         21   -1    0    0  501  503 -0.00000000000E+00 -0.00000000000E+00 -0.57336391048E+03  0.57336391048E+03  0.00000000000E+00 0. -1.
          6    2    1    2  501    0 -0.17491494977E+02 -0.88855360665E+02 -0.22035208511E+03  0.29496898198E+03  0.17392651150E+03 0.  0.
         24    2    3    3    0    0 -0.64473665457E+02 -0.91484274437E+02 -0.11611516880E+03  0.18050649794E+03  0.81077970905E+02 0.  0.
         -6    2    1    2    0  502  0.17491494977E+02  0.88855360665E+02 -0.28567102641E+03  0.34573572745E+03  0.17240658454E+03 0.  0.
        -24    2    5    5    0    0 -0.57250714380E+01  0.12423107953E+03 -0.19187923708E+03  0.24273359065E+03  0.81460523202E+02 0.  0.
          5    1    3    3  501    0  0.46982170480E+02  0.26289137725E+01 -0.10423691632E+03  0.11446248405E+03  0.47000000000E+01 0. -1.
        -13    1    4    4    0    0  0.46953596266E+00 -0.26933026903E+02  0.62709300431E+01  0.27657421532E+02  0.00000000000E+00 0.  1.
         14    1    4    4    0    0 -0.64943201419E+02 -0.64551247534E+02 -0.12238609884E+03  0.15284907640E+03  0.00000000000E+00 0. -1.
         -5    1    5    5    0  502  0.23216566415E+02 -0.35375718868E+02 -0.93791789324E+02  0.10300213680E+03  0.47000000000E+01 0.  1.
         11    1    6    6    0    0 -0.31826784408E+02  0.14841780966E+02 -0.33867094986E+02  0.48787322029E+02  0.00000000000E+00 0. -1.
        -12    1    6    6    0    0  0.26101712970E+02  0.10938929857E+03 -0.15801214210E+03  0.19394626862E+03  0.00000000000E+00 0.  1.
</event>
<event>
12    1  0.1066489E+000  0.3031230E+03  0.7818608E-02  0.1083867E+00
         21   -1    0    0  501  502  0.00000000000E+00  0.00000000000E+00  0.25187761773E+03  0.25187761773E+03  0.00000000000E+00 0. -1.
         21   -1    0    0  502  503 -0.00000000000E+00 -0.00000000000E+00 -0.38110203290E+03  0.38110203290E+03  0.00000000000E+00 0. -1.
         -6    2    1    2    0  503 -0.19765742419E+03  0.15001299385E+03  0.43668769197E+01  0.30172415693E+03  0.17159848949E+03 0.  0.
        -24    2    3    3    0    0 -0.47170571147E+02  0.84472238219E+02 -0.40710035037E+02  0.13144232707E+03  0.79114831608E+02 0.  0.
          6    2    1    2  501    0  0.19765742419E+03 -0.15001299385E+03 -0.13359129209E+03  0.33125549370E+03  0.17410115773E+03 0.  0.
         24    2    5    5    0    0  0.89575709353E+02 -0.15109388736E+03 -0.10274875337E+03  0.21875581545E+03  0.80272224151E+02 0.  0.
          5    1    5    5  501    0  0.10808171484E+03  0.10808935039E+01 -0.30842538722E+02  0.11249967826E+03  0.47000000000E+01 0. -1.
        -11    1    6    6    0    0  0.83282428639E+02 -0.62534324693E+02 -0.60347548152E+02  0.12036748420E+03  0.00000000000E+00 0.  1.
         12    1    6    6    0    0  0.62932807138E+01 -0.88559562666E+02 -0.42401205213E+02  0.98388331246E+02  0.00000000000E+00 0. -1.
         -5    1    3    3    0  503 -0.15048685304E+03  0.65540755636E+02  0.45076911957E+02  0.17028182986E+03  0.47000000000E+01 0.  1.
         11    1    4    4    0    0 -0.61728845098E+02  0.90077100126E+02 -0.33236832920E+02  0.11414473859E+03  0.00000000000E+00 0. -1.
        -12    1    4    4    0    0  0.14558273951E+02 -0.56048619069E+01 -0.74732021173E+01  0.17297588483E+02  0.00000000000E+00 0.  1.
</event>
<event>
12    1  0.1066489E+000  0.2019996E+03  0.7818608E-02  0.1148112E+00
         21   -1    0    0  501  502  0.00000000000E+00  0.00000000000E+00  0.14994510401E+04  0.14994510401E+04  0.00000000000E+00 0. -1.
         21   -1    0    0  502  503 -0.00000000000E+00 -0.00000000000E+00 -0.27446676874E+02  0.27446676874E+02  0.00000000000E+00 0. -1.
         -6    2    1    2    0  503 -0.58732843549E+02  0.87205435191E+02  0.66127910226E+03  0.69144333596E+03  0.17248043633E+03 0.  0.
        -24    2    3    3    0    0 -0.35020738760E+02  0.65551111646E+02  0.19244403561E+03  0.22148633435E+03  0.80610725588E+02 0.  0.
          6    2    1    2  501    0  0.58732843549E+02 -0.87205435191E+02  0.81072526097E+03  0.83545438102E+03  0.17220406253E+03 0.  0.
         24    2    5    5    0    0  0.48122137310E+02 -0.12687461736E+03  0.58478111104E+03  0.60576093317E+03  0.81021303915E+02 0.  0.
          5    1    5    5  501    0  0.10610706240E+02  0.39669182165E+02  0.22594414993E+03  0.22969344785E+03  0.47000000000E+01 0. -1.
        -13    1    6    6    0    0  0.51454645890E+02 -0.61778008671E+02  0.43565665214E+03  0.44301334234E+03  0.00000000000E+00 0.  1.
         14    1    6    6    0    0 -0.33325085805E+01 -0.65096608685E+02  0.14912445890E+03  0.16274759082E+03  0.00000000000E+00 0. -1.
         -5    1    3    3    0  503 -0.23712104789E+02  0.21654323544E+02  0.46883506665E+03  0.46995700161E+03  0.47000000000E+01 0.  1.
         13    1    4    4    0    0 -0.46756840552E+02  0.71960753186E+02  0.18916051866E+03  0.20771676378E+03  0.00000000000E+00 0. -1.
        -14    1    4    4    0    0  0.11736101792E+02 -0.64096415397E+01  0.32835169497E+01  0.13769570563E+02  0.00000000000E+00 0.  1.
</event>
<event>
12    1  0.1066489E+000  0.3365482E+03  0.7818608E-02  0.1068285E+00
         21   -1    0    0  503  502  0.00000000000E+00  0.00000000000E+00  0.24926045275E+03  0.24926045275E+03  0.00000000000E+00 0. -1.
         21   -1    0    0  501  503 -0.00000000000E+00 -0.00000000000E+00 -0.57835409252E+03  0.57835409252E+03  0.00000000000E+00 0. -1.
          6    2    1    2  501    0  0.23263036232E+03  0.17210986221E+03  0.27133755739E+02  0.33755063247E+03  0.17165517365E+03 0.  0.
         24    2    3    3    0    0  0.25344795128E+03  0.15488743801E+03  0.21517736805E+02  0.30955753378E+03  0.84480005099E+02 0.  0.
         -6    2    1    2    0  502 -0.23263036232E+03 -0.17210986221E+03 -0.35622739550E+03  0.49006391280E+03  0.17183128696E+03 0.  0.
        -24    2    5    5    0    0 -0.63019617291E+02 -0.10114691804E+03 -0.10341094619E+03  0.17742707665E+03  0.81144146701E+02 0.  0.
          5    1    3    3  501    0 -0.20817588967E+02  0.17222424196E+02  0.56160189347E+01  0.27993098690E+02  0.47000000000E+01 0. -1.
        -11    1    4    4    0    0  0.17261561079E+03  0.84241916026E+02 -0.22785959856E+02  0.19342194671E+03  0.00000000000E+00 0.  1.
         12    1    4    4    0    0  0.80832340496E+02  0.70645521984E+02  0.44303696661E+02  0.11613558707E+03  0.00000000000E+00 0. -1.
         -5    1    5    5    0  502 -0.16961074503E+03 -0.70962944162E+02 -0.25281644931E+03  0.31263683614E+03  0.47000000000E+01 0.  1.
         11    1    6    6    0    0 -0.38850908327E+02 -0.54349642173E+02 -0.64936353470E+01  0.67122604108E+02  0.00000000000E+00 0. -1.
        -12    1    6    6    0    0 -0.24168708964E+02 -0.46797275871E+02 -0.96917310845E+02  0.11030447254E+03  0.00000000000E+00 0.  1.
</event>
<event>
12    1  0.1066489E+000  0.2189375E+03  0.7818608E-02  0.1134970E+00
         21   -1    0    0  501  502  0.00000000000E+00  0.00000000000E+00  0.11193944575E+04  0.11193944575E+04  0.00000000000E+00 0. -1.
         21   -1    0    0  502  503 -0.00000000000E+00 -0.00000000000E+00 -0.42646753349E+02  0.42646753349E+02  0.00000000000E+00 0.  1.
         -6    2    1    2    0  503 -0.11415474457E+03 -0.69926703274E+02  0.57228341244E+03  0.61273317662E+03  0.17324142701E+03 0.  0.
        -24    2    3    3    0    0 -0.12667206927E+03 -0.91173063334E+02  0.38575820429E+03  0.42452628379E+03  0.83993052300E+02 0.  0.
          6    2    1    2  501    0  0.11415474457E+03  0.69926703274E+02  0.50446429166E+03  0.54930803419E+03  0.17127184626E+03 0.  0.
         24    2    5    5    0    0  0.79080361382E+02  0.35735775415E+02  0.48099913457E+03  0.49479257307E+03  0.76998530526E+02 0.  0.
          5    1    5    5  501    0  0.35074383187E+02  0.34190927859E+02  0.23465157092E+02  0.54515461120E+02  0.47000000000E+01 0. -1.
        -13    1    6    6    0    0  0.65040175702E+02  0.30495439536E+02  0.18564435930E+03  0.19905784191E+03  0.00000000000E+00 0.  1.
         14    1    6    6    0    0  0.14040185680E+02  0.52403358797E+01  0.29535477528E+03  0.29573473116E+03  0.00000000000E+00 0. -1.
         -5    1    3    3    0  503  0.12517324705E+02  0.21246360060E+02  0.18652520815E+03  0.18820689283E+03  0.47000000000E+01 0.  1.
         11    1    4    4    0    0 -0.13588573461E+03 -0.73571549090E+02  0.36170159717E+03  0.39332651970E+03  0.00000000000E+00 0. -1.
        -12    1    4    4    0    0  0.92136653368E+01 -0.17601514244E+02  0.24056607121E+02  0.31199764083E+02  0.00000000000E+00 0.  1.
</event>
<event>
12    1  0.1066489E+000  0.5083192E+03  0.7818608E-02  0.1011686E+00
         21   -1    0    0  501  502  0.00000000000E+00  0.00000000000E+00  0.12357649665E+04  0.12357649665E+04  0.00000000000E+00 0. -1.
         21   -1    0    0  502  503 -0.00000000000E+00 -0.00000000000E+00 -0.20882132241E+03  0.20882132241E+03  0.00000000000E+00 0. -1.
         -6    2    1    2    0  503 -0.44888063317E+03  0.16294352994E+03  0.52912378176E+03  0.73373048274E+03  0.17419537331E+03 0.  0.
        -24    2    3    3    0    0 -0.33659693594E+03  0.16448718604E+03  0.33253469801E+03  0.50728099744E+03  0.80007207982E+02 0.  0.
          6    2    1    2  501    0  0.44888063317E+03 -0.16294352994E+03  0.49781986230E+03  0.71085580615E+03  0.17160112193E+03 0.  0.
         24    2    5    5    0    0  0.45105451268E+03 -0.13527703023E+03  0.48622241292E+03  0.68041320787E+03  0.69280951919E+02 0.  0.
          5    1    5    5  501    0 -0.21738795100E+01 -0.27666499703E+02  0.11597449386E+02  0.30442598282E+02  0.47000000000E+01 0. -1.
        -11    1    6    6    0    0  0.83763463234E+02 -0.48626855289E+02  0.76851287006E+02  0.12364064519E+03  0.00000000000E+00 0.  1.
         12    1    6    6    0    0  0.36729104945E+03 -0.86650174945E+02  0.40937112591E+03  0.55677256268E+03  0.00000000000E+00 0. -1.
         -5    1    3    3    0  503 -0.11228369723E+03 -0.15436561069E+01  0.19658908375E+03  0.22644948529E+03  0.47000000000E+01 0.  1.
         11    1    4    4    0    0 -0.22309798334E+03  0.88796129731E+02  0.16556872029E+03  0.29166841441E+03  0.00000000000E+00 0. -1.
        -12    1    4    4    0    0 -0.11349895261E+03  0.75691056313E+02  0.16696597772E+03  0.21561258304E+03  0.00000000000E+00 0.  1.
</event>
<event>
12    1  0.1066489E+000  0.1985204E+03  0.7818608E-02  0.1151137E+00
         21   -1    0    0  501  502  0.00000000000E+00  0.00000000000E+00  0.19415945875E+02  0.19415945875E+02  0.00000000000E+00 0. -1.
         21   -1    0    0  502  503 -0.00000000000E+00 -0.00000000000E+00 -0.20518962511E+04  0.20518962511E+04  0.00000000000E+00 0. -1.
         -6    2    1    2    0  503 -0.83341419373E+02 -0.51405232837E+02 -0.89486505214E+03  0.91662087494E+03  0.17269069662E+03 0.  0.
        -24    2    3    3    0    0 -0.12075790075E+03 -0.60276294516E+02 -0.64951639670E+03  0.66823258710E+03  0.80296566573E+02 0.  0.
          6    2    1    2  501    0  0.83341419373E+02  0.51405232837E+02 -0.11376152530E+04  0.11546913220E+04  0.17191653489E+03 0.  0.
         24    2    5    5    0    0  0.12279419932E+03  0.51036231967E+02 -0.92456975900E+03  0.93797230912E+03  0.85321164141E+02 0.  0.
          5    1    5    5  501    0 -0.39452779951E+02  0.36900086909E+00 -0.21304549404E+03  0.21671901287E+03  0.47000000000E+01 0. -1.
        -11    1    6    6    0    0  0.93357640227E+02  0.65907237614E+02 -0.53826433720E+03  0.55026167381E+03  0.00000000000E+00 0.  1.
         12    1    6    6    0    0  0.29436559097E+02 -0.14871005646E+02 -0.38630542180E+03  0.38771063531E+03  0.00000000000E+00 0. -1.
         -5    1    3    3    0  503  0.37416481375E+02  0.88710616797E+01 -0.24534865544E+03  0.24838828784E+03  0.47000000000E+01 0.  1.
         11    1    4    4    0    0 -0.80807409233E+02 -0.77681526698E+01 -0.23808503143E+03  0.25154455624E+03  0.00000000000E+00 0. -1.
        -12    1    4    4    0    0 -0.39950491515E+02 -0.52508141846E+02 -0.41143136527E+03  0.41668803086E+03  0.00000000000E+00 0.  1.
</event>
<event>
12    1  0.1066489E+000  0.1845268E+03  0.7818608E-02  0.1163552E+00
         21   -1    0    0  501  502  0.00000000000E+00  0.00000000000E+00  0.59917090147E+02  0.59917090147E+02  0.00000000000E+00 0.  1.
         21   -1    0    0  502  503 -0.00000000000E+00 -0.00000000000E+00 -0.57495478350E+03  0.57495478350E+03  0.00000000000E+00 0.  1.
         -6    2    1    2    0  503 -0.44933078794E+02  0.47958640799E+02 -0.22122594371E+03  0.28792017448E+03  0.17215718372E+03 0.  0.
        -24    2    3    3    0    0 -0.17341077139E+02 -0.34439120442E+02 -0.66621606647E+02  0.11050737716E+03  0.79288561359E+02 0.  0.
          6    2    1    2  501    0  0.44933078794E+02 -0.47958640799E+02 -0.29381174964E+03  0.34695169916E+03  0.17242715717E+03 0.  0.
         24    2    5    5    0    0  0.70553245133E+02 -0.49867717937E+02 -0.29963671357E+03  0.32019244462E+03  0.72639464360E+02 0.  0.
          5    1    5    5  501    0 -0.25620166340E+02  0.19090771381E+01  0.58249639310E+01  0.26759254541E+02  0.47000000000E+01 0. -1.
        -11    1    6    6    0    0  0.25870458308E+02  0.17661861146E+02 -0.69728772535E+02  0.76441635719E+02  0.00000000000E+00 0.  1.
         12    1    6    6    0    0  0.44682786826E+02 -0.67529579083E+02 -0.22990794104E+03  0.24375080890E+03  0.00000000000E+00 0. -1.
         -5    1    3    3    0  503 -0.27592001655E+02  0.82397761241E+02 -0.15460433706E+03  0.17741279732E+03  0.47000000000E+01 0.  1.
         11    1    4    4    0    0 -0.28914971794E+02  0.12642534309E+02 -0.50243717165E+02  0.59332456398E+02  0.00000000000E+00 0. -1.
        -12    1    4    4    0    0  0.11573894655E+02 -0.47081654751E+02 -0.16377889481E+02  0.51174920767E+02  0.00000000000E+00 0.  1.
</event>
<event>
12    1  0.1066489E+000  0.1748373E+03  0.7818608E-02  0.1173158E+00
         21   -1    0    0  501  502  0.00000000000E+00  0.00000000000E+00  0.53639679748E+02  0.53639679748E+02  0.00000000000E+00 0. -1.
         21   -1    0    0  502  503 -0.00000000000E+00 -0.00000000000E+00 -0.57347178575E+03  0.57347178575E+03  0.00000000000E+00 0. -1.
         -6    2    1    2    0  503 -0.30287019450E+02 -0.16698138282E+02 -0.22455411736E+03  0.28395381533E+03  0.17032053971E+03 0.  0.
        -24    2    3    3    0    0  0.45847151469E+02 -0.13847840866E+02 -0.89023224205E+02  0.12840559394E+03  0.79177889044E+02 0.  0.
          6    2    1    2  501    0  0.30287019450E+02  0.16698138282E+02 -0.29527798864E+03  0.34315765017E+03  0.17138246971E+03 0.  0.
         24    2    5    5    0    0  0.98480667515E+01  0.64278599557E+02 -0.19179226802E+03  0.22734299024E+03  0.10330459021E+03 0.  0.
          5    1    5    5  501    0  0.20438952699E+02 -0.47580461275E+02 -0.10348572062E+03  0.11581465993E+03  0.47000000000E+01 0. -1.
        -11    1    6    6    0    0  0.40172636234E+02 -0.79937840351E+01 -0.89919425003E+02  0.98809130540E+02  0.00000000000E+00 0.  1.
         12    1    6    6    0    0 -0.30324569482E+02  0.72272383592E+02 -0.10187284302E+03  0.12853385970E+03  0.00000000000E+00 0. -1.
         -5    1    3    3    0  503 -0.76134170919E+02 -0.28502974162E+01 -0.13553089316E+03  0.15554822139E+03  0.47000000000E+01 0.  1.
         13    1    4    4    0    0  0.39979307922E+02  0.18396596520E+02 -0.13428440453E+02  0.46011985813E+02  0.00000000000E+00 0. -1.
        -14    1    4    4    0    0  0.58678435472E+01 -0.32244437386E+02 -0.75594783752E+02  0.82393608130E+02  0.00000000000E+00 0.  1.
</event>
<event>
12    1  0.1066489E+000  0.2369925E+03  0.7818608E-02  0.1121969E+00
         21   -1    0    0  501  502  0.00000000000E+00  0.00000000000E+00  0.73140417153E+03  0.73140417153E+03  0.00000000000E+00 0. -1.
         21   -1    0    0  502  503 -0.00000000000E+00 -0.00000000000E+00 -0.11603674143E+03  0.11603674143E+03  0.00000000000E+00 0. -1.
         -6    2    1    2    0  503 -0.15146927424E+03  0.59866880143E+02  0.55464477619E+03  0.60279279496E+03  0.17088400018E+03 0.  0.
        -24    2    3    3    0    0 -0.87360392186E+02 -0.17634428801E+02  0.40088277855E+03  0.41899604970E+03  0.83113635034E+02 0.  0.
          6    2    1    2  501    0  0.15146927424E+03 -0.59866880143E+02  0.60722653909E+02  0.24464811801E+03  0.17215828929E+03 0.  0.
         24    2    5    5    0    0  0.10820521080E+02 -0.50034315495E+02  0.20267747534E+02  0.97891719367E+02  0.80941279500E+02 0.  0.
          5    1    5    5  501    0  0.14064875316E+03 -0.98325646478E+01  0.40454906375E+02  0.14675639864E+03  0.47000000000E+01 0. -1.
        -11    1    6    6    0    0 -0.12614356987E+02 -0.46351808582E+01  0.40704042257E+02  0.42865206868E+02  0.00000000000E+00 0.  1.
         12    1    6    6    0    0  0.23434878067E+02 -0.45399134637E+02 -0.20436294723E+02  0.55026512499E+02  0.00000000000E+00 0. -1.
         -5    1    3    3    0  503 -0.64108882052E+02  0.77501308944E+02  0.15376199765E+03  0.18379674525E+03  0.47000000000E+01 0.  1.
         11    1    4    4    0    0 -0.97472020386E+02 -0.83181950211E+01  0.38804209991E+03  0.40018328104E+03  0.00000000000E+00 0. -1.
        -12    1    4    4    0    0  0.10111628200E+02 -0.93162337798E+01  0.12840678642E+02  0.18812768661E+02  0.00000000000E+00 0.  1.
</event>
<event>
12    1  0.1066489E+000  0.3624559E+03  0.7818608E-02  0.1057650E+00
         21   -1    0    0  503  502  0.00000000000E+00  0.00000000000E+00  0.11030522383E+04  0.11030522383E+04  0.00000000000E+00 0. -1.
         21   -1    0    0  501  503 -0.00000000000E+00 -0.00000000000E+00 -0.14701961047E+03  0.14701961047E+03  0.00000000000E+00 0. -1.
          6    2    1    2  501    0  0.42066542410E+02  0.31849348888E+03  0.20490096269E+03  0.41606162492E+03  0.16707834920E+03 0.  0.
         24    2    3    3    0    0 -0.27186212735E+02  0.10791772394E+03  0.10861259331E+03  0.17433525699E+03  0.78808382170E+02 0.  0.
         -6    2    1    2    0  502 -0.42066542410E+02 -0.31849348888E+03  0.75113166512E+03  0.83401022383E+03  0.16782901614E+03 0.  0.
        -24    2    5    5    0    0 -0.71050628906E+01 -0.31444491235E+03  0.70137654536E+03  0.77288446850E+03  0.80593166276E+02 0.  0.
          5    1    3    3  501    0  0.69252755145E+02  0.21057576494E+03  0.96288369374E+02  0.24172636793E+03  0.47000000000E+01 0. -1.
        -13    1    4    4    0    0 -0.21858193226E+02  0.11203275201E+03  0.67363484796E+02  0.13254039844E+03  0.00000000000E+00 0.  1.
         14    1    4    4    0    0 -0.53280195096E+01 -0.41150280716E+01  0.41249108517E+02  0.41794858551E+02  0.00000000000E+00 0. -1.
         -5    1    5    5    0  502 -0.34961479519E+02 -0.40485765314E+01  0.49755119767E+02  0.61125755334E+02  0.47000000000E+01 0.  1.
         13    1    6    6    0    0  0.32079788876E+02 -0.74156911428E+02  0.19235926102E+03  0.20863951128E+03  0.00000000000E+00 0. -1.
        -14    1    6    6    0    0 -0.39184851767E+02 -0.24028800092E+03  0.50901728434E+03  0.56424495722E+03  0.00000000000E+00 0.  1.
</event>
<event>
12    1  0.1066489E+000  0.2322628E+03  0.7818608E-02  0.1125097E+00
         21   -1    0    0  503  502  0.00000000000E+00  0.00000000000E+00  0.12102487122E+03  0.12102487122E+03  0.00000000000E+00 0. -1.
         21   -1    0    0  501  503 -0.00000000000E+00 -0.00000000000E+00 -0.45577482341E+03  0.45577482341E+03  0.00000000000E+00 0. -1.
          6    2    1    2  501    0  0.14139245344E+03  0.63347898757E+02 -0.21101455100E+03  0.31363348316E+03  0.17272532779E+03 0.  0.
         24    2    3    3    0    0  0.12029026588E+03 -0.11072958135E+02 -0.17767197136E+03  0.22926770883E+03  0.80024961363E+02 0.  0.
         -6    2    1    2    0  502 -0.14139245344E+03 -0.63347898757E+02 -0.12373540119E+03  0.26316621147E+03  0.17303532351E+03 0.  0.
        -24    2    5    5    0    0 -0.40376683465E+02 -0.12343887705E+02  0.71953853411E+01  0.90046149692E+02  0.79207874437E+02 0.  0.
          5    1    3    3  501    0  0.21102187566E+02  0.74420856892E+02 -0.33342579642E+02  0.84365774327E+02  0.47000000000E+01 0. -1.
        -11    1    4    4    0    0  0.11314657626E+03  0.58922048732E+01 -0.10559729521E+03  0.15487948396E+03  0.00000000000E+00 0.  1.
         12    1    4    4    0    0  0.71436896171E+01 -0.16965163008E+02 -0.72074676149E+02  0.74388224869E+02  0.00000000000E+00 0. -1.
         -5    1    5    5    0  502 -0.10101576998E+03 -0.51004011051E+02 -0.13093078654E+03  0.17312006178E+03  0.47000000000E+01 0.  1.
         13    1    6    6    0    0 -0.52218943482E+02  0.62754084446E+01 -0.18885775335E+02  0.55882656697E+02  0.00000000000E+00 0. -1.
        -14    1    6    6    0    0  0.11842260017E+02 -0.18619296150E+02  0.26081160676E+02  0.34163492995E+02  0.00000000000E+00 0.  1.
</event>
<event>
12    1  0.1066489E+000  0.2629259E+03  0.7818608E-02  0.1105435E+00
         21   -1    0    0  503  502  0.00000000000E+00  0.00000000000E+00  0.67974544429E+03  0.67974544429E+03  0.00000000000E+00 0.  1.
         21   -1    0    0  501  503 -0.00000000000E+00 -0.00000000000E+00 -0.13286295027E+03  0.13286295027E+03  0.00000000000E+00 0.  1.
          6    2    1    2  501    0  0.19101039148E+03  0.54906356729E+02  0.47062274688E+03  0.53908794078E+03  0.17213471571E+03 0.  0.
         24    2    3    3    0    0  0.13350105316E+03  0.97397250491E+02  0.27346232890E+03  0.32930919909E+03  0.79712907872E+02 0.  0.
         -6    2    1    2    0  502 -0.19101039148E+03 -0.54906356729E+02  0.76259747139E+02  0.27352045378E+03  0.17175043506E+03 0.  0.
        -24    2    5    5    0    0 -0.16399272014E+03  0.17051036915E+02  0.35749603148E+02  0.18650905895E+03  0.79518833158E+02 0.  0.
          5    1    3    3  501    0  0.57509338312E+02 -0.42490893762E+02  0.19716041798E+03  0.20977874169E+03  0.47000000000E+01 0. -1.
        -11    1    4    4    0    0  0.10812298924E+03  0.84102198558E+02  0.26677748640E+03  0.29988995958E+03  0.00000000000E+00 0.  1.
         12    1    4    4    0    0  0.25378063922E+02  0.13295051933E+02  0.66848424948E+01  0.29419239513E+02  0.00000000000E+00 0. -1.
         -5    1    5    5    0  502 -0.27017671339E+02 -0.71957393644E+02  0.40510143991E+02  0.87011394833E+02  0.47000000000E+01 0.  1.
         11    1    6    6    0    0 -0.38573834085E+02 -0.27094503677E+02  0.24359539278E+02  0.53060719552E+02  0.00000000000E+00 0. -1.
        -12    1    6    6    0    0 -0.12541888605E+03  0.44145540592E+02  0.11390063870E+02  0.13344833940E+03  0.00000000000E+00 0.  1.
</event>
<event>
12    1  0.1066489E+000  0.1747089E+03  0.7818608E-02  0.1173166E+00
         21   -1    0    0  501  502  0.00000000000E+00  0.00000000000E+00  0.86745982891E+03  0.86745982891E+03  0.00000000000E+00 0. -1.
         21   -1    0    0  502  503 -0.00000000000E+00 -0.00000000000E+00 -0.40055635648E+02  0.40055635648E+02  0.00000000000E+00 0. -1.
         -6    2    1    2    0  503  0.21409080892E+02  0.50568119784E+01  0.25426408057E+03  0.30850187607E+03  0.17331839135E+03 0.  0.
        -24    2    3    3    0    0  0.81698302432E+02  0.52279011939E+01  0.18026316036E+03  0.21293490637E+03  0.78387012942E+02 0.  0.
          6    2    1    2  501    0 -0.21409080892E+02 -0.50568119784E+01  0.57314011269E+03  0.59901358848E+03  0.17275349584E+03 0.  0.
         24    2    5    5    0    0  0.51627358416E+02  0.12373726394E+02  0.38836590751E+03  0.39950984909E+03  0.77211062410E+02 0.  0.
          5    1    5    5  501    0 -0.73036439308E+02 -0.17430538373E+02  0.18477420518E+03  0.19950373940E+03  0.47000000000E+01 0. -1.
        -13    1    6    6    0    0 -0.51639470988E-01  0.36046030862E+02  0.12585608050E+03  0.13091627861E+03  0.00000000000E+00 0.  1.
         14    1    6    6    0    0  0.51678997887E+02 -0.23672304468E+02  0.26250982701E+03  0.26859357047E+03  0.00000000000E+00 0. -1.
         -5    1    3    3    0  503 -0.60289221539E+02 -0.17108921547E+00  0.74000920219E+02  0.95566969705E+02  0.47000000000E+01 0.  1.
         11    1    4    4    0    0  0.33236573906E+02  0.35970373001E+02  0.47175135935E+02  0.68000228157E+02  0.00000000000E+00 0. -1.
        -12    1    4    4    0    0  0.48461728526E+02 -0.30742471807E+02  0.13308802442E+03  0.14493467821E+03  0.00000000000E+00 0.  1.
</event>
<event>
12    1  0.1066489E+000  0.2775063E+03  0.7818608E-02  0.1097322E+00
         21   -1    0    0  503  502  0.00000000000E+00  0.00000000000E+00  0.53016994709E+03  0.53016994709E+03  0.00000000000E+00 0.  1.
         21   -1    0    0  501  503 -0.00000000000E+00 -0.00000000000E+00 -0.15696078815E+03  0.15696078815E+03  0.00000000000E+00 0.  1.
          6    2    1    2  501    0  0.18847227082E+03  0.10315689466E+03  0.28490822441E+03  0.39772159775E+03  0.17563209045E+03 0.  0.
         24    2    3    3    0    0  0.57558219420E+02  0.10806793250E+03  0.15566325528E+03  0.21363205652E+03  0.80099811921E+02 0.  0.
         -6    2    1    2    0  502 -0.18847227082E+03 -0.10315689466E+03  0.88300934526E+02  0.28940913749E+03  0.17261938490E+03 0.  0.
        -24    2    5    5    0    0 -0.12374006802E+03 -0.11128939018E+03  0.11665384970E+03  0.21811837118E+03  0.79186933248E+02 0.  0.
          5    1    3    3  501    0  0.13091405140E+03 -0.49110378394E+01  0.12924496913E+03  0.18408954123E+03  0.47000000000E+01 0. -1.
        -13    1    4    4    0    0 -0.11210326535E+02  0.30086397616E+02  0.80904673574E+01  0.33110699246E+02  0.00000000000E+00 0.  1.
         14    1    4    4    0    0  0.68768545955E+02  0.77981534882E+02  0.14757278792E+03  0.18052135727E+03  0.00000000000E+00 0. -1.
         -5    1    5    5    0  502 -0.64732202796E+02  0.81324955203E+01 -0.28352915171E+02  0.71290766309E+02  0.47000000000E+01 0.  1.
         11    1    6    6    0    0 -0.46715377722E+02 -0.67271957292E+01  0.61464204832E+01  0.47595799844E+02  0.00000000000E+00 0. -1.
        -12    1    6    6    0    0 -0.77024690300E+02 -0.10456219445E+03  0.11050742921E+03  0.17052257134E+03  0.00000000000E+00 0.  1.
</event>
<event>
12    1  0.1066489E+000  0.2527919E+03  0.7818608E-02  0.1111554E+00
         21   -1    0    0  503  502  0.00000000000E+00  0.00000000000E+00  0.25942039761E+03  0.25942039761E+03  0.00000000000E+00 0.  1.
         21   -1    0    0  501  503 -0.00000000000E+00 -0.00000000000E+00 -0.24649479829E+03  0.24649479829E+03  0.00000000000E+00 0.  1.
          6    2    1    2  501    0  0.11058752526E+03 -0.14785471313E+03 -0.11303461451E+00  0.25278730707E+03  0.17265802298E+03 0.  0.
         24    2    3    3    0    0  0.14721227077E+03 -0.11942817627E+03 -0.87761694103E+01  0.20538920705E+03  0.78569480516E+02 0.  0.
         -6    2    1    2    0  502 -0.11058752526E+03  0.14785471313E+03  0.13038633928E+02  0.25312788883E+03  0.17266471901E+03 0.  0.
        -24    2    5    5    0    0 -0.90874276259E+02  0.44920220948E+02  0.53902465931E+02  0.14053985824E+03  0.81055632652E+02 0.  0.
          5    1    3    3  501    0 -0.36624745506E+02 -0.28426536857E+02  0.86631347958E+01  0.47398100020E+02  0.47000000000E+01 0. -1.
        -11    1    4    4    0    0  0.39813613989E+02  0.29103457851E+01  0.10981568743E+02  0.41402763477E+02  0.00000000000E+00 0.  1.
         12    1    4    4    0    0  0.10739865678E+03 -0.12233852206E+03 -0.19757738154E+02  0.16398644357E+03  0.00000000000E+00 0. -1.
         -5    1    5    5    0  502 -0.19713249003E+02  0.10293449218E+03 -0.40863832003E+02  0.11258803059E+03  0.47000000000E+01 0.  1.
         11    1    6    6    0    0 -0.66777202076E+02 -0.11002395726E+02  0.18743416178E+02  0.70225088671E+02  0.00000000000E+00 0. -1.
        -12    1    6    6    0    0 -0.24097074183E+02  0.55922616674E+02  0.35159049753E+02  0.70314769568E+02  0.00000000000E+00 0.  1.
</event>
<event>
12    1  0.1066489E+000  0.1788219E+03  0.7818608E-02  0.1169218E+00
         21   -1    0    0  503  502  0.00000000000E+00  0.00000000000E+00  0.10196365972E+03  0.10196365972E+03  0.00000000000E+00 0.  1.
         21   -1    0    0  501  503 -0.00000000000E+00 -0.00000000000E+00 -0.38943315829E+03  0.38943315829E+03  0.00000000000E+00 0.  1.
          6    2    1    2  501    0 -0.32748017258E+02  0.38246308905E+02 -0.25387014434E+03  0.31052746364E+03  0.17158683723E+03 0.  0.
         24    2    3    3    0    0  0.19643041791E+01  0.29110833124E+02 -0.40995796592E+02  0.94596965317E+02  0.80103878889E+02 0.  0.
         -6    2    1    2    0  502  0.32748017258E+02 -0.38246308905E+02 -0.33599354230E+02  0.18086935438E+03  0.17043941437E+03 0.  0.
        -24    2    5    5    0    0 -0.46868263952E+02 -0.19701621824E+02 -0.10913388818E+02  0.95902297943E+02  0.80581391320E+02 0.  0.
          5    1    3    3  501    0 -0.34712321437E+02  0.91354757814E+01 -0.21287434775E+03  0.21593049832E+03  0.47000000000E+01 0. -1.
        -11    1    4    4    0    0 -0.21453124297E+02 -0.17206547612E+02  0.14655462325E+01  0.27539964571E+02  0.00000000000E+00 0.  1.
         12    1    4    4    0    0  0.23417428476E+02  0.46317380736E+02 -0.42461342824E+02  0.67057000746E+02  0.00000000000E+00 0. -1.
         -5    1    5    5    0  502  0.79616281209E+02 -0.18544687081E+02 -0.22685965412E+02  0.84967056435E+02  0.47000000000E+01 0.  1.
         11    1    6    6    0    0 -0.39868276860E+02 -0.34767538219E+02  0.23350823369E+02  0.57823197470E+02  0.00000000000E+00 0. -1.
        -12    1    6    6    0    0 -0.69999870917E+01  0.15065916395E+02 -0.34264212187E+02  0.38079100474E+02  0.00000000000E+00 0.  1.
</event>
<event>
12    1  0.1066489E+000  0.3015777E+03  0.7818608E-02  0.1084553E+00
         21   -1    0    0  503  502  0.00000000000E+00  0.00000000000E+00  0.68589707520E+03  0.68589707520E+03  0.00000000000E+00 0. -1.
         21   -1    0    0  501  503 -0.00000000000E+00 -0.00000000000E+00 -0.15651349059E+03  0.15651349059E+03  0.00000000000E+00 0. -1.
          6    2    1    2  501    0  0.22016583230E+03  0.11375086109E+03  0.43023767632E+03  0.52495346044E+03  0.17046825335E+03 0.  0.
         24    2    3    3    0    0  0.44959073795E+02  0.23670421272E+02  0.62243629703E+02  0.10751651646E+03  0.71441757485E+02 0.  0.
         -6    2    1    2    0  502 -0.22016583230E+03 -0.11375086109E+03  0.99145908295E+02  0.31745710536E+03  0.17186288285E+03 0.  0.
        -24    2    5    5    0    0 -0.31677965362E+02 -0.60424113137E+02  0.34822036912E+02  0.11122648576E+03  0.80648558217E+02 0.  0.
          5    1    3    3  501    0  0.17520675850E+03  0.90080439813E+02  0.36799404661E+03  0.41743694399E+03  0.47000000000E+01 0. -1.
        -13    1    4    4    0    0  0.58457904179E+02  0.27353984151E+02  0.66717128583E+02  0.92826409261E+02  0.00000000000E+00 0.  1.
         14    1    4    4    0    0 -0.13498830384E+02 -0.36835628793E+01 -0.44734988791E+01  0.14690107196E+02  0.00000000000E+00 0. -1.
         -5    1    5    5    0  502 -0.18848786694E+03 -0.53326747948E+02  0.64323871382E+02  0.20623061959E+03  0.47000000000E+01 0.  1.
         11    1    6    6    0    0  0.28983844871E+01  0.16967211692E+02  0.17816834849E+02  0.24773504178E+02  0.00000000000E+00 0. -1.
        -12    1    6    6    0    0 -0.34576349849E+02 -0.77391324828E+02  0.17005202063E+02  0.86452981584E+02  0.00000000000E+00 0.  1.
</event>
<event>
12    1  0.1066489E+000  0.2618692E+03  0.7818608E-02  0.1106066E+00
         21   -1    0    0  501  502  0.00000000000E+00  0.00000000000E+00  0.10803960748E+04  0.10803960748E+04  0.00000000000E+00 0. -1.
         21   -1    0    0  502  503 -0.00000000000E+00 -0.00000000000E+00 -0.93729334849E+02  0.93729334849E+02  0.00000000000E+00 0. -1.
         -6    2    1    2    0  503  0.59171253717E+02  0.18908131760E+03  0.82741736532E+03  0.86786807374E+03  0.17123818223E+03 0.  0.
        -24    2    3    3    0    0  0.56601881833E+02  0.36078103484E+02  0.25853873993E+03  0.27874876016E+03  0.79706892242E+02 0.  0.
          6    2    1    2  501    0 -0.59171253717E+02 -0.18908131760E+03  0.15924937463E+03  0.30625733591E+03  0.17082216059E+03 0.  0.
         24    2    5    5    0    0 -0.23235153832E+02 -0.23236787572E+02  0.30162112180E+02  0.92993596045E+02  0.81598009926E+02 0.  0.
          5    1    5    5  501    0 -0.35936099885E+02 -0.16584453003E+03  0.12908726245E+03  0.21326373986E+03  0.47000000000E+01 0. -1.
        -13    1    6    6    0    0  0.11602192344E+01 -0.50983962004E+02  0.16448649901E+02  0.53584219448E+02  0.00000000000E+00 0.  1.
         14    1    6    6    0    0 -0.24395373066E+02  0.27747174433E+02  0.13713462278E+02  0.39409376596E+02  0.00000000000E+00 0. -1.
         -5    1    3    3    0  503  0.25693718838E+01  0.15300321411E+03  0.56887862539E+03  0.58911931358E+03  0.47000000000E+01 0.  1.
         13    1    4    4    0    0 -0.19116112653E+02  0.17603759604E+02  0.56165802902E+02  0.61886311336E+02  0.00000000000E+00 0. -1.
        -14    1    4    4    0    0  0.75717994486E+02  0.18474343880E+02  0.20237293703E+03  0.21686244883E+03  0.00000000000E+00 0.  1.
</event>
<event>
12    1  0.1066489E+000  0.2012649E+03  0.7818608E-02  0.1149289E+00
         21   -1    0    0  503  502  0.00000000000E+00  0.00000000000E+00  0.14202613490E+03  0.14202613490E+03  0.00000000000E+00 0. -1.
         21   -1    0    0  501  503 -0.00000000000E+00 -0.00000000000E+00 -0.30213486010E+03  0.30213486010E+03  0.00000000000E+00 0.  1.
          6    2    1    2  501    0  0.28891158199E+02  0.95568491291E+02 -0.13809829023E+03  0.24169611927E+03  0.17139965214E+03 0.  0.
         24    2    3    3    0    0 -0.48349252093E+02  0.39857828956E+02 -0.67609069668E+02  0.12311880653E+03  0.81614689321E+02 0.  0.
         -6    2    1    2    0  502 -0.28891158199E+02 -0.95568491291E+02 -0.22010434967E+02  0.20246487574E+03  0.17475563256E+03 0.  0.
        -24    2    5    5    0    0  0.30257394148E+02 -0.86707808159E+02  0.28449360661E+02  0.12407263170E+03  0.78427660423E+02 0.  0.
          5    1    3    3  501    0  0.77240410292E+02  0.55710662335E+02 -0.70489220564E+02  0.11857731274E+03  0.47000000000E+01 0. -1.
        -13    1    4    4    0    0 -0.42648319034E+01 -0.24037572707E+02 -0.96936778991E+01  0.26267110309E+02  0.00000000000E+00 0.  1.
         14    1    4    4    0    0 -0.44084420190E+02  0.63895401663E+02 -0.57915391769E+02  0.96851696221E+02  0.00000000000E+00 0. -1.
         -5    1    5    5    0  502 -0.59148552346E+02 -0.88606831317E+01 -0.50459795628E+02  0.78392244036E+02  0.47000000000E+01 0.  1.
         13    1    6    6    0    0 -0.16986475807E+02 -0.47612028936E+02 -0.10222315601E+02  0.51574619688E+02  0.00000000000E+00 0. -1.
        -14    1    6    6    0    0  0.47243869954E+02 -0.39095779223E+02  0.38671676262E+02  0.72498012015E+02  0.00000000000E+00 0.  1.
</event>
<event>
12    1  0.1066489E+000  0.3707431E+03  0.7818608E-02  0.1054683E+00
         21   -1    0    0  501  502  0.00000000000E+00  0.00000000000E+00  0.84539994274E+02  0.84539994274E+02  0.00000000000E+00 0.  1.
         21   -1    0    0  502  503 -0.00000000000E+00 -0.00000000000E+00 -0.23021511096E+04  0.23021511096E+04  0.00000000000E+00 0. -1.
         -6    2    1    2    0  503 -0.11447966822E+03  0.30598423897E+03 -0.45907097491E+03  0.59008184773E+03  0.17526687673E+03 0.  0.
        -24    2    3    3    0    0 -0.59088373360E+02  0.29047267373E+03 -0.41721059055E+03  0.51878538231E+03  0.84898680675E+02 0.  0.
          6    2    1    2  501    0  0.11447966822E+03 -0.30598423897E+03 -0.17585401405E+04  0.17966092562E+04  0.16914326732E+03 0.  0.
         24    2    5    5    0    0  0.29606438745E+02 -0.16475744551E+03 -0.65690018047E+03  0.68270568598E+03  0.80917547572E+02 0.  0.
          5    1    5    5  501    0  0.84873229475E+02 -0.14122679346E+03 -0.11016399600E+04  0.11139035702E+04  0.47000000000E+01 0. -1.
        -13    1    6    6    0    0  0.57472891332E+02 -0.11339429660E+03 -0.46942340811E+03  0.48633294750E+03  0.00000000000E+00 0.  1.
         14    1    6    6    0    0 -0.27866452588E+02 -0.51363148905E+02 -0.18747677235E+03  0.19637273848E+03  0.00000000000E+00 0. -1.
         -5    1    3    3    0  503 -0.55391294860E+02  0.15511565243E+02 -0.41860384356E+02  0.71296465417E+02  0.47000000000E+01 0.  1.
         11    1    4    4    0    0 -0.56319100026E+02  0.96029944986E+02 -0.18489074117E+03  0.21581978022E+03  0.00000000000E+00 0. -1.
        -12    1    4    4    0    0 -0.27692733343E+01  0.19444272874E+03 -0.23231984938E+03  0.30296560209E+03  0.00000000000E+00 0.  1.
</event>
<event>
12    1  0.1066489E+000  0.1891141E+03  0.7818608E-02  0.1159797E+00
         21   -1    0    0  501  502  0.00000000000E+00  0.00000000000E+00  0.31703754112E+03  0.31703754112E+03  0.00000000000E+00 0.  1.
         21   -1    0    0  502  503 -0.00000000000E+00 -0.00000000000E+00 -0.11197790229E+03  0.11197790229E+03  0.00000000000E+00 0.  1.
         -6    2    1    2    0  503  0.85396849530E+01 -0.73872089326E+02  0.86700584017E+02  0.20591682010E+03  0.17133223203E+03 0.  0.
        -24    2    3    3    0    0 -0.57503724416E+02 -0.60716548331E+02  0.71509710088E+02  0.13672395320E+03  0.81158013641E+02 0.  0.
          6    2    1    2  501    0 -0.85396849530E+01  0.73872089326E+02  0.11835905481E+03  0.22309862331E+03  0.17387960796E+03 0.  0.
         24    2    5    5    0    0 -0.60571904664E+02  0.50287796896E+02  0.12353044478E+03  0.16554513504E+03  0.77120702779E+02 0.  0.
          5    1    5    5  501    0  0.52032219710E+02  0.23584292430E+02 -0.51713899695E+01  0.57553488267E+02  0.47000000000E+01 0. -1.
        -13    1    6    6    0    0 -0.20764468590E+02  0.53663500039E+02  0.10858887737E+03  0.12289214247E+03  0.00000000000E+00 0.  1.
         14    1    6    6    0    0 -0.39807436073E+02 -0.33757031431E+01  0.14941567404E+02  0.42652992567E+02  0.00000000000E+00 0. -1.
         -5    1    3    3    0  503  0.66043409369E+02 -0.13155540995E+02  0.15190873928E+02  0.69192866906E+02  0.47000000000E+01 0.  1.
         11    1    4    4    0    0 -0.19166944563E+01 -0.51519268870E+02  0.60197412695E+02  0.79256780642E+02  0.00000000000E+00 0. -1.
        -12    1    4    4    0    0 -0.55587029960E+02 -0.91972794611E+01  0.11312297393E+02  0.57467172556E+02  0.00000000000E+00 0.  1.
</event>
<event>
12    1  0.1066489E+000  0.2798996E+03  0.7818608E-02  0.1095927E+00
         21   -1    0    0  501  502  0.00000000000E+00  0.00000000000E+00  0.22952693234E+03  0.22952693234E+03  0.00000000000E+00 0.  1.
         21   -1    0    0  502  503 -0.00000000000E+00 -0.00000000000E+00 -0.47064771374E+03  0.47064771374E+03  0.00000000000E+00 0.  1.
         -6    2    1    2    0  503 -0.20293729368E+03  0.86012664018E+02  0.64314572421E+02  0.28588664890E+03  0.17033228776E+03 0.  0.
        -24    2    3    3    0    0 -0.44362955555E+02  0.72101973429E+02  0.52515640675E+02  0.12619747326E+03  0.77467046833E+02 0.  0.
          6    2    1    2  501    0  0.20293729368E+03 -0.86012664018E+02 -0.30543535382E+03  0.41428799718E+03  0.17251685630E+03 0.  0.
         24    2    5    5    0    0  0.78628107740E+02 -0.53459000957E+01 -0.21327240661E+03  0.23971423240E+03  0.75939685419E+02 0.  0.
          5    1    5    5  501    0  0.12430918594E+03 -0.80666763922E+02 -0.92162947210E+02  0.17457376478E+03  0.47000000000E+01 0. -1.
        -11    1    6    6    0    0  0.17083647350E+02 -0.36534004284E+02 -0.84069399837E+02  0.93242953969E+02  0.00000000000E+00 0.  1.
         12    1    6    6    0    0  0.61544460390E+02  0.31188104189E+02 -0.12920300677E+03  0.14647127844E+03  0.00000000000E+00 0. -1.
         -5    1    3    3    0  503 -0.15857433812E+03  0.13910690589E+02  0.11798931746E+02  0.15968917563E+03  0.47000000000E+01 0.  1.
         11    1    4    4    0    0 -0.13300427137E+02  0.21296849119E+02 -0.20188922861E+02  0.32218779473E+02  0.00000000000E+00 0. -1.
        -12    1    4    4    0    0 -0.31062528417E+02  0.50805124310E+02  0.72704563536E+02  0.93978693792E+02  0.00000000000E+00 0.  1.
</event>
<event>
12    1  0.1066489E+000  0.1770598E+03  0.7818608E-02  0.1170781E+00
         21   -1    0    0  503  502  0.00000000000E+00  0.00000000000E+00  0.17561928990E+03  0.17561928990E+03  0.00000000000E+00 0.  1.
         21   -1    0    0  501  503 -0.00000000000E+00 -0.00000000000E+00 -0.19599946653E+03  0.19599946653E+03  0.00000000000E+00 0.  1.
          6    2    1    2  501    0 -0.41462966298E+02  0.13972775468E+02  0.45974084455E+02  0.18253398827E+03  0.17114503908E+03 0.  0.
         24    2    3    3    0    0 -0.18252939730E+02 -0.58135309383E+02  0.23869330141E+02  0.10348342598E+03  0.80163523663E+02 0.  0.
         -6    2    1    2    0  502  0.41462966298E+02 -0.13972775468E+02 -0.66354261087E+02  0.18908476816E+03  0.17156848649E+03 0.  0.
        -24    2    5    5    0    0  0.52227427558E+01  0.55801798614E+02 -0.25909216504E+02  0.10054248096E+03  0.79349765012E+02 0.  0.
          5    1    3    3  501    0 -0.23210026568E+02  0.72108084850E+02  0.22104754314E+02  0.79050562284E+02  0.47000000000E+01 0. -1.
        -11    1    4    4    0    0  0.22649747067E+02 -0.36870551133E+02 -0.12189624439E+02  0.44955928719E+02  0.00000000000E+00 0.  1.
         12    1    4    4    0    0 -0.40902686797E+02 -0.21264758250E+02  0.36058954580E+02  0.58527497264E+02  0.00000000000E+00 0. -1.
         -5    1    5    5    0  502  0.36240223542E+02 -0.69774574081E+02 -0.40445044584E+02  0.88542287196E+02  0.47000000000E+01 0.  1.
         11    1    6    6    0    0  0.13362772682E+02  0.29633771207E+02 -0.52892353339E+02  0.62083211349E+02  0.00000000000E+00 0. -1.
        -12    1    6    6    0    0 -0.81400299267E+01  0.26168027407E+02  0.26983136835E+02  0.38459269611E+02  0.00000000000E+00 0.  1.
</event>
<event>
12    1  0.1066489E+000  0.2777576E+03  0.7818608E-02  0.1097157E+00
         21   -1    0    0  501  502  0.00000000000E+00  0.00000000000E+00  0.10343205880E+04  0.10343205880E+04  0.00000000000E+00 0. -1.
         21   -1    0    0  502  503 -0.00000000000E+00 -0.00000000000E+00 -0.74495753500E+02  0.74495753500E+02  0.00000000000E+00 0. -1.
         -6    2    1    2    0  503 -0.20971776769E+03  0.52779657678E+02  0.52020461987E+03  0.58971359347E+03  0.17430445044E+03 0.  0.
        -24    2    3    3    0    0 -0.16428184983E+03  0.13177836682E+02  0.48782073333E+03  0.52113128551E+03  0.80290518163E+02 0.  0.
          6    2    1    2  501    0  0.20971776769E+03 -0.52779657678E+02  0.43962021459E+03  0.51910274798E+03  0.17156484355E+03 0.  0.
         24    2    5    5    0    0  0.21509475298E+03 -0.83750287526E+02  0.38614225437E+03  0.45689282825E+03  0.79783159105E+02 0.  0.
          5    1    5    5  501    0 -0.53769852942E+01  0.30970629848E+02  0.53477960217E+02  0.62209919731E+02  0.47000000000E+01 0. -1.
        -11    1    6    6    0    0  0.13260793502E+03 -0.57113665661E+02  0.16435147173E+03  0.21876526574E+03  0.00000000000E+00 0.  1.
         12    1    6    6    0    0  0.82486817960E+02 -0.26636621865E+02  0.22179078264E+03  0.23812756251E+03  0.00000000000E+00 0. -1.
         -5    1    3    3    0  503 -0.45435917856E+02  0.39601820996E+02  0.32383886535E+02  0.68582307957E+02  0.47000000000E+01 0.  1.
         13    1    4    4    0    0 -0.35794854235E+02 -0.18196787767E+02  0.20521707136E+03  0.20910868239E+03  0.00000000000E+00 0. -1.
        -14    1    4    4    0    0 -0.12848699560E+03  0.31374624449E+02  0.28260366197E+03  0.31202260312E+03  0.00000000000E+00 0.  1.
</event>
<event>
12    1  0.1066489E+000  0.2048475E+03  0.7818608E-02  0.1148661E+00
         21   -1    0    0  503  502  0.00000000000E+00  0.00000000000E+00  0.19370365166E+03  0.19370365166E+03  0.00000000000E+00 0.  1.
         21   -1    0    0  501  503 -0.00000000000E+00 -0.00000000000E+00 -0.20579306197E+03  0.20579306197E+03  0.00000000000E+00 0.  1.
          6    2    1    2  501    0 -0.67144753608E+02 -0.91086336175E+02  0.20565967297E+02  0.19206266702E+03  0.15381797839E+03 0.  0.
         24    2    3    3    0    0 -0.33285973242E+02 -0.88917778203E+02 -0.33612261723E+02  0.12796516199E+03  0.78936501375E+02 0.  0.
         -6    2    1    2    0  502  0.67144753608E+02  0.91086336175E+02 -0.32655377613E+02  0.20743404661E+03  0.17075529693E+03 0.  0.
        -24    2    5    5    0    0  0.28217040231E+02  0.11423744955E+03  0.13033019118E+02  0.14292931410E+03  0.80078292960E+02 0.  0.
          5    1    3    3  501    0 -0.33858780366E+02 -0.21685579726E+01  0.54178229020E+02  0.64097505032E+02  0.47000000000E+01 0. -1.
        -13    1    4    4    0    0 -0.57606276044E+02 -0.73542293872E+02 -0.33345117900E+02  0.99190971945E+02  0.00000000000E+00 0.  1.
         14    1    4    4    0    0  0.24320302803E+02 -0.15375484331E+02 -0.26714382286E+00  0.28774190043E+02  0.00000000000E+00 0. -1.
         -5    1    5    5    0  502  0.38927713377E+02 -0.23151113377E+02 -0.45688396731E+02  0.64504732502E+02  0.47000000000E+01 0.  1.
         13    1    6    6    0    0  0.24340961924E+02  0.64140036957E+02 -0.31775440207E+02  0.75604929526E+02  0.00000000000E+00 0. -1.
        -14    1    6    6    0    0  0.38760783063E+01  0.50097412595E+02  0.44808459325E+02  0.67324384578E+02  0.00000000000E+00 0.  1.
</event>
<event>
12    1  0.1066489E+000  0.1768649E+03  0.7818608E-02  0.1171083E+00
         21   -1    0    0  503  502  0.00000000000E+00  0.00000000000E+00  0.46683477141E+02  0.46683477141E+02  0.00000000000E+00 0.  1.
         21   -1    0    0  501  503 -0.00000000000E+00 -0.00000000000E+00 -0.10021458518E+04  0.10021458518E+04  0.00000000000E+00 0.  1.
          6    2    1    2  501    0  0.14211576442E+01 -0.39677471233E+02 -0.17516298695E+03  0.24892424904E+03  0.17235106136E+03 0.  0.
         24    2    3    3    0    0  0.16673497304E+01  0.45341913912E+02 -0.10852595583E+03  0.14079959701E+03  0.77382001887E+02 0.  0.
         -6    2    1    2    0  502 -0.14211576442E+01  0.39677471233E+02 -0.78029938773E+03  0.79990507992E+03  0.17147793147E+03 0.  0.
        -24    2    5    5    0    0  0.62947608855E+02  0.18701278023E+02 -0.38672282606E+03  0.40052063020E+03  0.80932637182E+02 0.  0.
          5    1    3    3  501    0 -0.24619208614E+00 -0.85019385145E+02 -0.66637031118E+02  0.10812465203E+03  0.47000000000E+01 0. -1.
        -11    1    4    4    0    0  0.39206170874E+02  0.17371401301E+02 -0.52777124906E+02  0.68002311219E+02  0.00000000000E+00 0.  1.
         12    1    4    4    0    0 -0.37538821144E+02  0.27970512610E+02 -0.55748830924E+02  0.72797285787E+02  0.00000000000E+00 0. -1.
         -5    1    5    5    0  502 -0.64368766499E+02  0.20976193210E+02 -0.39357656167E+03  0.39938444972E+03  0.47000000000E+01 0.  1.
         11    1    6    6    0    0  0.45341362414E+02 -0.15698162488E+02 -0.31866539455E+03  0.32225751370E+03  0.00000000000E+00 0. -1.
        -12    1    6    6    0    0  0.17606246441E+02  0.34399440510E+02 -0.68057431511E+02  0.78263116505E+02  0.00000000000E+00 0.  1.
</event>
<event>
12    1  0.1066489E+000  0.3653260E+03  0.7818608E-02  0.1056540E+00
         21   -1    0    0  503  502  0.00000000000E+00  0.00000000000E+00  0.26062294077E+03  0.26062294077E+03  0.00000000000E+00 0. -1.
         21   -1    0    0  501  503 -0.00000000000E+00 -0.00000000000E+00 -0.51164022650E+03  0.51164022650E+03  0.00000000000E+00 0. -1.
          6    2    1    2  501    0  0.73096149976E+02  0.31369031688E+03 -0.11765549477E+03  0.38335639313E+03  0.17139033422E+03 0.  0.
         24    2    3    3    0    0 -0.29445484590E+02  0.15744928323E+03 -0.60068218401E+02  0.18774342880E+03  0.77343977427E+02 0.  0.
         -6    2    1    2    0  502 -0.73096149976E+02 -0.31369031688E+03 -0.13336179097E+03  0.38890677414E+03  0.17239039891E+03 0.  0.
        -24    2    5    5    0    0 -0.46178301962E+01 -0.13126924931E+03 -0.11666016981E+03  0.19328530211E+03  0.80601939298E+02 0.  0.
          5    1    3    3  501    0  0.10254163457E+03  0.15624103365E+03 -0.57587276366E+02  0.19561296433E+03  0.47000000000E+01 0. -1.
        -13    1    4    4    0    0  0.12995673283E+02  0.11153198602E+03 -0.54938851790E+02  0.12500619531E+03  0.00000000000E+00 0.  1.
         14    1    4    4    0    0 -0.42441157872E+02  0.45917297211E+02 -0.51293666113E+01  0.62737233494E+02  0.00000000000E+00 0. -1.
         -5    1    5    5    0  502 -0.68478319780E+02 -0.18242106756E+03 -0.16701621157E+02  0.19562147203E+03  0.47000000000E+01 0.  1.
         11    1    6    6    0    0 -0.18596627943E+01  0.65042716640E+01 -0.29425671835E+02  0.30193278366E+02  0.00000000000E+00 0. -1.
        -12    1    6    6    0    0 -0.27581674019E+01 -0.13777352098E+03 -0.87234497976E+02  0.16309202374E+03  0.00000000000E+00 0.  1.
</event>
<event>
12    1  0.1066489E+000  0.4036854E+03  0.7818608E-02  0.1042549E+00
         21   -1    0    0  501  502  0.00000000000E+00  0.00000000000E+00  0.11155108189E+04  0.11155108189E+04  0.00000000000E+00 0.  1.
         21   -1    0    0  502  503 -0.00000000000E+00 -0.00000000000E+00 -0.15201101414E+03  0.15201101414E+03  0.00000000000E+00 0.  1.
         -6    2    1    2    0  503  0.60164092736E+02 -0.35998125778E+03  0.35520751015E+03  0.53771210406E+03  0.17249842775E+03 0.  0.
        -24    2    3    3    0    0  0.84418741600E+02 -0.36061217507E+03  0.33161483547E+03  0.50354500956E+03  0.80134342239E+02 0.  0.
          6    2    1    2  501    0 -0.60164092736E+02  0.35998125778E+03  0.60829229458E+03  0.72980972896E+03  0.17145407790E+03 0.  0.
         24    2    5    5    0    0 -0.76635760057E+02  0.14657657091E+03  0.34208772714E+03  0.38819614912E+03  0.79463867726E+02 0.  0.
          5    1    5    5  501    0  0.16471667321E+02  0.21340468687E+03  0.26620456745E+03  0.34161357984E+03  0.47000000000E+01 0. -1.
        -11    1    6    6    0    0 -0.42598993799E+02  0.38488080042E+02  0.54800876132E+02  0.79367138054E+02  0.00000000000E+00 0.  1.
         12    1    6    6    0    0 -0.34036766258E+02  0.10808849087E+03  0.28728685100E+03  0.30882901106E+03  0.00000000000E+00 0. -1.
         -5    1    3    3    0  503 -0.24254648865E+02  0.63091728731E+00  0.23592674686E+02  0.34167094507E+02  0.47000000000E+01 0.  1.
         13    1    4    4    0    0 -0.71162409612E+01 -0.88804499475E+02  0.10711917289E+03  0.13932479038E+03  0.00000000000E+00 0. -1.
        -14    1    4    4    0    0  0.91534982561E+02 -0.27180767559E+03  0.22449566257E+03  0.36422021918E+03  0.00000000000E+00 0.  1.
</event>
<event>
12    1  0.1066489E+000  0.2359546E+03  0.7818608E-02  0.1122668E+00
         21   -1    0    0  503  502  0.00000000000E+00  0.00000000000E+00  0.77679295081E+03  0.77679295081E+03  0.00000000000E+00 0.  1.
         21   -1    0    0  501  503 -0.00000000000E+00 -0.00000000000E+00 -0.17207301065E+03  0.17207301065E+03  0.00000000000E+00 0.  1.
          6    2    1    2  501    0 -0.45662040873E+02  0.15386572538E+03  0.66547491005E+03  0.70606756768E+03  0.17295915936E+03 0.  0.
         24    2    3    3    0    0  0.17743528618E+02  0.83359544251E+02  0.51437909479E+03  0.52762031159E+03  0.80831266316E+02 0.  0.
         -6    2    1    2    0  502  0.45662040873E+02 -0.15386572538E+03 -0.60754969886E+02  0.24279839378E+03  0.17175625238E+03 0.  0.
        -24    2    5    5    0    0  0.89453476165E+02 -0.10717822548E+03 -0.10290828464E+02  0.16115200977E+03  0.79843426077E+02 0.  0.
          5    1    3    3  501    0 -0.63405569491E+02  0.70506181134E+02  0.15109581526E+03  0.17844725610E+03  0.47000000000E+01 0. -1.
        -13    1    4    4    0    0  0.51211573512E+01  0.44375689700E+01 -0.28975921883E+00  0.67824944810E+01  0.00000000000E+00 0.  1.
         14    1    4    4    0    0  0.12622371266E+02  0.78921975281E+02  0.51466885401E+03  0.52083781711E+03  0.00000000000E+00 0. -1.
         -5    1    5    5    0  502 -0.43791435292E+02 -0.46687499905E+02 -0.50464141423E+02  0.81646384010E+02  0.47000000000E+01 0.  1.
         13    1    6    6    0    0 -0.94345016811E+01 -0.36652590430E+02 -0.11921030837E+02  0.39680387894E+02  0.00000000000E+00 0. -1.
        -14    1    6    6    0    0  0.98887977847E+02 -0.70525635051E+02  0.16302023730E+01  0.12147162188E+03  0.00000000000E+00 0.  1.
</event>
<event>
12    1  0.1066489E+000  0.1795933E+03  0.7818608E-02  0.1168226E+00
         21   -1    0    0  501  502  0.00000000000E+00  0.00000000000E+00  0.64983458770E+03  0.64983458770E+03  0.00000000000E+00 0. -1.
         21   -1    0    0  502  503 -0.00000000000E+00 -0.00000000000E+00 -0.73947072559E+02  0.73947072559E+02  0.00000000000E+00 0. -1.
         -6    2    1    2    0  503  0.54329436827E+02 -0.94839556606E+00  0.80232058308E+02  0.19659279176E+03  0.17105249321E+03 0.  0.
        -24    2    3    3    0    0  0.59088195368E+02 -0.45721700852E+02  0.10002192344E+03  0.14718607753E+03  0.77958113695E+02 0.  0.
          6    2    1    2  501    0 -0.54329436827E+02  0.94839556606E+00  0.49565545683E+03  0.52718886849E+03  0.17117588620E+03 0.  0.
         24    2    5    5    0    0 -0.67687982425E+02  0.42667668585E+02  0.44619324287E+03  0.46095029142E+03  0.83573729589E+02 0.  0.
          5    1    5    5  501    0  0.13358545597E+02 -0.41719273019E+02  0.49462213968E+02  0.66238577070E+02  0.47000000000E+01 0. -1.
        -13    1    6    6    0    0 -0.32075105821E+02 -0.17114248683E+02  0.25317276647E+03  0.25576973942E+03  0.00000000000E+00 0.  1.
         14    1    6    6    0    0 -0.35612876604E+02  0.59781917268E+02  0.19302047640E+03  0.20518055200E+03  0.00000000000E+00 0. -1.
         -5    1    3    3    0  503 -0.47587585407E+01  0.44773305286E+02 -0.19789865131E+02  0.49406714230E+02  0.47000000000E+01 0.  1.
         13    1    4    4    0    0  0.26203482760E+01  0.20165471083E+02  0.26834108116E+02  0.33668706650E+02  0.00000000000E+00 0. -1.
        -14    1    4    4    0    0  0.56467847092E+02 -0.65887171936E+02  0.73187815323E+02  0.11351737089E+03  0.00000000000E+00 0.  1.
</event>
<event>
12    1  0.1066489E+000  0.1972418E+03  0.7818608E-02  0.1152139E+00
         21   -1    0    0  503  502  0.00000000000E+00  0.00000000000E+00  0.12961754395E+03  0.12961754395E+03  0.00000000000E+00 0. -1.
         21   -1    0    0  501  503 -0.00000000000E+00 -0.00000000000E+00 -0.30374342756E+03  0.30374342756E+03  0.00000000000E+00 0. -1.
          6    2    1    2  501    0  0.79075611751E+02 -0.57043364663E+02 -0.62249866558E+02  0.20659994189E+03  0.17117707872E+03 0.  0.
         24    2    3    3    0    0  0.10211805914E+03 -0.15259876985E+02 -0.81684613323E+02  0.15486394276E+03  0.81544483972E+02 0.  0.
         -6    2    1    2    0  502 -0.79075611751E+02  0.57043364663E+02 -0.11187601705E+03  0.22676102962E+03  0.17145676871E+03 0.  0.
        -24    2    5    5    0    0 -0.29502836529E+02 -0.35346684108E+02 -0.52676888814E+02  0.10626203403E+03  0.79980996615E+02 0.  0.
          5    1    3    3  501    0 -0.23042447388E+02 -0.41783487678E+02  0.19434746765E+02  0.51735999130E+02  0.47000000000E+01 0. -1.
        -11    1    4    4    0    0  0.22567669685E+02 -0.41729795927E+02 -0.24636784366E+02  0.53456961446E+02  0.00000000000E+00 0.  1.
         12    1    4    4    0    0  0.79550389454E+02  0.26469918942E+02 -0.57047828957E+02  0.10140698132E+03  0.00000000000E+00 0. -1.
         -5    1    5    5    0  502 -0.49572775222E+02  0.92390048771E+02 -0.59199128235E+02  0.12049899559E+03  0.47000000000E+01 0.  1.
         11    1    6    6    0    0  0.67370546919E+01  0.19473055469E+02  0.20978122094E+01  0.20712040249E+02  0.00000000000E+00 0. -1.
        -12    1    6    6    0    0 -0.36239891221E+02 -0.54819739577E+02 -0.54774701023E+02  0.85549993777E+02  0.00000000000E+00 0.  1.
</event>
<event>
12    1  0.1066489E+000  0.2163232E+03  0.7818608E-02  0.1137000E+00
         21   -1    0    0  501  502  0.00000000000E+00  0.00000000000E+00  0.74864242825E+03  0.74864242825E+03  0.00000000000E+00 0. -1.
         21   -1    0    0  502  503 -0.00000000000E+00 -0.00000000000E+00 -0.36535360258E+03  0.36535360258E+03  0.00000000000E+00 0. -1.
         -6    2    1    2    0  503 -0.30378776025E+02 -0.12472548459E+03  0.69933190561E+03  0.73202515817E+03  0.17411605741E+03 0.  0.
        -24    2    3    3    0    0 -0.20763397984E+02 -0.86410112855E+02  0.22459172965E+03  0.25562107771E+03  0.83683116836E+02 0.  0.
          6    2    1    2  501    0  0.30378776025E+02  0.12472548459E+03 -0.31604307993E+03  0.38197087266E+03  0.17186972581E+03 0.  0.
         24    2    5    5    0    0 -0.11334869397E+02  0.14445369793E+03 -0.26719408835E+03  0.31460957372E+03  0.81185915769E+02 0.  0.
          5    1    5    5  501    0  0.41713645422E+02 -0.19728213340E+02 -0.48848991583E+02  0.67361298939E+02  0.47000000000E+01 0. -1.
        -11    1    6    6    0    0 -0.15092823776E+02  0.13785432125E+03 -0.18069054857E+03  0.22777331178E+03  0.00000000000E+00 0.  1.
         12    1    6    6    0    0  0.37579543792E+01  0.65993766813E+01 -0.86503539781E+02  0.86836261944E+02  0.00000000000E+00 0. -1.
         -5    1    3    3    0  503 -0.96153780409E+01 -0.38315371739E+02  0.47474017596E+03  0.47640408046E+03  0.47000000000E+01 0.  1.
         11    1    4    4    0    0 -0.10834146424E+02  0.37127207465E+01  0.10460369049E+03  0.10522877500E+03  0.00000000000E+00 0. -1.
        -12    1    4    4    0    0 -0.99292515602E+01 -0.90122833602E+02  0.11998803916E+03  0.15039230271E+03  0.00000000000E+00 0.  1.
</event>
<event>
12    1  0.1066489E+000  0.2096262E+03  0.7818608E-02  0.1141915E+00
         21   -1    0    0  501  502  0.00000000000E+00  0.00000000000E+00  0.37106414314E+02  0.37106414314E+02  0.00000000000E+00 0. -1.
         21   -1    0    0  502  503 -0.00000000000E+00 -0.00000000000E+00 -0.15106636496E+04  0.15106636496E+04  0.00000000000E+00 0. -1.
         -6    2    1    2    0  503 -0.46182728960E+02  0.11121660272E+03 -0.10969679701E+04  0.11167681773E+04  0.17126137139E+03 0.  0.
        -24    2    3    3    0    0 -0.69003230316E+02  0.18508821029E+02 -0.44655627790E+03  0.45936954074E+03  0.80646409544E+02 0.  0.
          6    2    1    2  501    0  0.46182728960E+02 -0.11121660272E+03 -0.37658926522E+03  0.43100188661E+03  0.17158430698E+03 0.  0.
         24    2    5    5    0    0  0.56430333354E+02 -0.57790181523E+02 -0.35300829715E+03  0.37152459738E+03  0.83015546753E+02 0.  0.
          5    1    5    5  501    0 -0.10247604394E+02 -0.53426421199E+02 -0.23580968077E+02  0.59477289224E+02  0.47000000000E+01 0. -1.
        -13    1    6    6    0    0  0.29987299147E+02 -0.66145193643E+02 -0.32127573906E+03  0.32938203542E+03  0.00000000000E+00 0.  1.
         14    1    6    6    0    0  0.26443034207E+02  0.83550121201E+01 -0.31732558087E+02  0.42142561957E+02  0.00000000000E+00 0. -1.
         -5    1    3    3    0  503  0.22820501355E+02  0.92707781694E+02 -0.65041169216E+03  0.65739863657E+03  0.47000000000E+01 0.  1.
         13    1    4    4    0    0 -0.49441126392E+02 -0.58342323985E+01 -0.40134672938E+03  0.40442262601E+03  0.00000000000E+00 0. -1.
        -14    1    4    4    0    0 -0.19562103923E+02  0.24343053428E+02 -0.45209548522E+02  0.54946914724E+02  0.00000000000E+00 0.  1.
</event>
<event>
12    1  0.1066489E+000  0.1882774E+03  0.7818608E-02  0.1160433E+00
         21   -1    0    0  501  502  0.00000000000E+00  0.00000000000E+00  0.53535397681E+02  0.53535397681E+02  0.00000000000E+00 0. -1.
         21   -1    0    0  502  503 -0.00000000000E+00 -0.00000000000E+00 -0.81634126855E+03  0.81634126855E+03  0.00000000000E+00 0. -1.
         -6    2    1    2    0  503 -0.74688085852E+02 -0.69443162597E+01 -0.19003805950E+03  0.26751229180E+03  0.17268997802E+03 0.  0.
        -24    2    3    3    0    0 -0.11340432001E+03  0.21862682154E+02 -0.13075805210E+03  0.19092900888E+03  0.77573845965E+02 0.  0.
          6    2    1    2  501    0  0.74688085852E+02  0.69443162597E+01 -0.57276781137E+03  0.60236437443E+03  0.17074349225E+03 0.  0.
         24    2    5    5    0    0 -0.76212565342E+01  0.98417957183E+01 -0.42882496680E+03  0.43645820898E+03  0.80311714859E+02 0.  0.
          5    1    5    5  501    0  0.82309342386E+02 -0.28974794586E+01 -0.14394284457E+03  0.16590616545E+03  0.47000000000E+01 0. -1.
        -11    1    6    6    0    0 -0.32520474253E+02 -0.80330078356E+01 -0.86435713365E+02  0.92699746523E+02  0.00000000000E+00 0.  1.
         12    1    6    6    0    0  0.24899217719E+02  0.17874803554E+02 -0.34238925343E+03  0.34375846246E+03  0.00000000000E+00 0. -1.
         -5    1    3    3    0  503  0.38716234155E+02 -0.28806998414E+02 -0.59280007406E+02  0.76583282920E+02  0.47000000000E+01 0.  1.
         11    1    4    4    0    0 -0.75198613393E+02 -0.60657107271E+01 -0.33052798333E+02  0.82365719693E+02  0.00000000000E+00 0. -1.
        -12    1    4    4    0    0 -0.38205706614E+02  0.27928392881E+02 -0.97705253763E+02  0.10856328919E+03  0.00000000000E+00 0.  1.
</event>
<event>
12    1  0.1066489E+000  0.1838815E+03  0.7818608E-02  0.1164588E+00
         21   -1    0    0  503  502  0.00000000000E+00  0.00000000000E+00  0.34185118406E+02  0.34185118406E+02  0.00000000000E+00 0.  1.
         21   -1    0    0  501  503 -0.00000000000E+00 -0.00000000000E+00 -0.10523084845E+04  0.10523084845E+04  0.00000000000E+00 0.  1.
          6    2    1    2  501    0  0.41548686263E+02  0.41599874030E+02 -0.65608297704E+03  0.68136427920E+03  0.17422848609E+03 0.  0.
         24    2    3    3    0    0 -0.60084986991E+00  0.54346362701E+01 -0.12589660416E+03  0.14825623405E+03  0.78102878978E+02 0.  0.
         -6    2    1    2    0  502 -0.41548686263E+02 -0.41599874030E+02 -0.36204038908E+03  0.40512932373E+03  0.17204558340E+03 0.  0.
        -24    2    5    5    0    0  0.31936864110E+02 -0.14857706634E+02 -0.26308916379E+03  0.27892035171E+03  0.85673448391E+02 0.  0.
          5    1    3    3  501    0  0.42149536133E+02  0.36165237760E+02 -0.53018637288E+03  0.53310804515E+03  0.47000000000E+01 0. -1.
        -11    1    4    4    0    0 -0.15762676403E+02  0.35605655245E+02 -0.94254416495E+02  0.10198097706E+03  0.00000000000E+00 0.  1.
         12    1    4    4    0    0  0.15161826533E+02 -0.30171018975E+02 -0.31642187666E+02  0.46275256997E+02  0.00000000000E+00 0. -1.
         -5    1    5    5    0  502 -0.73485550373E+02 -0.26742167396E+02 -0.98951225288E+02  0.12620897201E+03  0.47000000000E+01 0.  1.
         13    1    6    6    0    0 -0.21966563041E+02 -0.22920106552E+02 -0.52145626609E+02  0.61049386162E+02  0.00000000000E+00 0. -1.
        -14    1    6    6    0    0  0.53903427151E+02  0.80623999182E+01 -0.21094353718E+03  0.21787096555E+03  0.00000000000E+00 0.  1.
</event>
<event>
12    1  0.1066489E+000  0.1829419E+03  0.7818608E-02  0.1165158E+00
         21   -1    0    0  501  502  0.00000000000E+00  0.00000000000E+00  0.21259186855E+02  0.21259186855E+02  0.00000000000E+00 0.  1.
         21   -1    0    0  502  503 -0.00000000000E+00 -0.00000000000E+00 -0.16095153851E+04  0.16095153851E+04  0.00000000000E+00 0.  1.
         -6    2    1    2    0  503 -0.50651132531E+02 -0.38811918547E+02 -0.66168586315E+03  0.68631688717E+03  0.17067743224E+03 0.  0.
        -24    2    3    3    0    0 -0.40171370786E+02  0.14735865777E+02 -0.12006552790E+03  0.14193478959E+03  0.62440921955E+02 0.  0.
          6    2    1    2  501    0  0.50651132531E+02  0.38811918547E+02 -0.92657033514E+03  0.94445768483E+03  0.17145212225E+03 0.  0.
         24    2    5    5    0    0  0.55999264288E+02  0.52995184913E+02 -0.92099770868E+03  0.92763770493E+03  0.79564596377E+02 0.  0.
          5    1    5    5  501    0 -0.53481317572E+01 -0.14183266366E+02 -0.55726264623E+01  0.16819979899E+02  0.47000000000E+01 0. -1.
        -13    1    6    6    0    0  0.43252377966E+01  0.54998841539E+02 -0.35227053551E+03  0.35656431459E+03  0.00000000000E+00 0.  1.
         14    1    6    6    0    0  0.51674026492E+02 -0.20036566254E+01 -0.56872717317E+03  0.57107339034E+03  0.00000000000E+00 0. -1.
         -5    1    3    3    0  503 -0.10479761745E+02 -0.53547784324E+02 -0.54162033525E+03  0.54438209758E+03  0.47000000000E+01 0.  1.
         13    1    4    4    0    0 -0.15850001826E+02 -0.23117682620E+02 -0.65267991104E+02  0.71032108728E+02  0.00000000000E+00 0. -1.
        -14    1    4    4    0    0 -0.24321368960E+02  0.37853548397E+02 -0.54797536801E+02  0.70902680864E+02  0.00000000000E+00 0.  1.
</event>
<event>
12    1  0.1066489E+000  0.2750071E+03  0.7818608E-02  0.1098857E+00
         21   -1    0    0  501  502  0.00000000000E+00  0.00000000000E+00  0.36528982792E+03  0.36528982792E+03  0.00000000000E+00 0. -1.
         21   -1    0    0  502  503 -0.00000000000E+00 -0.00000000000E+00 -0.27420162826E+03  0.27420162826E+03  0.00000000000E+00 0.  1.
         -6    2    1    2    0  503 -0.77403266783E+02 -0.19617865076E+03  0.20653004429E+03  0.34392379038E+03  0.17649811804E+03 0.  0.
        -24    2    3    3    0    0 -0.92393705256E+02 -0.98004309856E+02  0.18353811537E+03  0.24187657948E+03  0.81710454575E+02 0.  0.
          6    2    1    2  501    0  0.77403266783E+02  0.19617865076E+03 -0.11544184463E+03  0.29556766580E+03  0.17191886706E+03 0.  0.
         24    2    5    5    0    0 -0.11472856203E+01  0.12562399156E+03 -0.16424304303E+02  0.15074117475E+03  0.81672764571E+02 0.  0.
          5    1    5    5  501    0  0.78550552403E+02  0.70554659198E+02 -0.99017540323E+02  0.14482649105E+03  0.47000000000E+01 0. -1.
        -13    1    6    6    0    0 -0.17641554734E+02 -0.28798063634E+01  0.67872561654E+01  0.19120266326E+02  0.00000000000E+00 0.  1.
         14    1    6    6    0    0  0.16494269113E+02  0.12850379793E+03 -0.23211560469E+02  0.13162090842E+03  0.00000000000E+00 0. -1.
         -5    1    3    3    0  503  0.14990438473E+02 -0.98174340904E+02  0.22991928928E+02  0.10204721090E+03  0.47000000000E+01 0.  1.
         11    1    4    4    0    0 -0.51476282311E+02 -0.82541533654E+02  0.68982564646E+02  0.11925395861E+03  0.00000000000E+00 0. -1.
        -12    1    4    4    0    0 -0.40917422945E+02 -0.15462776202E+02  0.11455555072E+03  0.12262262087E+03  0.00000000000E+00 0.  1.
</event>
<event>
12    1  0.1066489E+000  0.2545841E+03  0.7818608E-02  0.1110793E+00
         21   -1    0    0  503  502  0.00000000000E+00  0.00000000000E+00  0.99635073346E+02  0.99635073346E+02  0.00000000000E+00 0. -1.
         21   -1    0    0  501  503 -0.00000000000E+00 -0.00000000000E+00 -0.64693914027E+03  0.64693914027E+03  0.00000000000E+00 0. -1.
          6    2    1    2  501    0 -0.14376003262E+03 -0.11486209486E+03 -0.29423898076E+03  0.38761040781E+03  0.17264125412E+03 0.  0.
         24    2    3    3    0    0 -0.12253275669E+03 -0.29352521988E+02 -0.24503010738E+03  0.28658522522E+03  0.78838383947E+02 0.  0.
         -6    2    1    2    0  502  0.14376003262E+03  0.11486209486E+03 -0.25306508617E+03  0.35896380581E+03  0.17593415879E+03 0.  0.
        -24    2    5    5    0    0  0.51752699628E+02  0.18441602939E+02 -0.64120210371E+02  0.12769660823E+03  0.95794507868E+02 0.  0.
          5    1    3    3  501    0 -0.21227275936E+02 -0.85509572877E+02 -0.49208873385E+02  0.10102518259E+03  0.47000000000E+01 0. -1.
        -13    1    4    4    0    0 -0.12015196271E+03 -0.43333210287E+02 -0.18438244564E+03  0.22430146570E+03  0.00000000000E+00 0.  1.
         14    1    4    4    0    0 -0.23807939822E+01  0.13980688299E+02 -0.60647661734E+02  0.62283759514E+02  0.00000000000E+00 0. -1.
         -5    1    5    5    0  502  0.92007332996E+02  0.96420491926E+02 -0.18894487580E+03  0.23126719758E+03  0.47000000000E+01 0.  1.
         13    1    6    6    0    0  0.71068077515E+02  0.13269685399E+02 -0.75628818891E+02  0.10462540054E+03  0.00000000000E+00 0. -1.
        -14    1    6    6    0    0 -0.19315377887E+02  0.51719175395E+01  0.11508608521E+02  0.23071207685E+02  0.00000000000E+00 0.  1.
</event>
<event>
12    1  0.1066489E+000  0.1956811E+03  0.7818608E-02  0.1153500E+00
         21   -1    0    0  503  502  0.00000000000E+00  0.00000000000E+00  0.62439025535E+03  0.62439025535E+03  0.00000000000E+00 0.  1.
         21   -1    0    0  501  503 -0.00000000000E+00 -0.00000000000E+00 -0.27205184055E+03  0.27205184055E+03  0.00000000000E+00 0.  1.
          6    2    1    2  501    0  0.72409631206E+02 -0.59633238313E+02 -0.21842928620E+03  0.29306255711E+03  0.17139145692E+03 0.  0.
         24    2    3    3    0    0  0.10169369337E+03 -0.82125814471E+02 -0.15546635593E+03  0.21991959527E+03  0.84312418310E+02 0.  0.
         -6    2    1    2    0  502 -0.72409631206E+02  0.59633238313E+02  0.57076770100E+03  0.60337953880E+03  0.17173183029E+03 0.  0.
        -24    2    5    5    0    0 -0.10707003812E+03  0.63186095182E+02  0.52747193096E+03  0.54760696218E+03  0.78678277760E+02 0.  0.
          5    1    3    3  501    0 -0.29284062165E+02  0.22492576158E+02 -0.62962930266E+02  0.73142961840E+02  0.47000000000E+01 0. -1.
        -11    1    4    4    0    0  0.32793517784E+02  0.14091846494E+02 -0.23879044506E+02  0.42944193004E+02  0.00000000000E+00 0.  1.
         12    1    4    4    0    0  0.68900175587E+02 -0.96217660965E+02 -0.13158731143E+03  0.17697540226E+03  0.00000000000E+00 0. -1.
         -5    1    5    5    0  502  0.34660406913E+02 -0.35528568686E+01  0.43295770041E+02  0.55772576620E+02  0.47000000000E+01 0.  1.
         11    1    6    6    0    0 -0.58828763835E+02  0.22952906786E+02  0.12276492947E+03  0.13805392893E+03  0.00000000000E+00 0. -1.
        -12    1    6    6    0    0 -0.48241274284E+02  0.40233188396E+02  0.40470700148E+03  0.40955303325E+03  0.00000000000E+00 0.  1.
</event>
<event>
12    1  0.1066489E+000  0.2148966E+03  0.7818608E-02  0.1137817E+00
         21   -1    0    0  501  502  0.00000000000E+00  0.00000000000E+00  0.30642779268E+03  0.30642779268E+03  0.00000000000E+00 0. -1.
         21   -1    0    0  502  503 -0.00000000000E+00 -0.00000000000E+00 -0.38076384296E+03  0.38076384296E+03  0.00000000000E+00 0.  1.
         -6    2    1    2    0  503  0.40402197248E+02  0.12197954226E+03  0.23007369386E+03  0.31457139980E+03  0.17178450073E+03 0.  0.
        -24    2    3    3    0    0  0.89725895609E+02  0.56632387106E+02  0.14929812666E+03  0.19946336288E+03  0.78979357395E+02 0.  0.
          6    2    1    2  501    0 -0.40402197248E+02 -0.12197954226E+03 -0.30440974415E+03  0.37262023584E+03  0.17224750087E+03 0.  0.
         24    2    5    5    0    0 -0.24037858150E+02 -0.15580249104E+03 -0.25451653284E+03  0.30998473478E+03  0.80371857444E+02 0.  0.
          5    1    5    5  501    0 -0.16364339098E+02  0.33822948784E+02 -0.49893211305E+02  0.62635501059E+02  0.47000000000E+01 0. -1.
        -11    1    6    6    0    0  0.15210474679E+02 -0.94405407858E+02 -0.18979377868E+03  0.21252157067E+03  0.00000000000E+00 0.  1.
         12    1    6    6    0    0 -0.39248332829E+02 -0.61397083181E+02 -0.64722754162E+02  0.97463164115E+02  0.00000000000E+00 0. -1.
         -5    1    3    3    0  503 -0.49323698361E+02  0.65347155150E+02  0.80775567209E+02  0.11510803692E+03  0.47000000000E+01 0.  1.
         13    1    4    4    0    0 -0.96672792109E+01  0.17805338902E+02  0.48977024557E+02  0.53002219908E+02  0.00000000000E+00 0. -1.
        -14    1    4    4    0    0  0.99393174820E+02  0.38827048205E+02  0.10032110210E+03  0.14646114297E+03  0.00000000000E+00 0.  1.
</event>
<event>
12    1  0.1066489E+000  0.2599394E+03  0.7818608E-02  0.1107523E+00
         21   -1    0    0  501  502  0.00000000000E+00  0.00000000000E+00  0.80920638724E+02  0.80920638724E+02  0.00000000000E+00 0. -1.
         21   -1    0    0  502  503 -0.00000000000E+00 -0.00000000000E+00 -0.99685149601E+03  0.99685149601E+03  0.00000000000E+00 0. -1.
         -6    2    1    2    0  503  0.13299508369E+03  0.14166272902E+03 -0.68160665193E+03  0.72949031429E+03  0.17266287846E+03 0.  0.
        -24    2    3    3    0    0  0.17883152630E+02  0.10891849965E+03 -0.31248504103E+03  0.34142357407E+03  0.82098168954E+02 0.  0.
          6    2    1    2  501    0 -0.13299508369E+03 -0.14166272902E+03 -0.23432420535E+03  0.34828182045E+03  0.16922284763E+03 0.  0.
         24    2    5    5    0    0 -0.71717996194E+02 -0.14016814596E+03 -0.92648745949E+02  0.19384367416E+03  0.64815119893E+02 0.  0.
          5    1    5    5  501    0 -0.61277087500E+02 -0.14945830574E+01 -0.14167545940E+03  0.15443814629E+03  0.47000000000E+01 0. -1.
        -13    1    6    6    0    0 -0.28328669897E+02 -0.10612641465E+03 -0.83417604578E+02  0.13792688708E+03  0.00000000000E+00 0.  1.
         14    1    6    6    0    0 -0.43389326297E+02 -0.34041731305E+02 -0.92311413714E+01  0.55916787084E+02  0.00000000000E+00 0. -1.
         -5    1    3    3    0  503  0.11511193106E+03  0.32744229366E+02 -0.36912161090E+03  0.38806674022E+03  0.47000000000E+01 0.  1.
         11    1    4    4    0    0  0.22405357500E+02  0.19469976639E+02 -0.20662627580E+02  0.36166617391E+02  0.00000000000E+00 0. -1.
        -12    1    4    4    0    0 -0.45222048696E+01  0.89448523011E+02 -0.29182241345E+03  0.30525695667E+03  0.00000000000E+00 0.  1.
</event>
<event>
12    1  0.1066489E+000  0.1862302E+03  0.7818608E-02  0.1162183E+00
         21   -1    0    0  501  502  0.00000000000E+00  0.00000000000E+00  0.77280720927E+02  0.77280720927E+02  0.00000000000E+00 0.  1.
         21   -1    0    0  502  503 -0.00000000000E+00 -0.00000000000E+00 -0.44967145039E+03  0.44967145039E+03  0.00000000000E+00 0.  1.
         -6    2    1    2    0  503 -0.19051221617E+02  0.68628820197E+02 -0.16147708689E+03  0.24558721535E+03  0.17077870694E+03 0.  0.
        -24    2    3    3    0    0 -0.63859369524E+02  0.20067590431E+01 -0.10752403870E+03  0.14874047787E+03  0.80500091307E+02 0.  0.
          6    2    1    2  501    0  0.19051221617E+02 -0.68628820197E+02 -0.21091364257E+03  0.28136495597E+03  0.17207210644E+03 0.  0.
         24    2    5    5    0    0  0.69948846459E+02 -0.39023795121E+02 -0.79677323706E+02  0.13744801077E+03  0.78280151030E+02 0.  0.
          5    1    5    5  501    0 -0.50897624842E+02 -0.29605025076E+02 -0.13123631887E+03  0.14391694520E+03  0.47000000000E+01 0. -1.
        -13    1    6    6    0    0 -0.88359841899E+01 -0.15631442046E+02  0.58010154799E+01  0.18869774181E+02  0.00000000000E+00 0.  1.
         14    1    6    6    0    0  0.78784830649E+02 -0.23392353075E+02 -0.85478339185E+02  0.11857823659E+03  0.00000000000E+00 0. -1.
         -5    1    3    3    0  503  0.44808147907E+02  0.66622061154E+02 -0.53953048180E+02  0.96846737474E+02  0.47000000000E+01 0.  1.
         11    1    4    4    0    0 -0.51589836006E+02 -0.34833856014E+02 -0.78905338373E+02  0.10050353789E+03  0.00000000000E+00 0. -1.
        -12    1    4    4    0    0 -0.12269533518E+02  0.36840615057E+02 -0.28618700332E+02  0.48236939986E+02  0.00000000000E+00 0.  1.
</event>
<event>
12    1  0.1066489E+000  0.2710474E+03  0.7818608E-02  0.1100728E+00
         21   -1    0    0  501  502  0.00000000000E+00  0.00000000000E+00  0.28061718234E+03  0.28061718234E+03  0.00000000000E+00 0. -1.
         21   -1    0    0  502  503 -0.00000000000E+00 -0.00000000000E+00 -0.35953475454E+03  0.35953475454E+03  0.00000000000E+00 0. -1.
         -6    2    1    2    0  503  0.14410394432E+02  0.20802643762E+03  0.12770129147E+03  0.29933225563E+03  0.17265434024E+03 0.  0.
        -24    2    3    3    0    0  0.11884335423E+02  0.25178110279E+02  0.41235537186E+02  0.97000082092E+02  0.83267471039E+02 0.  0.
          6    2    1    2  501    0 -0.14410394432E+02 -0.20802643762E+03 -0.20661886367E+03  0.34081968124E+03  0.17315900809E+03 0.  0.
         24    2    5    5    0    0 -0.42680109559E+02 -0.19643431998E+03 -0.11664062924E+03  0.24567911863E+03  0.79656507076E+02 0.  0.
          5    1    5    5  501    0  0.28269715127E+02 -0.11592117636E+02 -0.89978234422E+02  0.95140562613E+02  0.47000000000E+01 0. -1.
        -11    1    6    6    0    0 -0.10401296528E+02 -0.65803754657E+02  0.14688284983E+01  0.66636915847E+02  0.00000000000E+00 0.  1.
         12    1    6    6    0    0 -0.32278813031E+02 -0.13063056533E+03 -0.11810945774E+03  0.17904220278E+03  0.00000000000E+00 0. -1.
         -5    1    3    3    0  503  0.25260590091E+01  0.18284832734E+03  0.86465754280E+02  0.20233217354E+03  0.47000000000E+01 0.  1.
         13    1    4    4    0    0  0.34201491798E+02  0.12980189796E+02  0.56521427421E+02  0.67326808376E+02  0.00000000000E+00 0. -1.
        -14    1    4    4    0    0 -0.22317156375E+02  0.12197920483E+02 -0.15285890235E+02  0.29673273717E+02  0.00000000000E+00 0.  1.
</event>
<event>
12    1  0.1066489E+000  0.2314751E+03  0.7818608E-02  0.1125742E+00
         21   -1    0    0  503  502  0.00000000000E+00  0.00000000000E+00  0.23055866189E+04  0.23055866189E+04  0.00000000000E+00 0. -1.
         21   -1    0    0  501  503 -0.00000000000E+00 -0.00000000000E+00 -0.29603215618E+02  0.29603215618E+02  0.00000000000E+00 0. -1.
          6    2    1    2  501    0  0.12979466887E+03 -0.82156661971E+02  0.16841609241E+04  0.16999937507E+04  0.17315992871E+03 0.  0.
         24    2    3    3    0    0  0.73990355329E+02  0.23813082733E+02  0.78369253085E+03  0.79158353198E+03  0.79930404695E+02 0.  0.
         -6    2    1    2    0  502 -0.12979466887E+03  0.82156661971E+02  0.59182247916E+03  0.63519608382E+03  0.17211578918E+03 0.  0.
        -24    2    5    5    0    0 -0.20655317436E+02 -0.14245376975E+02  0.20742163728E+03  0.22411111890E+03  0.81070864672E+02 0.  0.
          5    1    3    3  501    0  0.55804313538E+02 -0.10596974470E+03  0.90046839324E+03  0.90841021869E+03  0.47000000000E+01 0. -1.
        -13    1    4    4    0    0  0.27104542918E+02 -0.25354386437E+02  0.41715336415E+03  0.41880118240E+03  0.00000000000E+00 0.  1.
         14    1    4    4    0    0  0.46885812410E+02  0.49167469170E+02  0.36653916671E+03  0.37278234958E+03  0.00000000000E+00 0. -1.
         -5    1    5    5    0  502 -0.10913935143E+03  0.96402038946E+02  0.38440084188E+03  0.41108496492E+03  0.47000000000E+01 0.  1.
         11    1    6    6    0    0 -0.11219060313E+02 -0.31187420797E+02  0.27275179974E+02  0.42923862512E+02  0.00000000000E+00 0. -1.
        -12    1    6    6    0    0 -0.94362571230E+01  0.16942043822E+02  0.18014645731E+03  0.18118725639E+03  0.00000000000E+00 0.  1.
</event>
<event>
12    1  0.1393689E+000  0.5680294E+03  0.7818608E-02  0.9974221E-01
         21   -1    0    0  503  502  0.00000000000E+00  0.00000000000E+00  0.67034839508E+03  0.67034839508E+03  0.00000000000E+00 0. -1.
         21   -1    0    0  501  503 -0.00000000000E+00 -0.00000000000E+00 -0.75254329592E+03  0.75254329592E+03  0.00000000000E+00 0. -1.
          6    2    1    2  501    0 -0.15098962969E+03 -0.51976285858E+03  0.38622014249E+03  0.68663759770E+03  0.17132978338E+03 0.  0.
         24    2    3    3    0    0 -0.11933763504E+03 -0.42955474845E+03  0.37600442728E+03  0.59037855794E+03  0.91699287242E+02 0.  0.
         -6    2    1    2    0  502  0.15098962969E+03  0.51976285858E+03 -0.46841504332E+03  0.73625409330E+03  0.17235469141E+03 0.  0.
        -24    2    5    5    0    0  0.82470919934E+02  0.24838044501E+03 -0.18113872605E+03  0.33513939593E+03  0.10494226283E+03 0.  0.
          5    1    3    3  501    0 -0.31651994649E+02 -0.90208110131E+02  0.10215715208E+02  0.96259039762E+02  0.47000000000E+01 0. -1.
        -11    1    4    4    0    0 -0.98523705855E+02 -0.32807178813E+03  0.23499085652E+03  0.41540187942E+03  0.00000000000E+00 0.  1.
         12    1    4    4    0    0 -0.20813929189E+02 -0.10148296033E+03  0.14101357076E+03  0.17497667852E+03  0.00000000000E+00 0. -1.
         -5    1    5    5    0  502  0.68518709760E+02  0.27138241357E+03 -0.28727631727E+03  0.40111469737E+03  0.47000000000E+01 0.  1.
         11    1    6    6    0    0 -0.25258497527E+02  0.38400409853E+02 -0.30243353292E+02  0.55020392515E+02  0.00000000000E+00 0. -1.
        -12    1    6    6    0    0  0.10772941746E+03  0.20998003516E+03 -0.15089537276E+03  0.28011900341E+03  0.00000000000E+00 0.  1.
</event>
<event>
12    1  0.1066489E+000  0.2349099E+03  0.7818608E-02  0.1123314E+00
         21   -1    0    0  501  502  0.00000000000E+00  0.00000000000E+00  0.26526593956E+03  0.26526593956E+03  0.00000000000E+00 0. -1.
         21   -1    0    0  502  503 -0.00000000000E+00 -0.00000000000E+00 -0.29007917517E+03  0.29007917517E+03  0.00000000000E+00 0. -1.
         -6    2    1    2    0  503 -0.10358755632E+03 -0.12026385443E+03 -0.16048209310E+03  0.28449459478E+03  0.17317302256E+03 0.  0.
        -24    2    3    3    0    0 -0.12999019450E+02  0.43275492856E+01 -0.68491989002E+02  0.10501320258E+03  0.78415036628E+02 0.  0.
          6    2    1    2  501    0  0.10358755632E+03  0.12026385443E+03  0.13566885749E+03  0.27085051996E+03  0.17251141633E+03 0.  0.
         24    2    5    5    0    0  0.40150749827E+02  0.16697972663E+02  0.17598156808E+02  0.10140170573E+03  0.89898308100E+02 0.  0.
          5    1    5    5  501    0  0.63436806490E+02  0.10356588177E+03  0.11807070068E+03  0.16944881423E+03  0.47000000000E+01 0. -1.
        -11    1    6    6    0    0 -0.17626448580E+02  0.35046456464E+02  0.61203001514E+01  0.39703952878E+02  0.00000000000E+00 0.  1.
         12    1    6    6    0    0  0.57777198406E+02 -0.18348483801E+02  0.11477856657E+02  0.61697752852E+02  0.00000000000E+00 0. -1.
         -5    1    3    3    0  503 -0.90588536867E+02 -0.12459140372E+03 -0.91990104098E+02  0.17948139219E+03  0.47000000000E+01 0.  1.
         11    1    4    4    0    0 -0.23095777129E+02 -0.30807254484E+02 -0.52514398320E+02  0.65117308612E+02  0.00000000000E+00 0. -1.
        -12    1    4    4    0    0  0.10096757679E+02  0.35134803769E+02 -0.15977590682E+02  0.39895893968E+02  0.00000000000E+00 0.  1.
</event>
<event>
12    1  0.1066489E+000  0.1736593E+03  0.7818608E-02  0.1174554E+00
         21   -1    0    0  503  502  0.00000000000E+00  0.00000000000E+00  0.40411519098E+03  0.40411519098E+03  0.00000000000E+00 0. -1.
         21   -1    0    0  501  503 -0.00000000000E+00 -0.00000000000E+00 -0.74227306291E+02  0.74227306291E+02  0.00000000000E+00 0. -1.
          6    2    1    2  501    0  0.16519794665E+02  0.12039870778E+02  0.14848473830E+03  0.22848475777E+03  0.17245203659E+03 0.  0.
         24    2    3    3    0    0  0.46518999370E+02  0.63282383251E+02  0.77060516741E+02  0.13548337718E+03  0.79049003273E+02 0.  0.
         -6    2    1    2    0  502 -0.16519794665E+02 -0.12039870778E+02  0.18140314638E+03  0.24985773950E+03  0.17059872908E+03 0.  0.
        -24    2    5    5    0    0 -0.30590302717E+02  0.44012274279E+02  0.16129312884E+03  0.18848734787E+03  0.81481040670E+02 0.  0.
          5    1    3    3  501    0 -0.29999204705E+02 -0.51242512473E+02  0.71424221561E+02  0.93001380598E+02  0.47000000000E+01 0. -1.
        -11    1    4    4    0    0  0.45017654489E+02  0.91974539971E+00  0.50570300222E+02  0.67711080421E+02  0.00000000000E+00 0.  1.
         12    1    4    4    0    0  0.15013448808E+01  0.62362637852E+02  0.26490216519E+02  0.67772296755E+02  0.00000000000E+00 0. -1.
         -5    1    5    5    0  502  0.14070508051E+02 -0.56052145058E+02  0.20110017542E+02  0.61370391623E+02  0.47000000000E+01 0.  1.
         11    1    6    6    0    0  0.89542710105E+01 -0.10179962013E+02  0.88353286846E+02  0.89387436994E+02  0.00000000000E+00 0. -1.
        -12    1    6    6    0    0 -0.39544573727E+02  0.54192236292E+02  0.72939841997E+02  0.99099910879E+02  0.00000000000E+00 0.  1.
</event>
<event>
12    1  0.1066489E+000  0.1733441E+03  0.7818608E-02  0.1174503E+00
         21   -1    0    0  501  502  0.00000000000E+00  0.00000000000E+00  0.19836424316E+03  0.19836424316E+03  0.00000000000E+00 0.  1.
         21   -1    0    0  502  503 -0.00000000000E+00 -0.00000000000E+00 -0.19932251224E+03  0.19932251224E+03  0.00000000000E+00 0.  1.
         -6    2    1    2    0  503  0.13228232371E-01 -0.15091687009E+02 -0.98240560797E+02  0.19924706087E+03  0.17268591224E+03 0.  0.
        -24    2    3    3    0    0  0.49408287888E+01 -0.56623299270E+02 -0.69352552066E+01  0.98708984036E+02  0.80403706104E+02 0.  0.
          6    2    1    2  501    0 -0.13228232371E-01  0.15091687009E+02  0.97282291720E+02  0.19843969453E+03  0.17229831367E+03 0.  0.
         24    2    5    5    0    0 -0.49836123127E+02 -0.41101064488E+01  0.11080202988E+03  0.14315947160E+03  0.75610927380E+02 0.  0.
          5    1    5    5  501    0  0.49822894894E+02  0.19201793458E+02 -0.13519738163E+02  0.55280222934E+02  0.47000000000E+01 0. -1.
        -11    1    6    6    0    0  0.11785277439E+02  0.20930145242E+02  0.32659329254E+02  0.40541281819E+02  0.00000000000E+00 0.  1.
         12    1    6    6    0    0 -0.61621400565E+02 -0.25040251691E+02  0.78142700629E+02  0.10261818978E+03  0.00000000000E+00 0. -1.
         -5    1    3    3    0  503 -0.49276005564E+01  0.41531612261E+02 -0.91305305590E+02  0.10053807683E+03  0.47000000000E+01 0.  1.
         13    1    4    4    0    0 -0.28033620019E+02 -0.57736152613E+01  0.17292684368E+02  0.33440326213E+02  0.00000000000E+00 0. -1.
        -14    1    4    4    0    0  0.32974448808E+02 -0.50849684009E+02 -0.24227939575E+02  0.65268657823E+02  0.00000000000E+00 0.  1.
</event>
<event>
12    1  0.1066489E+000  0.2540600E+03  0.7818608E-02  0.1110788E+00
         21   -1    0    0  501  502  0.00000000000E+00  0.00000000000E+00  0.74374851322E+03  0.74374851322E+03  0.00000000000E+00 0. -1.
         21   -1    0    0  502  503 -0.00000000000E+00 -0.00000000000E+00 -0.11890310050E+03  0.11890310050E+03  0.00000000000E+00 0. -1.
         -6    2    1    2    0  503 -0.10946868722E+03  0.15108339873E+03  0.53670167522E+03  0.59373566801E+03  0.17223172888E+03 0.  0.
        -24    2    3    3    0    0 -0.12527961670E+03  0.17131574804E+03  0.45414420253E+03  0.50714952739E+03  0.76874043457E+02 0.  0.
          6    2    1    2  501    0  0.10946868722E+03 -0.15108339873E+03  0.88143737495E+02  0.26891594570E+03  0.17244384750E+03 0.  0.
         24    2    5    5    0    0  0.19518001656E+00 -0.10540565497E+03  0.71611375201E+02  0.14923902790E+03  0.77676947652E+02 0.  0.
          5    1    5    5  501    0  0.10927350720E+03 -0.45677743760E+02  0.16532362295E+02  0.11967691780E+03  0.47000000000E+01 0. -1.
        -11    1    6    6    0    0  0.35049196276E+02 -0.52233913062E+02  0.54926852844E+02  0.83509203066E+02  0.00000000000E+00 0.  1.
         12    1    6    6    0    0 -0.34854016260E+02 -0.53171741906E+02  0.16684522357E+02  0.65729824837E+02  0.00000000000E+00 0. -1.
         -5    1    3    3    0  503  0.15810929485E+02 -0.20232349313E+02  0.82557472692E+02  0.86586140618E+02  0.47000000000E+01 0.  1.
         11    1    4    4    0    0 -0.42769962421E+02  0.49699458188E+02  0.70296854488E+02  0.96129878709E+02  0.00000000000E+00 0. -1.
        -12    1    4    4    0    0 -0.82509654281E+02  0.12161628985E+03  0.38384734804E+03  0.41101964869E+03  0.00000000000E+00 0.  1.
</event>
<event>
12    1  0.1066489E+000  0.2500951E+03  0.7818608E-02  0.1113459E+00
         21   -1    0    0  501  502  0.00000000000E+00  0.00000000000E+00  0.10390471578E+04  0.10390471578E+04  0.00000000000E+00 0. -1.
         21   -1    0    0  502  503 -0.00000000000E+00 -0.00000000000E+00 -0.66557910662E+02  0.66557910662E+02  0.00000000000E+00 0. -1.
         -6    2    1    2    0  503 -0.12435709321E+03  0.13026440047E+03  0.31221680062E+03  0.40003359375E+03  0.17353398766E+03 0.  0.
        -24    2    3    3    0    0 -0.69205756775E+02  0.11675078527E+03  0.30367471311E+03  0.34241983701E+03  0.81319313579E+02 0.  0.
          6    2    1    2  501    0  0.12435709321E+03 -0.13026440047E+03  0.66027244651E+03  0.70557147471E+03  0.17157476982E+03 0.  0.
         24    2    5    5    0    0  0.72174443310E+02 -0.44213945087E+02  0.52351770593E+03  0.53571371394E+03  0.75857574904E+02 0.  0.
          5    1    5    5  501    0  0.52182649898E+02 -0.86050455388E+02  0.13675474058E+03  0.16985776077E+03  0.47000000000E+01 0. -1.
        -13    1    6    6    0    0 -0.36727835618E-01  0.15117844618E+02  0.32024845837E+02  0.35413857820E+02  0.00000000000E+00 0.  1.
         14    1    6    6    0    0  0.72211171146E+02 -0.59331789705E+02  0.49149286009E+03  0.50029985612E+03  0.00000000000E+00 0. -1.
         -5    1    3    3    0  503 -0.55151336434E+02  0.13513615208E+02  0.85420875042E+01  0.57613756737E+02  0.47000000000E+01 0.  1.
         11    1    4    4    0    0  0.49022679175E+01 -0.10130154820E+02  0.20042389983E+02  0.22985857905E+02  0.00000000000E+00 0. -1.
        -12    1    4    4    0    0 -0.74108024692E+02  0.12688094009E+03  0.28363232313E+03  0.31943397910E+03  0.00000000000E+00 0.  1.
</event>
<event>
12    1  0.1066489E+000  0.3232848E+03  0.7818608E-02  0.1074334E+00
         21   -1    0    0  501  502  0.00000000000E+00  0.00000000000E+00  0.56349801220E+03  0.56349801220E+03  0.00000000000E+00 0. -1.
         21   -1    0    0  502  503 -0.00000000000E+00 -0.00000000000E+00 -0.19061682777E+03  0.19061682777E+03  0.00000000000E+00 0. -1.
         -6    2    1    2    0  503  0.97123271138E+01 -0.26766700283E+03  0.25426596825E+03  0.41129580446E+03  0.18103342911E+03 0.  0.
        -24    2    3    3    0    0  0.43469747080E+02 -0.19156195712E+03  0.97477552673E+02  0.23371134950E+03  0.80830187939E+02 0.  0.
          6    2    1    2  501    0 -0.97123271138E+01  0.26766700283E+03  0.11861521619E+03  0.34281903551E+03  0.17808809027E+03 0.  0.
         24    2    5    5    0    0  0.11414719094E+02  0.47496007008E+02  0.38873421291E+01  0.93607890963E+02  0.79756876369E+02 0.  0.
          5    1    5    5  501    0 -0.21127046207E+02  0.22017099582E+03  0.11472787406E+03  0.24921114455E+03  0.47000000000E+01 0. -1.
        -11    1    6    6    0    0  0.92746376497E+01 -0.20785851852E+02 -0.82742047558E+01  0.24218443490E+02  0.00000000000E+00 0.  1.
         12    1    6    6    0    0  0.21400814439E+01  0.68281858860E+02  0.12161546885E+02  0.69389447473E+02  0.00000000000E+00 0. -1.
         -5    1    3    3    0  503 -0.33757419966E+02 -0.76105045706E+02  0.15678841557E+03  0.17758445496E+03  0.47000000000E+01 0.  1.
         11    1    4    4    0    0  0.47028277709E+02 -0.17821926469E+03  0.11035457143E+03  0.21482992493E+03  0.00000000000E+00 0. -1.
        -12    1    4    4    0    0 -0.35585306293E+01 -0.13342692433E+02 -0.12877018758E+02  0.18881424568E+02  0.00000000000E+00 0.  1.
</event>
<event>
12    1  0.1066489E+000  0.2037411E+03  0.7818608E-02  0.1149549E+00
         21   -1    0    0  501  502  0.00000000000E+00  0.00000000000E+00  0.24966916348E+03  0.24966916348E+03  0.00000000000E+00 0. -1.
         21   -1    0    0  502  503 -0.00000000000E+00 -0.00000000000E+00 -0.16305428087E+03  0.16305428087E+03  0.00000000000E+00 0. -1.
         -6    2    1    2    0  503 -0.62756324613E+02 -0.47712976308E+02 -0.31994474504E+01  0.19006440861E+03  0.17291430990E+03 0.  0.
        -24    2    3    3    0    0 -0.81778706779E+02 -0.11132717271E+02  0.47463803320E+02  0.12457531522E+03  0.80339916979E+02 0.  0.
          6    2    1    2  501    0  0.62756324613E+02  0.47712976308E+02  0.89814330056E+02  0.22265903574E+03  0.18787109390E+03 0.  0.
         24    2    5    5    0    0  0.10619420506E+03  0.57064787851E+00  0.32493266457E+02  0.13653678008E+03  0.79428868317E+02 0.  0.
          5    1    5    5  501    0 -0.43437880446E+02  0.47142328429E+02  0.57321063599E+02  0.86122255657E+02  0.47000000000E+01 0. -1.
        -13    1    6    6    0    0  0.82059725339E+02  0.31833686306E+02  0.45108030941E+01  0.88133588666E+02  0.00000000000E+00 0.  1.
         14    1    6    6    0    0  0.24134479721E+02 -0.31263038428E+02  0.27982463363E+02  0.48403191413E+02  0.00000000000E+00 0. -1.
         -5    1    3    3    0  503  0.19022382165E+02 -0.36580259036E+02 -0.50663250770E+02  0.65489093390E+02  0.47000000000E+01 0.  1.
         11    1    4    4    0    0 -0.49041841489E+01  0.28207398574E+02  0.87424569580E+01  0.29935579335E+02  0.00000000000E+00 0. -1.
        -12    1    4    4    0    0 -0.76874522630E+02 -0.39340115845E+02  0.38721346362E+02  0.94639735885E+02  0.00000000000E+00 0.  1.
</event>
<event>
12    1  0.1066489E+000  0.2081052E+03  0.7818608E-02  0.1143927E+00
         21   -1    0    0  503  502  0.00000000000E+00  0.00000000000E+00  0.56566426031E+02  0.56566426031E+02  0.00000000000E+00 0. -1.
         21   -1    0    0  501  503 -0.00000000000E+00 -0.00000000000E+00 -0.82140144578E+03  0.82140144578E+03  0.00000000000E+00 0. -1.
          6    2    1    2  501    0 -0.10878911769E+03  0.49397746318E+02 -0.25675719172E+03  0.33050272363E+03  0.17038951070E+03 0.  0.
         24    2    3    3    0    0 -0.11301272161E+03  0.27879247650E+02 -0.26838263318E+03  0.30524157749E+03  0.87143876093E+02 0.  0.
         -6    2    1    2    0  502  0.10878911769E+03 -0.49397746318E+02 -0.50807782803E+03  0.54746514818E+03  0.16522651019E+03 0.  0.
        -24    2    5    5    0    0  0.88343009757E+02  0.28455416380E+02 -0.27734816261E+03  0.30305273693E+03  0.79402518606E+02 0.  0.
          5    1    3    3  501    0  0.42236039212E+01  0.21518498668E+02  0.11625441462E+02  0.25261146138E+02  0.47000000000E+01 0. -1.
        -13    1    4    4    0    0 -0.93697661444E+02  0.40769116054E+02 -0.13216957636E+03  0.16706336971E+03  0.00000000000E+00 0.  1.
         14    1    4    4    0    0 -0.19315060165E+02 -0.12889868404E+02 -0.13621305682E+03  0.13817820778E+03  0.00000000000E+00 0. -1.
         -5    1    5    5    0  502  0.20446107931E+02 -0.77853162699E+02 -0.23072966541E+03  0.24441241125E+03  0.47000000000E+01 0.  1.
         13    1    6    6    0    0 -0.81424074189E+01 -0.93037319623E+01 -0.87024436353E+01  0.15119217977E+02  0.00000000000E+00 0. -1.
        -14    1    6    6    0    0  0.96485417175E+02  0.37759148342E+02 -0.26864571898E+03  0.28793351895E+03  0.00000000000E+00 0.  1.
</event>
<event>
12    1  0.1066489E+000  0.2443790E+03  0.7818608E-02  0.1117113E+00
         21   -1    0    0  503  502  0.00000000000E+00  0.00000000000E+00  0.41013229558E+02  0.41013229558E+02  0.00000000000E+00 0. -1.
         21   -1    0    0  501  503 -0.00000000000E+00 -0.00000000000E+00 -0.14522426769E+04  0.14522426769E+04  0.00000000000E+00 0. -1.
          6    2    1    2  501    0  0.14632747386E+03  0.90373654234E+02 -0.66713669217E+03  0.71006043904E+03  0.17185847101E+03 0.  0.
         24    2    3    3    0    0  0.16981257045E+03  0.81167568607E+02 -0.64344623389E+03  0.67513724348E+03  0.79766900081E+02 0.  0.
         -6    2    1    2    0  502 -0.14632747386E+03 -0.90373654234E+02 -0.74409275519E+03  0.78319546744E+03  0.17361447207E+03 0.  0.
        -24    2    5    5    0    0 -0.14830590389E+03 -0.22215699042E+02 -0.59642257471E+03  0.62047486873E+03  0.82346807413E+02 0.  0.
          5    1    3    3  501    0 -0.23485096591E+02  0.92060856275E+01 -0.23690458283E+02  0.34923195560E+02  0.47000000000E+01 0. -1.
        -11    1    4    4    0    0  0.53409765881E+02  0.55720921751E+02 -0.16629936516E+03  0.18333822041E+03  0.00000000000E+00 0.  1.
         12    1    4    4    0    0  0.11640280457E+03  0.25446646856E+02 -0.47714686873E+03  0.49179902307E+03  0.00000000000E+00 0. -1.
         -5    1    5    5    0  502  0.19784300384E+01 -0.68157955193E+02 -0.14767018048E+03  0.16272059871E+03  0.47000000000E+01 0.  1.
         13    1    6    6    0    0 -0.89992418418E+02  0.14032287007E+02 -0.22458106857E+03  0.24234726491E+03  0.00000000000E+00 0. -1.
        -14    1    6    6    0    0 -0.58313485476E+02 -0.36247986048E+02 -0.37184150614E+03  0.37812760382E+03  0.00000000000E+00 0.  1.
</event>
<event>
12    1  0.1066489E+000  0.1886715E+03  0.7818608E-02  0.1160037E+00
         21   -1    0    0  503  502  0.00000000000E+00  0.00000000000E+00  0.65796428058E+03  0.65796428058E+03  0.00000000000E+00 0.  1.
         21   -1    0    0  501  503 -0.00000000000E+00 -0.00000000000E+00 -0.55974287867E+02  0.55974287867E+02  0.00000000000E+00 0.  1.
          6    2    1    2  501    0  0.67611995468E+02  0.30075039731E+02  0.37271091395E+03  0.41701125642E+03  0.17178204986E+03 0.  0.
         24    2    3    3    0    0  0.43404048463E+01 -0.29489447997E+02  0.25550912997E+03  0.27103327675E+03  0.85356048126E+02 0.  0.
         -6    2    1    2    0  502 -0.67611995468E+02 -0.30075039731E+02  0.22927907876E+03  0.29692731203E+03  0.17355414926E+03 0.  0.
        -24    2    5    5    0    0 -0.54944745959E+01 -0.66064516991E+02  0.18645664325E+03  0.21320348116E+03  0.79340625850E+02 0.  0.
          5    1    3    3  501    0  0.63271590621E+02  0.59564487728E+02  0.11720178398E+03  0.14597797966E+03  0.47000000000E+01 0. -1.
        -11    1    4    4    0    0  0.37547870005E+02 -0.24491691409E+02  0.74598733927E+02  0.87032503087E+02  0.00000000000E+00 0.  1.
         12    1    4    4    0    0 -0.33207465159E+02 -0.49977565885E+01  0.18091039604E+03  0.18400077367E+03  0.00000000000E+00 0. -1.
         -5    1    5    5    0  502 -0.62117520872E+02  0.35989477260E+02  0.42822435513E+02  0.83723830872E+02  0.47000000000E+01 0.  1.
         13    1    6    6    0    0  0.10673251536E+02  0.16283577846E+02  0.35422207532E+02  0.40420366058E+02  0.00000000000E+00 0. -1.
        -14    1    6    6    0    0 -0.16167726132E+02 -0.82348094837E+02  0.15103443572E+03  0.17278311510E+03  0.00000000000E+00 0.  1.
</event>
<event>
12    1  0.1066489E+000  0.1911959E+03  0.7818608E-02  0.1157782E+00
         21   -1    0    0  503  502  0.00000000000E+00  0.00000000000E+00  0.41732287384E+03  0.41732287384E+03  0.00000000000E+00 0. -1.
         21   -1    0    0  501  503 -0.00000000000E+00 -0.00000000000E+00 -0.89260543558E+02  0.89260543558E+02  0.00000000000E+00 0. -1.
          6    2    1    2  501    0  0.81033878043E+02  0.10075577611E+02  0.12266148387E+03  0.22716012752E+03  0.17288110728E+03 0.  0.
         24    2    3    3    0    0 -0.24949372917E+02 -0.90340228970E+00  0.64358669128E+02  0.10561056689E+03  0.79926630115E+02 0.  0.
         -6    2    1    2    0  502 -0.81033878043E+02 -0.10075577611E+02  0.20540084641E+03  0.27942328987E+03  0.17093817761E+03 0.  0.
        -24    2    5    5    0    0 -0.83368369526E+02 -0.50582423844E+02  0.20206304071E+03  0.23844176490E+03  0.80722587854E+02 0.  0.
          5    1    3    3  501    0  0.10598325096E+03  0.10978979901E+02  0.58302814740E+02  0.12154956063E+03  0.47000000000E+01 0. -1.
        -11    1    4    4    0    0 -0.24984264793E+02  0.34616792493E+02  0.15961464946E+02  0.45577452462E+02  0.00000000000E+00 0.  1.
         12    1    4    4    0    0  0.34891875353E-01 -0.35520194782E+02  0.48397204183E+02  0.60033114425E+02  0.00000000000E+00 0. -1.
         -5    1    5    5    0  502  0.23344914829E+01  0.40506846233E+02  0.33378057027E+01  0.40981524973E+02  0.47000000000E+01 0.  1.
         13    1    6    6    0    0 -0.26416826808E+02 -0.75693300064E+01  0.38212049126E+01  0.27744280534E+02  0.00000000000E+00 0. -1.
        -14    1    6    6    0    0 -0.56951542718E+02 -0.43013093838E+02  0.19824183579E+03  0.21069748437E+03  0.00000000000E+00 0.  1.
</event>
<event>
12    1  0.1066489E+000  0.3735026E+03  0.7818608E-02  0.1053748E+00
         21   -1    0    0  501  502  0.00000000000E+00  0.00000000000E+00  0.14705398452E+04  0.14705398452E+04  0.00000000000E+00 0.  1.
         21   -1    0    0  502  503 -0.00000000000E+00 -0.00000000000E+00 -0.97783660510E+02  0.97783660510E+02  0.00000000000E+00 0.  1.
         -6    2    1    2    0  503  0.32959025198E+03 -0.36831287886E+02  0.52521397693E+03  0.64213131440E+03  0.16277784067E+03 0.  0.
        -24    2    3    3    0    0  0.83706602299E+02 -0.31661199281E+02  0.13290826721E+03  0.17908557274E+03  0.79986299220E+02 0.  0.
          6    2    1    2  501    0 -0.32959025198E+03  0.36831287886E+02  0.84754220772E+03  0.92619219126E+03  0.17180775105E+03 0.  0.
         24    2    5    5    0    0 -0.10767155346E+03  0.46670480269E+02  0.43652125361E+03  0.45896094961E+03  0.79517616035E+02 0.  0.
          5    1    5    5  501    0 -0.22191869852E+03 -0.98391923835E+01  0.41102095410E+03  0.46723124165E+03  0.47000000000E+01 0. -1.
        -13    1    6    6    0    0 -0.10033196247E+03  0.77120379051E+01  0.34106140544E+03  0.35559648550E+03  0.00000000000E+00 0.  1.
         14    1    6    6    0    0 -0.73395909928E+01  0.38958442364E+02  0.95459848176E+02  0.10336446411E+03  0.00000000000E+00 0. -1.
         -5    1    3    3    0  503  0.24588364968E+03 -0.51700886045E+01  0.39230570971E+03  0.46304574166E+03  0.47000000000E+01 0.  1.
         13    1    4    4    0    0  0.80747601724E+02 -0.35680266656E+01  0.12650339164E+03  0.15011999899E+03  0.00000000000E+00 0. -1.
        -14    1    4    4    0    0  0.29590005743E+01 -0.28093172616E+02  0.64048755705E+01  0.28965573757E+02  0.00000000000E+00 0.  1.
</event>
<event>
12    1  0.1066489E+000  0.3203316E+03  0.7818608E-02  0.1076926E+00
         21   -1    0    0  503  502  0.00000000000E+00  0.00000000000E+00  0.51997436521E+03  0.51997436521E+03  0.00000000000E+00 0.  1.
         21   -1    0    0  501  503 -0.00000000000E+00 -0.00000000000E+00 -0.20421432473E+03  0.20421432473E+03  0.00000000000E+00 0.  1.
          6    2    1    2  501    0  0.25286549751E+03 -0.41350762065E+02  0.25086316318E+03  0.39734933196E+03  0.17118212411E+03 0.  0.
         24    2    3    3    0    0  0.47751381501E+02  0.23529700241E+02  0.82032713929E+02  0.12384049194E+03  0.75981971947E+02 0.  0.
         -6    2    1    2    0  502 -0.25286549751E+03  0.41350762065E+02  0.64896877299E+02  0.32683935798E+03  0.19225377990E+03 0.  0.
        -24    2    5    5    0    0 -0.23005836068E+03  0.42903565029E+02  0.11424520870E+03  0.27225067326E+03  0.79378184439E+02 0.  0.
          5    1    3    3  501    0  0.20511411601E+03 -0.64880462306E+02  0.16883044926E+03  0.27350884002E+03  0.47000000000E+01 0. -1.
        -11    1    4    4    0    0  0.63796353117E+02  0.27849960096E+02  0.81546803840E+02  0.10721695838E+03  0.00000000000E+00 0.  1.
         12    1    4    4    0    0 -0.16044971615E+02 -0.43202598552E+01  0.48591008933E+00  0.16623533559E+02  0.00000000000E+00 0. -1.
         -5    1    5    5    0  502 -0.22807136828E+02 -0.15528029638E+01 -0.49348331402E+02  0.54588684721E+02  0.47000000000E+01 0.  1.
         11    1    6    6    0    0 -0.12157094796E+03  0.54883589004E+02  0.36638783886E+02  0.13832607930E+03  0.00000000000E+00 0. -1.
        -12    1    6    6    0    0 -0.10848741273E+03 -0.11980023975E+02  0.77606424815E+02  0.13392459396E+03  0.00000000000E+00 0.  1.
</event>
<event>
12    1  0.1066489E+000  0.3033250E+03  0.7818608E-02  0.1083734E+00
         21   -1    0    0  503  502  0.00000000000E+00  0.00000000000E+00  0.22146192876E+03  0.22146192876E+03  0.00000000000E+00 0. -1.
         21   -1    0    0  501  503 -0.00000000000E+00 -0.00000000000E+00 -0.69600962124E+03  0.69600962124E+03  0.00000000000E+00 0. -1.
          6    2    1    2  501    0  0.24638308406E+03  0.36735117721E+02  0.55072825730E+02  0.30714055660E+03  0.17102108755E+03 0.  0.
         24    2    3    3    0    0  0.10119436752E+03 -0.34733285894E+02  0.59385585597E+02  0.14518937252E+03  0.78144769177E+02 0.  0.
         -6    2    1    2    0  502 -0.24638308406E+03 -0.36735117721E+02 -0.52962051821E+03  0.61033099341E+03  0.17306627405E+03 0.  0.
        -24    2    5    5    0    0 -0.13145290725E+03  0.35578872236E+02 -0.36044106824E+03  0.39334704243E+03  0.79110107728E+02 0.  0.
          5    1    3    3  501    0  0.14518871654E+03  0.71468403614E+02 -0.43127598668E+01  0.16195118408E+03  0.47000000000E+01 0. -1.
        -11    1    4    4    0    0  0.35479748118E+02  0.99007584730E+01  0.54263864796E+02  0.65585094095E+02  0.00000000000E+00 0.  1.
         12    1    4    4    0    0  0.65714619403E+02 -0.44634044367E+02  0.51217208003E+01  0.79604278426E+02  0.00000000000E+00 0. -1.
         -5    1    5    5    0  502 -0.11493017682E+03 -0.72313989957E+02 -0.16917944998E+03  0.21698395098E+03  0.47000000000E+01 0.  1.
         11    1    6    6    0    0 -0.35443521052E+02  0.47792697081E+02 -0.16151699023E+03  0.17212821737E+03  0.00000000000E+00 0. -1.
        -12    1    6    6    0    0 -0.96009386194E+02 -0.12213824844E+02 -0.19892407800E+03  0.22121882507E+03  0.00000000000E+00 0.  1.
</event>
<event>
12    1  0.1066489E+000  0.1836787E+03  0.7818608E-02  0.1164718E+00
         21   -1    0    0  501  502  0.00000000000E+00  0.00000000000E+00  0.65047405716E+02  0.65047405716E+02  0.00000000000E+00 0.  1.
         21   -1    0    0  502  503 -0.00000000000E+00 -0.00000000000E+00 -0.79484262276E+03  0.79484262276E+03  0.00000000000E+00 0.  1.
         -6    2    1    2    0  503 -0.60646723051E+02  0.27761306329E+01 -0.62182382253E+03  0.64838471712E+03  0.17335553990E+03 0.  0.
        -24    2    3    3    0    0  0.12109767392E+02 -0.48660933956E+02 -0.35007135645E+03  0.36235889428E+03  0.78990383552E+02 0.  0.
          6    2    1    2  501    0  0.60646723051E+02 -0.27761306329E+01 -0.10797139452E+03  0.21150531136E+03  0.17143786857E+03 0.  0.
         24    2    5    5    0    0  0.75502427946E+02  0.20375007411E+02 -0.13236754447E+02  0.11274596147E+03  0.80129162027E+02 0.  0.
          5    1    5    5  501    0 -0.14855704895E+02 -0.23151138044E+02 -0.94734640074E+02  0.98759349889E+02  0.47000000000E+01 0. -1.
        -11    1    6    6    0    0 -0.15648317798E+02  0.12187300391E+02 -0.69340254156E+01  0.21011445671E+02  0.00000000000E+00 0.  1.
         12    1    6    6    0    0  0.91150745743E+02  0.81877070198E+01 -0.63027290319E+01  0.91734515800E+02  0.00000000000E+00 0. -1.
         -5    1    3    3    0  503 -0.72756490443E+02  0.51437064589E+02 -0.27175246607E+03  0.28602582284E+03  0.47000000000E+01 0.  1.
         13    1    4    4    0    0 -0.11944867440E+02 -0.25200240127E+02 -0.31707359545E+02  0.42226633893E+02  0.00000000000E+00 0. -1.
        -14    1    4    4    0    0  0.24054634832E+02 -0.23460693829E+02 -0.31836399691E+03  0.32013226038E+03  0.00000000000E+00 0.  1.
</event>
<event>
12    1  0.1066489E+000  0.2721591E+03  0.7818608E-02  0.1100554E+00
         21   -1    0    0  501  502  0.00000000000E+00  0.00000000000E+00  0.10858959420E+04  0.10858959420E+04  0.00000000000E+00 0.  1.
         21   -1    0    0  502  503 -0.00000000000E+00 -0.00000000000E+00 -0.67551054557E+02  0.67551054557E+02  0.00000000000E+00 0.  1.
         -6    2    1    2    0  503  0.64245785432E+02 -0.19945660191E+03  0.54558129845E+03  0.60969624629E+03  0.17366664198E+03 0.  0.
        -24    2    3    3    0    0  0.34649751813E+02 -0.21262927699E+03  0.40190037696E+03  0.46233362629E+03  0.76266993272E+02 0.  0.
          6    2    1    2  501    0 -0.64245785432E+02  0.19945660191E+03  0.47276358902E+03  0.54375075029E+03  0.16807441908E+03 0.  0.
         24    2    5    5    0    0 -0.16636721616E+02  0.14464713841E+03  0.19308188738E+03  0.25476174621E+03  0.80145847939E+02 0.  0.
          5    1    5    5  501    0 -0.47609063816E+02  0.54809463494E+02  0.27968170164E+03  0.28898900408E+03  0.47000000000E+01 0. -1.
        -11    1    6    6    0    0 -0.18481514751E+02  0.31900746678E+02  0.10618222555E+03  0.11240057406E+03  0.00000000000E+00 0.  1.
         12    1    6    6    0    0  0.18447931347E+01  0.11274639173E+03  0.86899661834E+02  0.14236117216E+03  0.00000000000E+00 0. -1.
         -5    1    3    3    0  503  0.29596033619E+02  0.13172675085E+02  0.14368092148E+03  0.14736262000E+03  0.47000000000E+01 0.  1.
         11    1    4    4    0    0 -0.12087207457E+00 -0.12004805014E+03  0.28475424354E+03  0.30902512546E+03  0.00000000000E+00 0. -1.
        -12    1    4    4    0    0  0.34770623888E+02 -0.92581226852E+02  0.11714613342E+03  0.15330850083E+03  0.00000000000E+00 0.  1.
</event>
<event>
12    1  0.1066489E+000  0.2734376E+03  0.7818608E-02  0.1099344E+00
         21   -1    0    0  503  502  0.00000000000E+00  0.00000000000E+00  0.85972918054E+02  0.85972918054E+02  0.00000000000E+00 0. -1.
         21   -1    0    0  501  503 -0.00000000000E+00 -0.00000000000E+00 -0.86970796510E+03  0.86970796510E+03  0.00000000000E+00 0. -1.
          6    2    1    2  501    0 -0.15259606515E+03  0.14791824167E+03 -0.40227235227E+03  0.48640636685E+03  0.17205447682E+03 0.  0.
         24    2    3    3    0    0 -0.45724186853E+02  0.76572590426E+02 -0.56888345718E+02  0.11786328619E+03  0.51975065992E+02 0.  0.
         -6    2    1    2    0  502  0.15259606515E+03 -0.14791824167E+03 -0.38146269478E+03  0.46927451631E+03  0.17187035471E+03 0.  0.
        -24    2    5    5    0    0  0.47699295522E+02 -0.13933351795E+03 -0.24256553877E+03  0.29494282180E+03  0.80400096504E+02 0.  0.
          5    1    3    3  501    0 -0.10687187830E+03  0.71345651240E+02 -0.34538400655E+03  0.36854308066E+03  0.47000000000E+01 0. -1.
        -11    1    4    4    0    0 -0.55841351337E+02  0.70117366314E+02 -0.42722075933E+02  0.99296915108E+02  0.00000000000E+00 0.  1.
         12    1    4    4    0    0  0.10117164483E+02  0.64552241117E+01 -0.14166269785E+02  0.18566371081E+02  0.00000000000E+00 0. -1.
         -5    1    5    5    0  502  0.10489676963E+03 -0.85847237186E+01 -0.13889715601E+03  0.17433169450E+03  0.47000000000E+01 0.  1.
         11    1    6    6    0    0 -0.18491049301E+01 -0.74605890622E+01  0.56483085247E+01  0.95384992209E+01  0.00000000000E+00 0. -1.
        -12    1    6    6    0    0  0.49548400452E+02 -0.13187292888E+03 -0.24821384730E+03  0.28540432258E+03  0.00000000000E+00 0.  1.
</event>
<event>
12    1  0.1066489E+000  0.2107910E+03  0.7818608E-02  0.1141184E+00
         21   -1    0    0  501  502  0.00000000000E+00  0.00000000000E+00  0.20371602196E+03  0.20371602196E+03  0.00000000000E+00 0.  1.
         21   -1    0    0  502  503 -0.00000000000E+00 -0.00000000000E+00 -0.28810407125E+03  0.28810407125E+03  0.00000000000E+00 0.  1.
         -6    2    1    2    0  503 -0.11903259703E+03  0.14886066261E+02  0.80201272715E+02  0.22438322410E+03  0.17182908074E+03 0.  0.
        -24    2    3    3    0    0 -0.90299884968E+02  0.22741543834E+02 -0.13375640011E+02  0.12606737662E+03  0.83921562553E+02 0.  0.
          6    2    1    2  501    0  0.11903259703E+03 -0.14886066261E+02 -0.16458932201E+03  0.26743686910E+03  0.17332766632E+03 0.  0.
         24    2    5    5    0    0  0.69856904605E+01 -0.62632894435E+02 -0.49321801475E+02  0.99678232477E+02  0.59425841117E+02 0.  0.
          5    1    5    5  501    0  0.11204690657E+03  0.47746828174E+02 -0.11526752053E+03  0.16775863663E+03  0.47000000000E+01 0. -1.
        -13    1    6    6    0    0  0.32488663295E+02 -0.45447877405E+02 -0.32110568723E+02  0.64436879402E+02  0.00000000000E+00 0.  1.
         14    1    6    6    0    0 -0.25502972835E+02 -0.17185017030E+02 -0.17211232751E+02  0.35241353075E+02  0.00000000000E+00 0. -1.
         -5    1    3    3    0  503 -0.28732712065E+02 -0.78554775730E+01  0.93576912727E+02  0.98315847481E+02  0.47000000000E+01 0.  1.
         11    1    4    4    0    0 -0.49000704826E+02  0.48013782921E+02  0.14612367982E+02  0.70142096646E+02  0.00000000000E+00 0. -1.
        -12    1    4    4    0    0 -0.41299180142E+02 -0.25272239087E+02 -0.27988007994E+02  0.55925279975E+02  0.00000000000E+00 0.  1.
</event>
<event>
12    1  0.1066489E+000  0.1880896E+03  0.7818608E-02  0.1162114E+00
         21   -1    0    0  501  502  0.00000000000E+00  0.00000000000E+00  0.14727953035E+04  0.14727953035E+04  0.00000000000E+00 0. -1.
         21   -1    0    0  502  503 -0.00000000000E+00 -0.00000000000E+00 -0.54684530064E+02  0.54684530064E+02  0.00000000000E+00 0. -1.
         -6    2    1    2    0  503  0.14500399245E+02 -0.52555281015E+02  0.12838388071E+04  0.12963810599E+04  0.17143351668E+03 0.  0.
        -24    2    3    3    0    0 -0.50495651629E+02 -0.48466113841E+02  0.59924041808E+03  0.60867599797E+03  0.80613998914E+02 0.  0.
          6    2    1    2  501    0 -0.14500399245E+02  0.52555281015E+02  0.13427196634E+03  0.23109877370E+03  0.18001489693E+03 0.  0.
         24    2    5    5    0    0 -0.51478232207E+02  0.87963782771E+02  0.12099775533E+03  0.17800059289E+03  0.81585040308E+02 0.  0.
          5    1    5    5  501    0  0.36977832963E+02 -0.35408501756E+02  0.13274211008E+02  0.53098180808E+02  0.47000000000E+01 0. -1.
        -13    1    6    6    0    0 -0.56490085790E+01  0.60752111714E+02  0.20716812923E+02  0.64435368497E+02  0.00000000000E+00 0.  1.
         14    1    6    6    0    0 -0.45829223628E+02  0.27211671057E+02  0.10028094241E+03  0.11356522439E+03  0.00000000000E+00 0. -1.
         -5    1    3    3    0  503  0.64996050874E+02 -0.40891671748E+01  0.68459838906E+03  0.68770506195E+03  0.47000000000E+01 0.  1.
         11    1    4    4    0    0  0.53481708439E+01 -0.31809277663E+01  0.12100326888E+01  0.63391964742E+01  0.00000000000E+00 0. -1.
        -12    1    4    4    0    0 -0.55843822473E+02 -0.45285186074E+02  0.59803038539E+03  0.60233680149E+03  0.00000000000E+00 0.  1.
</event>
<event>
12    1  0.1066489E+000  0.2215437E+03  0.7818608E-02  0.1133037E+00
         21   -1    0    0  503  502  0.00000000000E+00  0.00000000000E+00  0.14860108833E+04  0.14860108833E+04  0.00000000000E+00 0.  1.
         21   -1    0    0  501  503 -0.00000000000E+00 -0.00000000000E+00 -0.33229730686E+02  0.33229730686E+02  0.00000000000E+00 0.  1.
          6    2    1    2  501    0  0.13699675130E+03  0.24065941275E+02  0.64147248379E+03  0.67865202468E+03  0.17243649193E+03 0.  0.
         24    2    3    3    0    0  0.16669704184E+02 -0.17352598006E+02  0.16477152085E+03  0.18523537343E+03  0.81138756409E+02 0.  0.
         -6    2    1    2    0  502 -0.13699675130E+03 -0.24065941275E+02  0.81130866882E+03  0.84058858930E+03  0.17035298930E+03 0.  0.
        -24    2    5    5    0    0 -0.11471140081E+03  0.44758321364E+01  0.31012894531E+03  0.33808040535E+03  0.70282709221E+02 0.  0.
          5    1    3    3  501    0  0.12032704712E+03  0.41418539281E+02  0.47670096294E+03  0.49341665125E+03  0.47000000000E+01 0. -1.
        -11    1    4    4    0    0  0.22406317806E+02 -0.48251719886E+02  0.10445748381E+03  0.11722473064E+03  0.00000000000E+00 0.  1.
         12    1    4    4    0    0 -0.57366136218E+01  0.30899121880E+02  0.60314037039E+02  0.68010642790E+02  0.00000000000E+00 0. -1.
         -5    1    5    5    0  502 -0.22285350488E+02 -0.28541773411E+02  0.50117972351E+03  0.50250818394E+03  0.47000000000E+01 0.  1.
         13    1    6    6    0    0  0.52927306039E+01 -0.12185630079E+02  0.35938205449E+02  0.38315234419E+02  0.00000000000E+00 0. -1.
        -14    1    6    6    0    0 -0.12000413142E+03  0.16661462216E+02  0.27419073986E+03  0.29976517093E+03  0.00000000000E+00 0.  1.
</event>
<event>
12    1  0.1066489E+000  0.2119168E+03  0.7818608E-02  0.1140462E+00
         21   -1    0    0  503  502  0.00000000000E+00  0.00000000000E+00  0.39092104424E+03  0.39092104424E+03  0.00000000000E+00 0. -1.
         21   -1    0    0  501  503 -0.00000000000E+00 -0.00000000000E+00 -0.18211644097E+03  0.18211644097E+03  0.00000000000E+00 0. -1.
          6    2    1    2  501    0 -0.12417510887E+03  0.52750395237E+01 -0.70808052343E+02  0.22343350560E+03  0.17164343111E+03 0.  0.
         24    2    3    3    0    0 -0.33527963814E+02  0.50510001839E+02 -0.75241669725E+02  0.12192068037E+03  0.74350244091E+02 0.  0.
         -6    2    1    2    0  502  0.12417510887E+03 -0.52750395237E+01  0.27961265560E+03  0.34960397962E+03  0.16909293801E+03 0.  0.
        -24    2    5    5    0    0  0.59883065056E+02 -0.66202342907E+02  0.13472867405E+03  0.17972443021E+03  0.78615033653E+02 0.  0.
          5    1    3    3  501    0 -0.90647145051E+02 -0.45234962315E+02  0.44336173823E+01  0.10151282522E+03  0.47000000000E+01 0. -1.
        -13    1    4    4    0    0 -0.53660498921E+02  0.41673329318E+02 -0.35878730571E+02  0.76833578781E+02  0.00000000000E+00 0.  1.
         14    1    4    4    0    0  0.20132535108E+02  0.88366725215E+01 -0.39362939155E+02  0.45087101592E+02  0.00000000000E+00 0. -1.
         -5    1    5    5    0  502  0.64292043809E+02  0.60927303384E+02  0.14488398156E+03  0.16987954941E+03  0.47000000000E+01 0.  1.
         11    1    6    6    0    0  0.22872717696E+02 -0.51525005768E+02  0.22596751967E+02  0.60733850805E+02  0.00000000000E+00 0. -1.
        -12    1    6    6    0    0  0.37010347361E+02 -0.14677337139E+02  0.11213192208E+03  0.11899057940E+03  0.00000000000E+00 0.  1.
</event>
<event>
12    1  0.1066489E+000  0.1932528E+03  0.7818608E-02  0.1155705E+00
         21   -1    0    0  503  502  0.00000000000E+00  0.00000000000E+00  0.18530384759E+02  0.18530384759E+02  0.00000000000E+00 0. -1.
         21   -1    0    0  501  503 -0.00000000000E+00 -0.00000000000E+00 -0.31832882933E+04  0.31832882933E+04  0.00000000000E+00 0. -1.
          6    2    1    2  501    0 -0.86551091043E+02 -0.13810401645E+02 -0.61157480617E+03  0.64138161198E+03  0.17223475285E+03 0.  0.
         24    2    3    3    0    0  0.71458032298E+01 -0.48401877681E+02 -0.40712929002E+03  0.41379484328E+03  0.55480710798E+02 0.  0.
         -6    2    1    2    0  502  0.86551091043E+02  0.13810401645E+02 -0.25531831024E+04  0.25604370661E+04  0.17149984423E+03 0.  0.
        -24    2    5    5    0    0 -0.89843346040E+01 -0.14970063277E+02 -0.74452673209E+03  0.74902455413E+03  0.80080626999E+02 0.  0.
          5    1    3    3  501    0 -0.93696894273E+02  0.34591476036E+02 -0.20444551615E+03  0.22758676869E+03  0.47000000000E+01 0. -1.
        -13    1    4    4    0    0 -0.23264133182E+02 -0.11795634908E+02 -0.16240268056E+03  0.16448400393E+03  0.00000000000E+00 0.  1.
         14    1    4    4    0    0  0.30409936412E+02 -0.36606242773E+02 -0.24472660945E+03  0.24931083935E+03  0.00000000000E+00 0. -1.
         -5    1    5    5    0  502  0.95535425647E+02  0.28780464922E+02 -0.18086563703E+04  0.18114125120E+04  0.47000000000E+01 0.  1.
         13    1    6    6    0    0 -0.10087699187E+02  0.21294841860E+02 -0.58288175507E+03  0.58335784246E+03  0.00000000000E+00 0. -1.
        -14    1    6    6    0    0  0.11033645831E+01 -0.36264905137E+02 -0.16164497702E+03  0.16566671167E+03  0.00000000000E+00 0.  1.
</event>
<event>
12    1  0.1066489E+000  0.1828962E+03  0.7818608E-02  0.1166254E+00
         21   -1    0    0  501  502  0.00000000000E+00  0.00000000000E+00  0.12093813988E+03  0.12093813988E+03  0.00000000000E+00 0. -1.
         21   -1    0    0  502  503 -0.00000000000E+00 -0.00000000000E+00 -0.27866644061E+03  0.27866644061E+03  0.00000000000E+00 0. -1.
         -6    2    1    2    0  503 -0.22985355603E+02  0.38134391051E+02 -0.11724477110E+03  0.21724952303E+03  0.17739351892E+03 0.  0.
        -24    2    3    3    0    0  0.16411456319E+02 -0.64692181050E+01 -0.13298079797E+03  0.15551376937E+03  0.78673077684E+02 0.  0.
          6    2    1    2  501    0  0.22985355603E+02 -0.38134391051E+02 -0.40483529628E+02  0.18235505745E+03  0.17213916595E+03 0.  0.
         24    2    5    5    0    0 -0.23263064313E+02 -0.43270611048E+02  0.29897617846E+02  0.97851252684E+02  0.79167443797E+02 0.  0.
          5    1    5    5  501    0  0.46248419916E+02  0.51362199973E+01 -0.70381147474E+02  0.84503804768E+02  0.47000000000E+01 0. -1.
        -11    1    6    6    0    0  0.65577683815E+00 -0.29289615322E+02 -0.23590237893E+02  0.37613972574E+02  0.00000000000E+00 0.  1.
         12    1    6    6    0    0 -0.23918841151E+02 -0.13980995725E+02  0.53487855739E+02  0.60237280110E+02  0.00000000000E+00 0. -1.
         -5    1    3    3    0  503 -0.39396811922E+02  0.44603609156E+02  0.15736026870E+02  0.61735753668E+02  0.47000000000E+01 0.  1.
         13    1    4    4    0    0 -0.65876693430E+01 -0.32752585658E+02 -0.10669165464E+03  0.11179999295E+03  0.00000000000E+00 0. -1.
        -14    1    4    4    0    0  0.22999125662E+02  0.26283367553E+02 -0.26289143329E+02  0.43713776411E+02  0.00000000000E+00 0.  1.
</event>
<event>
12    1  0.1066489E+000  0.3929433E+03  0.7818608E-02  0.1046661E+00
         21   -1    0    0  501  502  0.00000000000E+00  0.00000000000E+00  0.51164291549E+03  0.51164291549E+03  0.00000000000E+00 0. -1.
         21   -1    0    0  502  503 -0.00000000000E+00 -0.00000000000E+00 -0.31704625549E+03  0.31704625549E+03  0.00000000000E+00 0. -1.
         -6    2    1    2    0  503  0.31837126084E+03 -0.15547231199E+03  0.19762592216E+03  0.43573423396E+03  0.15898559058E+03 0.  0.
        -24    2    3    3    0    0  0.27381187527E+03 -0.10362398010E+03  0.10550809074E+03  0.32092320127E+03  0.78414741024E+02 0.  0.
          6    2    1    2  501    0 -0.31837126084E+03  0.15547231199E+03 -0.30292621684E+01  0.39295493702E+03  0.16991911774E+03 0.  0.
         24    2    5    5    0    0 -0.15433137687E+03  0.13760436428E+03  0.31488172057E+02  0.22430770059E+03  0.81051246811E+02 0.  0.
          5    1    5    5  501    0 -0.16403988397E+03  0.17867947710E+02 -0.34517434226E+02  0.16864723642E+03  0.47000000000E+01 0. -1.
        -11    1    6    6    0    0 -0.73304457792E+02  0.37613486069E+02 -0.21463145545E+02  0.85140968300E+02  0.00000000000E+00 0.  1.
         12    1    6    6    0    0 -0.81026919080E+02  0.99990878214E+02  0.52951317603E+02  0.13916673229E+03  0.00000000000E+00 0. -1.
         -5    1    3    3    0  503  0.44559385564E+02 -0.51848331889E+02  0.92117831421E+02  0.11481103269E+03  0.47000000000E+01 0.  1.
         11    1    4    4    0    0  0.19844504318E+03 -0.10444068857E+03  0.57306742850E+02  0.23145702704E+03  0.00000000000E+00 0. -1.
        -12    1    4    4    0    0  0.75366832098E+02  0.81670846726E+00  0.48201347893E+02  0.89466174233E+02  0.00000000000E+00 0.  1.
</event>
<event>
12    1  0.1066489E+000  0.1895619E+03  0.7818608E-02  0.1159013E+00
         21   -1    0    0  501  502  0.00000000000E+00  0.00000000000E+00  0.60003047435E+02  0.60003047435E+02  0.00000000000E+00 0.  1.
         21   -1    0    0  502  503 -0.00000000000E+00 -0.00000000000E+00 -0.60151375353E+03  0.60151375353E+03  0.00000000000E+00 0.  1.
         -6    2    1    2    0  503  0.55955509360E+02 -0.54083088465E+02 -0.24066463653E+03  0.30592985043E+03  0.17209766593E+03 0.  0.
        -24    2    3    3    0    0  0.92339898273E+02 -0.76651876980E+02 -0.21028047474E+03  0.25321873908E+03  0.74159859141E+02 0.  0.
          6    2    1    2  501    0 -0.55955509360E+02  0.54083088465E+02 -0.30084606956E+03  0.35558695054E+03  0.17285173512E+03 0.  0.
         24    2    5    5    0    0  0.90792655274E+01 -0.23855532178E+02 -0.95768144332E+02  0.12671363197E+03  0.78951172135E+02 0.  0.
          5    1    5    5  501    0 -0.65034774887E+02  0.77938620644E+02 -0.20507792523E+03  0.22887331856E+03  0.47000000000E+01 0. -1.
        -11    1    6    6    0    0 -0.13539032779E+02  0.16042530285E+02 -0.72118992301E+02  0.75112031241E+02  0.00000000000E+00 0.  1.
         12    1    6    6    0    0  0.22618298306E+02 -0.39898062463E+02 -0.23649152031E+02  0.51601600734E+02  0.00000000000E+00 0. -1.
         -5    1    3    3    0  503 -0.36384388913E+02  0.22568788515E+02 -0.30384161796E+02  0.52711111349E+02  0.47000000000E+01 0.  1.
         11    1    4    4    0    0  0.50382101423E+02  0.24446658554E+01 -0.91367206000E+02  0.10436617683E+03  0.00000000000E+00 0. -1.
        -12    1    4    4    0    0  0.41957796850E+02 -0.79096542836E+02 -0.11891326874E+03  0.14885256224E+03  0.00000000000E+00 0.  1.
</event>
<event>
12    1  0.1066489E+000  0.2542482E+03  0.7818608E-02  0.1112014E+00
         21   -1    0    0  501  502  0.00000000000E+00  0.00000000000E+00  0.43883742779E+03  0.43883742779E+03  0.00000000000E+00 0.  1.
         21   -1    0    0  502  503 -0.00000000000E+00 -0.00000000000E+00 -0.14593848851E+03  0.14593848851E+03  0.00000000000E+00 0. -1.
         -6    2    1    2    0  503  0.17261059528E+03  0.72677212100E+02  0.18997697403E+03  0.31048579310E+03  0.15885144725E+03 0.  0.
        -24    2    3    3    0    0  0.30787442924E+02  0.19724453545E+02  0.54246448247E+02  0.10710765560E+03  0.84808325251E+02 0.  0.
          6    2    1    2  501    0 -0.17261059528E+03 -0.72677212100E+02  0.10292196525E+03  0.27429012321E+03  0.17194692784E+03 0.  0.
         24    2    5    5    0    0 -0.11166817489E+03  0.20226234038E+02  0.32173134876E+02  0.14248528298E+03  0.79925361628E+02 0.  0.
          5    1    5    5  501    0 -0.60942420396E+02 -0.92903446138E+02  0.70748830378E+02  0.13180484023E+03  0.47000000000E+01 0. -1.
        -11    1    6    6    0    0 -0.14961043985E+02 -0.19603297476E+02  0.28700393718E+02  0.37839591814E+02  0.00000000000E+00 0.  1.
         12    1    6    6    0    0 -0.96707130903E+02  0.39829531514E+02  0.34727411575E+01  0.10464569116E+03  0.00000000000E+00 0. -1.
         -5    1    3    3    0  503  0.14182315236E+03  0.52952758555E+02  0.13573052578E+03  0.20337813750E+03  0.47000000000E+01 0.  1.
         13    1    4    4    0    0  0.11387752513E+02  0.52412254998E+02  0.38201672596E+02  0.65849017991E+02  0.00000000000E+00 0. -1.
        -14    1    4    4    0    0  0.19399690411E+02 -0.32687801453E+02  0.16044775651E+02  0.41258637612E+02  0.00000000000E+00 0.  1.
</event>
<event>
12    1  0.1066489E+000  0.3773931E+03  0.7818608E-02  0.1051908E+00
         21   -1    0    0  501  502  0.00000000000E+00  0.00000000000E+00  0.61097198447E+03  0.61097198447E+03  0.00000000000E+00 0.  1.
         21   -1    0    0  502  503 -0.00000000000E+00 -0.00000000000E+00 -0.27449442016E+03  0.27449442016E+03  0.00000000000E+00 0.  1.
         -6    2    1    2    0  503 -0.19116217612E+02 -0.33533758060E+03  0.34021320610E+03  0.50805477403E+03  0.17192412590E+03 0.  0.
        -24    2    3    3    0    0  0.48231558876E+02 -0.22341925170E+03  0.25786344495E+03  0.35357173773E+03  0.79227344887E+02 0.  0.
          6    2    1    2  501    0  0.19116217612E+02  0.33533758060E+03 -0.37356417839E+01  0.37741163060E+03  0.17207225562E+03 0.  0.
         24    2    5    5    0    0 -0.27508770177E+02  0.12426406922E+03  0.43149915278E+02  0.15617360910E+03  0.79561232123E+02 0.  0.
          5    1    5    5  501    0  0.46624987790E+02  0.21107351139E+03 -0.46885557062E+02  0.22123802150E+03  0.47000000000E+01 0. -1.
        -13    1    6    6    0    0  0.17790468982E+02  0.93463551767E+02  0.23749763006E+02  0.98061141837E+02  0.00000000000E+00 0.  1.
         14    1    6    6    0    0 -0.45299239160E+02  0.30800517449E+02  0.19400152272E+02  0.58112467266E+02  0.00000000000E+00 0. -1.
         -5    1    3    3    0  503 -0.67347776488E+02 -0.11191832890E+03  0.82349761153E+02  0.15448303630E+03  0.47000000000E+01 0.  1.
         11    1    4    4    0    0  0.44632073292E+02 -0.22081539760E+03  0.26331801199E+03  0.34653692044E+03  0.00000000000E+00 0. -1.
        -12    1    4    4    0    0  0.35994855833E+01 -0.26038540943E+01 -0.54545670478E+01  0.70348172889E+01  0.00000000000E+00 0.  1.
</event>
<event>
12    1  0.1066489E+000  0.2105197E+03  0.7818608E-02  0.1141199E+00
         21   -1    0    0  501  502  0.00000000000E+00  0.00000000000E+00  0.97910602187E+03  0.97910602187E+03  0.00000000000E+00 0. -1.
         21   -1    0    0  502  503 -0.00000000000E+00 -0.00000000000E+00 -0.59757905039E+02  0.59757905039E+02  0.00000000000E+00 0. -1.
         -6    2    1    2    0  503  0.57799158060E+02  0.10656876065E+03  0.71609049282E+03  0.74639408835E+03  0.17210722762E+03 0.  0.
        -24    2    3    3    0    0  0.95194453591E+02  0.74305079226E+02  0.38528007112E+03  0.41188403115E+03  0.81390989163E+02 0.  0.
          6    2    1    2  501    0 -0.57799158060E+02 -0.10656876065E+03  0.20325762402E+03  0.29246983857E+03  0.17183509924E+03 0.  0.
         24    2    5    5    0    0 -0.91940150008E+02 -0.11694527214E+03  0.18742280005E+03  0.25314922092E+03  0.82631920075E+02 0.  0.
          5    1    5    5  501    0  0.34140991947E+02  0.10376511491E+02  0.15834823968E+02  0.39320617645E+02  0.47000000000E+01 0. -1.
        -13    1    6    6    0    0 -0.73556481616E+02 -0.74868804120E+02  0.67632602230E+02  0.12486017260E+03  0.00000000000E+00 0.  1.
         14    1    6    6    0    0 -0.18383668392E+02 -0.42076468016E+02  0.11979019782E+03  0.12828904832E+03  0.00000000000E+00 0. -1.
         -5    1    3    3    0  503 -0.37395295531E+02  0.32263681420E+02  0.33081042169E+03  0.33451005720E+03  0.47000000000E+01 0.  1.
         13    1    4    4    0    0  0.31737561438E+02 -0.13095729469E+02  0.59848650419E+02  0.68997332509E+02  0.00000000000E+00 0. -1.
        -14    1    4    4    0    0  0.63456892153E+02  0.87400808695E+02  0.32543142070E+03  0.34288669864E+03  0.00000000000E+00 0.  1.
</event>
<event>
12    1  0.1066489E+000  0.3334761E+03  0.7818608E-02  0.1069609E+00
         21   -1    0    0  501  502  0.00000000000E+00  0.00000000000E+00  0.67878669188E+03  0.67878669188E+03  0.00000000000E+00 0. -1.
         21   -1    0    0  502  503 -0.00000000000E+00 -0.00000000000E+00 -0.19835373875E+03  0.19835373875E+03  0.00000000000E+00 0. -1.
         -6    2    1    2    0  503 -0.74411837061E+02 -0.27571276968E+03  0.42318905976E+03  0.53879057444E+03  0.17219654453E+03 0.  0.
        -24    2    3    3    0    0 -0.49928353742E+02 -0.29011467494E+03  0.38907679611E+03  0.49415211163E+03  0.78397646876E+02 0.  0.
          6    2    1    2  501    0  0.74411837061E+02  0.27571276968E+03  0.57243893368E+02  0.33834985619E+03  0.17218916632E+03 0.  0.
         24    2    5    5    0    0 -0.67590142244E+00  0.19767548391E+03 -0.89090638350E+01  0.21136052519E+03  0.74282207900E+02 0.  0.
          5    1    5    5  501    0  0.75087738483E+02  0.78037285774E+02  0.66152957203E+02  0.12698933100E+03  0.47000000000E+01 0. -1.
        -13    1    6    6    0    0 -0.77824288419E+01  0.15618119940E+03  0.23633228435E+02  0.15815075950E+03  0.00000000000E+00 0.  1.
         14    1    6    6    0    0  0.71065274195E+01  0.41494284510E+02 -0.32542292270E+02  0.53209765693E+02  0.00000000000E+00 0. -1.
         -5    1    3    3    0  503 -0.24483483319E+02  0.14401905263E+02  0.34112263653E+02  0.44638462811E+02  0.47000000000E+01 0.  1.
         13    1    4    4    0    0 -0.67085263401E+02 -0.16212044242E+03  0.21973551090E+03  0.28118884254E+03  0.00000000000E+00 0. -1.
        -14    1    4    4    0    0  0.17156909659E+02 -0.12799423252E+03  0.16934128521E+03  0.21296326909E+03  0.00000000000E+00 0.  1.
</event>
<event>
12    1  0.1066489E+000  0.1990250E+03  0.7818608E-02  0.1150716E+00
         21   -1    0    0  503  502  0.00000000000E+00  0.00000000000E+00  0.44156018031E+03  0.44156018031E+03  0.00000000000E+00 0.  1.
         21   -1    0    0  501  503 -0.00000000000E+00 -0.00000000000E+00 -0.91183958797E+02  0.91183958797E+02  0.00000000000E+00 0.  1.
          6    2    1    2  501    0  0.11501252743E+02  0.10288319857E+03  0.13746765297E+03  0.24129773548E+03  0.16914493836E+03 0.  0.
         24    2    3    3    0    0  0.20728425195E+02 -0.88294418618E+01  0.63634531437E+02  0.10699109164E+03  0.83006707229E+02 0.  0.
         -6    2    1    2    0  502 -0.11501252743E+02 -0.10288319857E+03  0.21290856854E+03  0.29144640363E+03  0.16998151743E+03 0.  0.
        -24    2    5    5    0    0  0.32422452388E+02 -0.18152334163E+02  0.43685371981E+02  0.97108575325E+02  0.78364156488E+02 0.  0.
          5    1    3    3  501    0 -0.92271724521E+01  0.11171264043E+03  0.73833121532E+02  0.13430664383E+03  0.47000000000E+01 0. -1.
        -11    1    4    4    0    0  0.33199718909E+02  0.13597290485E+02  0.71630871452E+02  0.80112978905E+02  0.00000000000E+00 0.  1.
         12    1    4    4    0    0 -0.12471293714E+02 -0.22426732347E+02 -0.79963400149E+01  0.26878112737E+02  0.00000000000E+00 0. -1.
         -5    1    5    5    0  502 -0.43923705130E+02 -0.84730864404E+02  0.16922319656E+03  0.19433782830E+03  0.47000000000E+01 0.  1.
         11    1    6    6    0    0 -0.10191158366E+02 -0.77195524157E+01  0.51046536904E+02  0.52623190023E+02  0.00000000000E+00 0. -1.
        -12    1    6    6    0    0  0.42613610754E+02 -0.10432781747E+02 -0.73611649226E+01  0.44485385302E+02  0.00000000000E+00 0.  1.
</event>
<event>
12    1  0.1066489E+000  0.3443832E+03  0.7818608E-02  0.1065008E+00
         21   -1    0    0  503  502  0.00000000000E+00  0.00000000000E+00  0.46263847651E+02  0.46263847651E+02  0.00000000000E+00 0.  1.
         21   -1    0    0  501  503 -0.00000000000E+00 -0.00000000000E+00 -0.28313712298E+04  0.28313712298E+04  0.00000000000E+00 0.  1.
          6    2    1    2  501    0 -0.36009041368E+02  0.29567572211E+03 -0.18399322510E+04  0.18718842023E+04  0.17285541618E+03 0.  0.
         24    2    3    3    0    0  0.12878729398E+02  0.25726929815E+03 -0.16542601581E+04  0.16760238346E+04  0.78267938933E+02 0.  0.
         -6    2    1    2    0  502  0.36009041368E+02 -0.29567572211E+03 -0.94517513117E+03  0.10057508752E+04  0.17163336095E+03 0.  0.
        -24    2    5    5    0    0  0.49652579740E+01 -0.26685518048E+03 -0.64596991829E+03  0.70352547993E+03  0.80216110818E+02 0.  0.
          5    1    3    3  501    0 -0.48887770766E+02  0.38406423961E+02 -0.18567209288E+03  0.19586036763E+03  0.47000000000E+01 0. -1.
        -13    1    4    4    0    0  0.41472936135E+02  0.85954044632E+02 -0.56516881732E+03  0.57317003959E+03  0.00000000000E+00 0.  1.
         14    1    4    4    0    0 -0.28594206737E+02  0.17131525352E+03 -0.10890913408E+04  0.11028537951E+04  0.00000000000E+00 0. -1.
         -5    1    5    5    0  502  0.31043783394E+02 -0.28820541626E+02 -0.29920521288E+03  0.30222539523E+03  0.47000000000E+01 0.  1.
         13    1    6    6    0    0 -0.94752309273E+01 -0.65318381431E+02 -0.25534850302E+03  0.26374064713E+03  0.00000000000E+00 0. -1.
        -14    1    6    6    0    0  0.14440488901E+02 -0.20153679905E+03 -0.39062141527E+03  0.43978483280E+03  0.00000000000E+00 0.  1.
</event>
<event>
12    1  0.1066489E+000  0.4320295E+03  0.7818608E-02  0.1033279E+00
         21   -1    0    0  501  502  0.00000000000E+00  0.00000000000E+00  0.11487120578E+04  0.11487120578E+04  0.00000000000E+00 0. -1.
         21   -1    0    0  502  503 -0.00000000000E+00 -0.00000000000E+00 -0.47035536215E+03  0.47035536215E+03  0.00000000000E+00 0.  1.
         -6    2    1    2    0  503  0.12529286722E+03  0.37532348392E+03 -0.31616684283E+03  0.53475818457E+03  0.17157745566E+03 0.  0.
        -24    2    3    3    0    0  0.28437643701E+02  0.28483678674E+03 -0.23885800889E+03  0.38124101127E+03  0.79692318345E+02 0.  0.
          6    2    1    2  501    0 -0.12529286722E+03 -0.37532348392E+03  0.99452353851E+03  0.10843092354E+04  0.17344575291E+03 0.  0.
         24    2    5    5    0    0 -0.15784059486E+03 -0.29311308176E+03  0.82392887888E+03  0.89210483201E+03  0.78506698759E+02 0.  0.
          5    1    5    5  501    0  0.32547727632E+02 -0.82210402162E+02  0.17059465963E+03  0.19220440341E+03  0.47000000000E+01 0. -1.
        -11    1    6    6    0    0 -0.15439759469E+02  0.13647055064E+00  0.49698013429E+02  0.52041304129E+02  0.00000000000E+00 0.  1.
         12    1    6    6    0    0 -0.14240083539E+03 -0.29324955231E+03  0.77423086545E+03  0.84006352788E+03  0.00000000000E+00 0. -1.
         -5    1    3    3    0  503  0.96855223522E+02  0.90486697182E+02 -0.77308833944E+02  0.15351717329E+03  0.47000000000E+01 0.  1.
         13    1    4    4    0    0  0.29785822106E+02  0.17733014197E+03 -0.10041337619E+03  0.20595150053E+03  0.00000000000E+00 0. -1.
        -14    1    4    4    0    0 -0.13481784045E+01  0.10750664477E+03 -0.13844463270E+03  0.17528951074E+03  0.00000000000E+00 0.  1.
</event>
<event>
12    1  0.1066489E+000  0.1906495E+03  0.7818608E-02  0.1158374E+00
         21   -1    0    0  501  502  0.00000000000E+00  0.00000000000E+00  0.19292349856E+03  0.19292349856E+03  0.00000000000E+00 0. -1.
         21   -1    0    0  502  503 -0.00000000000E+00 -0.00000000000E+00 -0.18814483828E+03  0.18814483828E+03  0.00000000000E+00 0. -1.
         -6    2    1    2    0  503 -0.42534488683E+02  0.60303856540E+02  0.21587631877E+02  0.18967923713E+03  0.17339679728E+03 0.  0.
        -24    2    3    3    0    0 -0.54189045527E+01  0.79772819404E+02 -0.35680111097E+02  0.11855757035E+03  0.79935973865E+02 0.  0.
          6    2    1    2  501    0  0.42534488683E+02 -0.60303856540E+02 -0.16808971603E+02  0.19138909970E+03  0.17578824795E+03 0.  0.
         24    2    5    5    0    0  0.49056827505E+02 -0.21906032771E+02 -0.69791804752E+02  0.12546335069E+03  0.89351607486E+02 0.  0.
          5    1    5    5  501    0 -0.65223388212E+01 -0.38397823768E+02  0.52982833149E+02  0.65925749008E+02  0.47000000000E+01 0. -1.
        -13    1    6    6    0    0  0.55702684351E+02  0.12125093011E+01 -0.45186029245E+01  0.55898810319E+02  0.00000000000E+00 0.  1.
         14    1    6    6    0    0 -0.66458568464E+01 -0.23118542072E+02 -0.65273201828E+02  0.69564540375E+02  0.00000000000E+00 0. -1.
         -5    1    3    3    0  503 -0.37115584131E+02 -0.19468962864E+02  0.57267742974E+02  0.71121666781E+02  0.47000000000E+01 0.  1.
         13    1    4    4    0    0  0.15535673961E+02 -0.11432825818E+02 -0.87283791978E+01  0.21171945471E+02  0.00000000000E+00 0. -1.
        -14    1    4    4    0    0 -0.20954578513E+02  0.91205645223E+02 -0.26951731900E+02  0.97385624881E+02  0.00000000000E+00 0.  1.
</event>
<event>
12    1  0.1066489E+000  0.2031421E+03  0.7818608E-02  0.1147615E+00
         21   -1    0    0  503  502  0.00000000000E+00  0.00000000000E+00  0.14652476052E+03  0.14652476052E+03  0.00000000000E+00 0. -1.
         21   -1    0    0  501  503 -0.00000000000E+00 -0.00000000000E+00 -0.27991308216E+03  0.27991308216E+03  0.00000000000E+00 0. -1.
          6    2    1    2  501    0 -0.84926201431E+02  0.59591221172E+02 -0.83202656268E+02  0.21952083248E+03  0.17465148311E+03 0.  0.
         24    2    3    3    0    0 -0.32849897446E+02 -0.34204013878E+02 -0.21831821860E+02  0.95835922845E+02  0.80367066229E+02 0.  0.
         -6    2    1    2    0  502  0.84926201431E+02 -0.59591221172E+02 -0.50185665376E+02  0.20691701020E+03  0.17185015208E+03 0.  0.
        -24    2    5    5    0    0  0.44913089482E+02  0.12196184955E+02  0.23305911650E+02  0.96564925036E+02  0.81336871683E+02 0.  0.
          5    1    3    3  501    0 -0.52076303986E+02  0.93795235050E+02 -0.61370834408E+02  0.12368490963E+03  0.47000000000E+01 0. -1.
        -13    1    4    4    0    0 -0.55033873316E+02 -0.40196798473E+01 -0.18626452619E+02  0.58239417711E+02  0.00000000000E+00 0.  1.
         14    1    4    4    0    0  0.22183975870E+02 -0.30184334030E+02 -0.32053692411E+01  0.37596505133E+02  0.00000000000E+00 0. -1.
         -5    1    5    5    0  502  0.40013111950E+02 -0.71787406127E+02 -0.73491577026E+02  0.11035208516E+03  0.47000000000E+01 0.  1.
         11    1    6    6    0    0 -0.11333701931E+02  0.86612763833E+01  0.36062813793E+02  0.38781400783E+02  0.00000000000E+00 0. -1.
        -12    1    6    6    0    0  0.56246791412E+02  0.35349085721E+01 -0.12756902143E+02  0.57783524253E+02  0.00000000000E+00 0.  1.
</event>
<event>
12    1  0.1066489E+000  0.1156534E+04  0.7818608E-02  0.9151807E-01
         21   -1    0    0  503  502  0.00000000000E+00  0.00000000000E+00  0.24549697795E+04  0.24549697795E+04  0.00000000000E+00 0. -1.
         21   -1    0    0  501  503 -0.00000000000E+00 -0.00000000000E+00 -0.64667189099E+03  0.64667189099E+03  0.00000000000E+00 0. -1.
          6    2    1    2  501    0  0.85280081098E+03 -0.76197307593E+03  0.28860443273E+03  0.11919997558E+04  0.17233312945E+03 0.  0.
         24    2    3    3    0    0  0.55371115154E+03 -0.48953913673E+03  0.11719515795E+03  0.75259321839E+03  0.80107687436E+02 0.  0.
         -6    2    1    2    0  502 -0.85280081098E+03  0.76197307593E+03  0.15196934558E+04  0.19096419147E+04  0.17144051812E+03 0.  0.
        -24    2    5    5    0    0 -0.61394378814E+03  0.56410425315E+03  0.99947525890E+03  0.13039573345E+04  0.78824828156E+02 0.  0.
          5    1    3    3  501    0  0.29908965945E+03 -0.27243393920E+03  0.17140927478E+03  0.43940653738E+03  0.47000000000E+01 0. -1.
        -13    1    4    4    0    0  0.19038523647E+03 -0.17700007061E+03  0.79589388204E+02  0.27186399904E+03  0.00000000000E+00 0.  1.
         14    1    4    4    0    0  0.36332591507E+03 -0.31253906612E+03  0.37605769749E+02  0.48072921935E+03  0.00000000000E+00 0. -1.
         -5    1    5    5    0  502 -0.23885702284E+03  0.19786882278E+03  0.52021819691E+03  0.60568458027E+03  0.47000000000E+01 0.  1.
         13    1    6    6    0    0 -0.40527035271E+03  0.41274599278E+03  0.65813044813E+03  0.87620716734E+03  0.00000000000E+00 0. -1.
        -14    1    6    6    0    0 -0.20867343543E+03  0.15135826038E+03  0.34134481078E+03  0.42775016714E+03  0.00000000000E+00 0.  1.
</event>
<event>
12    1  0.1066489E+000  0.1801197E+03  0.7818608E-02  0.1167699E+00
         21   -1    0    0  501  502  0.00000000000E+00  0.00000000000E+00  0.34080810765E+02  0.34080810765E+02  0.00000000000E+00 0.  1.
         21   -1    0    0  502  503 -0.00000000000E+00 -0.00000000000E+00 -0.96178272789E+03  0.96178272789E+03  0.00000000000E+00 0.  1.
         -6    2    1    2    0  503 -0.49903239051E+01  0.52532050869E+02 -0.41288522246E+03  0.45046342800E+03  0.17221664650E+03 0.  0.
        -24    2    3    3    0    0  0.45746194067E+02 -0.49548669904E+01 -0.14506027069E+03  0.17183960494E+03  0.79806658338E+02 0.  0.
          6    2    1    2  501    0  0.49903239051E+01 -0.52532050869E+02 -0.51481669466E+03  0.54540011066E+03  0.17216425849E+03 0.  0.
         24    2    5    5    0    0  0.46346292589E+02  0.14006580827E+02 -0.19440144791E+03  0.21551266621E+03  0.79433136689E+02 0.  0.
          5    1    5    5  501    0 -0.41355968684E+02 -0.66538631696E+02 -0.32041524676E+03  0.32988744445E+03  0.47000000000E+01 0. -1.
        -13    1    6    6    0    0  0.52736933179E+02 -0.15075873733E+02 -0.77942736532E+02  0.95307587673E+02  0.00000000000E+00 0.  1.
         14    1    6    6    0    0 -0.63906405904E+01  0.29082454560E+02 -0.11645871137E+03  0.12020507853E+03  0.00000000000E+00 0. -1.
         -5    1    3    3    0  503 -0.50736517972E+02  0.57486917859E+02 -0.26782495178E+03  0.27862382306E+03  0.47000000000E+01 0.  1.
         13    1    4    4    0    0  0.44426383771E+02 -0.37510184891E+02 -0.10666428998E+03  0.12148246088E+03  0.00000000000E+00 0. -1.
        -14    1    4    4    0    0  0.13198102957E+01  0.32555317901E+02 -0.38395980704E+02  0.50357144052E+02  0.00000000000E+00 0.  1.
</event>
<event>
12    1  0.1066489E+000  0.1732202E+03  0.7818608E-02  0.1174856E+00
         21   -1    0    0  501  502  0.00000000000E+00  0.00000000000E+00  0.48762353114E+03  0.48762353114E+03  0.00000000000E+00 0.  1.
         21   -1    0    0  502  503 -0.00000000000E+00 -0.00000000000E+00 -0.62091160142E+02  0.62091160142E+02  0.00000000000E+00 0.  1.
         -6    2    1    2    0  503  0.94808263938E+01 -0.15189374638E+02  0.24857106349E+03  0.30297327797E+03  0.17229228187E+03 0.  0.
        -24    2    3    3    0    0  0.37463204181E+02 -0.67992519273E+02  0.14946996692E+03  0.18715314634E+03  0.81599968328E+02 0.  0.
          6    2    1    2  501    0 -0.94808263938E+01  0.15189374638E+02  0.17696130751E+03  0.24674141331E+03  0.17101291622E+03 0.  0.
         24    2    5    5    0    0  0.34818191261E+02 -0.28400883807E+02  0.47280269235E+02  0.10286029820E+03  0.79535529438E+02 0.  0.
          5    1    5    5  501    0 -0.44299017654E+02  0.43590258446E+02  0.12968103828E+03  0.14388111511E+03  0.47000000000E+01 0. -1.
        -11    1    6    6    0    0  0.12330093547E+01 -0.10233295070E+02 -0.21696186014E+02  0.24020098409E+02  0.00000000000E+00 0.  1.
         12    1    6    6    0    0  0.33585181906E+02 -0.18167588737E+02  0.68976455249E+02  0.78840199790E+02  0.00000000000E+00 0. -1.
         -5    1    3    3    0  503 -0.27982377787E+02  0.52803144634E+02  0.99101096567E+02  0.11582013163E+03  0.47000000000E+01 0.  1.
         11    1    4    4    0    0  0.19631652830E+02  0.70231642959E+01  0.22599721995E+01  0.20972222197E+02  0.00000000000E+00 0. -1.
        -12    1    4    4    0    0  0.17831551351E+02 -0.75015683569E+02  0.14720999472E+03  0.16618092415E+03  0.00000000000E+00 0.  1.
</event>
<event>
12    1  0.1066489E+000  0.1823717E+03  0.7818608E-02  0.1165925E+00
         21   -1    0    0  501  502  0.00000000000E+00  0.00000000000E+00  0.66903460040E+02  0.66903460040E+02  0.00000000000E+00 0. -1.
         21   -1    0    0  502  503 -0.00000000000E+00 -0.00000000000E+00 -0.51747311866E+03  0.51747311866E+03  0.00000000000E+00 0. -1.
         -6    2    1    2    0  503  0.19501952654E+02 -0.54742363434E+02 -0.16220896360E+03  0.24407206625E+03  0.17286518775E+03 0.  0.
        -24    2    3    3    0    0 -0.52052445723E+02 -0.29844900520E+02 -0.10578117234E+03  0.14948823458E+03  0.86930435766E+02 0.  0.
          6    2    1    2  501    0 -0.19501952654E+02  0.54742363434E+02 -0.28836069502E+03  0.34030451245E+03  0.17110879070E+03 0.  0.
         24    2    5    5    0    0 -0.12258746197E+02  0.53451973225E+02 -0.30447181579E+03  0.32198001084E+03  0.89222477397E+02 0.  0.
          5    1    5    5  501    0 -0.72432064567E+01  0.12903902088E+01  0.16111120772E+02  0.18324501609E+02  0.47000000000E+01 0. -1.
        -13    1    6    6    0    0 -0.10699829237E+02  0.71900122108E+02 -0.15310609190E+03  0.16948625101E+03  0.00000000000E+00 0.  1.
         14    1    6    6    0    0 -0.15589169607E+01 -0.18448148883E+02 -0.15136572389E+03  0.15249375984E+03  0.00000000000E+00 0. -1.
         -5    1    3    3    0  503  0.71554398377E+02 -0.24897462914E+02 -0.56427791261E+02  0.94583831669E+02  0.47000000000E+01 0.  1.
         13    1    4    4    0    0  0.17301692807E+02  0.36773566306E+01 -0.53610654119E+02  0.56453288309E+02  0.00000000000E+00 0. -1.
        -14    1    4    4    0    0 -0.69354138530E+02 -0.33522257150E+02 -0.52170518219E+02  0.93034946267E+02  0.00000000000E+00 0.  1.
</event>
<event>
12    1  0.1066489E+000  0.2286173E+03  0.7818608E-02  0.1128212E+00
         21   -1    0    0  501  502  0.00000000000E+00  0.00000000000E+00  0.24162670028E+03  0.24162670028E+03  0.00000000000E+00 0. -1.
         21   -1    0    0  502  503 -0.00000000000E+00 -0.00000000000E+00 -0.24205294937E+03  0.24205294937E+03  0.00000000000E+00 0. -1.
         -6    2    1    2    0  503 -0.81957123718E+02 -0.12467482560E+03 -0.83750356180E+02  0.24347482254E+03  0.17321975864E+03 0.  0.
        -24    2    3    3    0    0 -0.95104595648E+02 -0.43974611293E+02 -0.96740527416E+01  0.13304489300E+03  0.81416863762E+02 0.  0.
          6    2    1    2  501    0  0.81957123718E+02  0.12467482560E+03  0.83324107088E+02  0.24020482710E+03  0.16880364295E+03 0.  0.
         24    2    5    5    0    0  0.61023539844E+02  0.11058758058E+03  0.12042923810E+03  0.19508779979E+03  0.87192676551E+02 0.  0.
          5    1    5    5  501    0  0.20933583874E+02  0.14087245024E+02 -0.37105131012E+02  0.45117027313E+02  0.47000000000E+01 0. -1.
        -11    1    6    6    0    0  0.42656137905E+02  0.12089228932E+03  0.84820993685E+02  0.15371757443E+03  0.00000000000E+00 0.  1.
         12    1    6    6    0    0  0.18367401940E+02 -0.10304708742E+02  0.35608244415E+02  0.41370225363E+02  0.00000000000E+00 0. -1.
         -5    1    3    3    0  503  0.13147471930E+02 -0.80700214307E+02 -0.74076303438E+02  0.11042992954E+03  0.47000000000E+01 0.  1.
         11    1    4    4    0    0 -0.87634685596E+01 -0.15302000097E+02  0.29198905262E+02  0.34110491885E+02  0.00000000000E+00 0. -1.
        -12    1    4    4    0    0 -0.86341127089E+02 -0.28672611197E+02 -0.38872958004E+02  0.98934401114E+02  0.00000000000E+00 0.  1.
</event>
<event>
12    1  0.1066489E+000  0.1830057E+03  0.7818608E-02  0.1165096E+00
         21   -1    0    0  501  502  0.00000000000E+00  0.00000000000E+00  0.11989121080E+04  0.11989121080E+04  0.00000000000E+00 0. -1.
         21   -1    0    0  502  503 -0.00000000000E+00 -0.00000000000E+00 -0.34483376673E+02  0.34483376673E+02  0.00000000000E+00 0. -1.
         -6    2    1    2    0  503  0.24921216736E+01 -0.63230934972E+02  0.31029241186E+03  0.35987392118E+03  0.17094881247E+03 0.  0.
        -24    2    3    3    0    0 -0.45146458328E+02 -0.72656071006E+02  0.13623159132E+03  0.17910465737E+03  0.78754837718E+02 0.  0.
          6    2    1    2  501    0 -0.24921216736E+01  0.63230934972E+02  0.85413631949E+03  0.87352156351E+03  0.17171694103E+03 0.  0.
         24    2    5    5    0    0  0.51393943204E+02  0.13279449385E+02  0.31654823121E+03  0.33091498268E+03  0.80524914811E+02 0.  0.
          5    1    5    5  501    0 -0.53886064877E+02  0.49951485587E+02  0.53758808828E+03  0.54260658083E+03  0.47000000000E+01 0. -1.
        -11    1    6    6    0    0 -0.10006320409E+02  0.30969264584E+02  0.10808951001E+03  0.11288296581E+03  0.00000000000E+00 0.  1.
         12    1    6    6    0    0  0.61400263613E+02 -0.17689815199E+02  0.20845872121E+03  0.21803201687E+03  0.00000000000E+00 0. -1.
         -5    1    3    3    0  503  0.47638580001E+02  0.94251360342E+01  0.17406082054E+03  0.18076926382E+03  0.47000000000E+01 0.  1.
         13    1    4    4    0    0  0.11304872152E+02 -0.56081231660E+02  0.61542956353E+02  0.84026425341E+02  0.00000000000E+00 0. -1.
        -14    1    4    4    0    0 -0.56451330480E+02 -0.16574839346E+02  0.74688634963E+02  0.95078232025E+02  0.00000000000E+00 0.  1.
</event>
<event>
12    1  0.1066489E+000  0.2257730E+03  0.7818608E-02  0.1130115E+00
         21   -1    0    0  501  502  0.00000000000E+00  0.00000000000E+00  0.52674060569E+02  0.52674060569E+02  0.00000000000E+00 0.  1.
         21   -1    0    0  502  503 -0.00000000000E+00 -0.00000000000E+00 -0.10755324947E+04  0.10755324947E+04  0.00000000000E+00 0.  1.
         -6    2    1    2    0  503 -0.10638371366E+03  0.94812416181E+02 -0.32138635138E+03  0.39129643372E+03  0.17180460819E+03 0.  0.
        -24    2    3    3    0    0 -0.13854654373E+03  0.75003496513E+02 -0.29779250059E+03  0.34651249986E+03  0.81054733901E+02 0.  0.
          6    2    1    2  501    0  0.10638371366E+03 -0.94812416181E+02 -0.70147208274E+03  0.73691012154E+03  0.17511868993E+03 0.  0.
         24    2    5    5    0    0  0.12002945531E+03 -0.40257186683E+02 -0.62069121665E+03  0.63837019228E+03  0.78937980410E+02 0.  0.
          5    1    5    5  501    0 -0.13645741647E+02 -0.54555229498E+02 -0.80780866095E+02  0.98539929256E+02  0.47000000000E+01 0. -1.
        -13    1    6    6    0    0  0.76559554702E+01 -0.23681655914E+02 -0.23459985875E+03  0.23591635850E+03  0.00000000000E+00 0.  1.
         14    1    6    6    0    0  0.11237349984E+03 -0.16575530770E+02 -0.38609135790E+03  0.40245383378E+03  0.00000000000E+00 0. -1.
         -5    1    3    3    0  503  0.32162830069E+02  0.19808919667E+02 -0.23593850792E+02  0.44783933856E+02  0.47000000000E+01 0.  1.
         13    1    4    4    0    0 -0.23609397879E+02 -0.10108295181E+02 -0.94663956381E+02  0.98085911004E+02  0.00000000000E+00 0. -1.
        -14    1    4    4    0    0 -0.11493714585E+03  0.85111791695E+02 -0.20312854421E+03  0.24842658886E+03  0.00000000000E+00 0.  1.
</event>
<event>
12    1  0.1066489E+000  0.2363859E+03  0.7818608E-02  0.1122347E+00
         21   -1    0    0  503  502  0.00000000000E+00  0.00000000000E+00  0.38499884257E+03  0.38499884257E+03  0.00000000000E+00 0.  1.
         21   -1    0    0  501  503 -0.00000000000E+00 -0.00000000000E+00 -0.20981400816E+03  0.20981400816E+03  0.00000000000E+00 0. -1.
          6    2    1    2  501    0  0.25331215459E+02  0.15849257573E+03 -0.78001021370E+02  0.24892257536E+03  0.17354170148E+03 0.  0.
         24    2    3    3    0    0  0.80979795829E+02  0.13403730012E+03 -0.59066897965E+02  0.18508359016E+03  0.79014630017E+02 0.  0.
         -6    2    1    2    0  502 -0.25331215459E+02 -0.15849257573E+03  0.25318585578E+03  0.34589027536E+03  0.17255560839E+03 0.  0.
        -24    2    5    5    0    0 -0.64970029092E+01 -0.11435982044E+03  0.74625142977E+02  0.16093502184E+03  0.84916368929E+02 0.  0.
          5    1    3    3  501    0 -0.55648580370E+02  0.24455275611E+02 -0.18934123405E+02  0.63838985201E+02  0.47000000000E+01 0. -1.
        -11    1    4    4    0    0  0.63086363901E+02  0.98432308701E+02 -0.38339199450E+01  0.11697652606E+03  0.00000000000E+00 0.  1.
         12    1    4    4    0    0  0.17893431928E+02  0.35604991418E+02 -0.55232978020E+02  0.68107064105E+02  0.00000000000E+00 0. -1.
         -5    1    5    5    0  502 -0.18834212550E+02 -0.44132755293E+02  0.17856071280E+03  0.18495525353E+03  0.47000000000E+01 0.  1.
         13    1    6    6    0    0  0.15625640983E+02 -0.14375262220E+02 -0.14061864473E+02  0.25466543787E+02  0.00000000000E+00 0. -1.
        -14    1    6    6    0    0 -0.22122643892E+02 -0.99984558217E+02  0.88687007450E+02  0.13546847805E+03  0.00000000000E+00 0.  1.
</event>
<event>
12    1  0.1066489E+000  0.2467748E+03  0.7818608E-02  0.1115497E+00
         21   -1    0    0  503  502  0.00000000000E+00  0.00000000000E+00  0.20133643930E+03  0.20133643930E+03  0.00000000000E+00 0. -1.
         21   -1    0    0  501  503 -0.00000000000E+00 -0.00000000000E+00 -0.30368038814E+03  0.30368038814E+03  0.00000000000E+00 0. -1.
          6    2    1    2  501    0 -0.96586196458E+02  0.14664139468E+03 -0.29345884074E+02  0.24767168575E+03  0.17218446803E+03 0.  0.
         24    2    3    3    0    0 -0.13431320356E+03  0.13033972528E+03 -0.19817146179E+02  0.20522220594E+03  0.81822697874E+02 0.  0.
         -6    2    1    2    0  502  0.96586196458E+02 -0.14664139468E+03 -0.72998064767E+02  0.25734514170E+03  0.17339323088E+03 0.  0.
        -24    2    5    5    0    0  0.38475835997E+02 -0.14817193611E+03 -0.15154189653E+02  0.17520404091E+03  0.83854003380E+02 0.  0.
          5    1    3    3  501    0  0.37727007107E+02  0.16301669393E+02 -0.95287378954E+01  0.42449479810E+02  0.47000000000E+01 0. -1.
        -13    1    4    4    0    0 -0.42229347817E+02  0.58530859931E+02  0.30135669911E+02  0.78213413059E+02  0.00000000000E+00 0.  1.
         14    1    4    4    0    0 -0.92083855748E+02  0.71808865352E+02 -0.49952816090E+02  0.12700879288E+03  0.00000000000E+00 0. -1.
         -5    1    5    5    0  502  0.58110360461E+02  0.15305414280E+01 -0.57843875114E+02  0.82141100785E+02  0.47000000000E+01 0.  1.
         13    1    6    6    0    0 -0.25237353181E+02 -0.23351554175E+02 -0.41187412572E+01  0.34629223317E+02  0.00000000000E+00 0. -1.
        -14    1    6    6    0    0  0.63713189178E+02 -0.12482038193E+03 -0.11035448396E+02  0.14057481759E+03  0.00000000000E+00 0.  1.
</event>
<event>
12    1  0.1066489E+000  0.2335243E+03  0.7818608E-02  0.1124240E+00
         21   -1    0    0  503  502  0.00000000000E+00  0.00000000000E+00  0.86267249068E+03  0.86267249068E+03  0.00000000000E+00 0. -1.
         21   -1    0    0  501  503 -0.00000000000E+00 -0.00000000000E+00 -0.72835452528E+02  0.72835452528E+02  0.00000000000E+00 0. -1.
          6    2    1    2  501    0  0.92743276639E+02  0.12800160323E+03  0.56594529403E+03  0.61223170454E+03  0.17189490513E+03 0.  0.
         24    2    3    3    0    0  0.15185180472E+01  0.34025197567E+02  0.12300484222E+03  0.15030978987E+03  0.79390312713E+02 0.  0.
         -6    2    1    2    0  502 -0.92743276639E+02 -0.12800160323E+03  0.22389174412E+03  0.32327623867E+03  0.17144762353E+03 0.  0.
        -24    2    5    5    0    0  0.19057844735E+02 -0.49684508742E+02  0.90904199433E+02  0.13264351569E+03  0.80616232393E+02 0.  0.
          5    1    3    3  501    0  0.91224758592E+02  0.93976405666E+02  0.44294045181E+03  0.46192191467E+03  0.47000000000E+01 0. -1.
        -11    1    4    4    0    0  0.32673110688E+02  0.19220786968E+02  0.10450710131E+03  0.11116971278E+03  0.00000000000E+00 0.  1.
         12    1    4    4    0    0 -0.31154592641E+02  0.14804410599E+02  0.18497740909E+02  0.39140077089E+02  0.00000000000E+00 0. -1.
         -5    1    5    5    0  502 -0.11180112137E+03 -0.78317094492E+02  0.13298754469E+03  0.19063272298E+03  0.47000000000E+01 0.  1.
         11    1    6    6    0    0 -0.31604274170E+02 -0.22050187412E+02  0.41997104733E+02  0.56998225557E+02  0.00000000000E+00 0. -1.
        -12    1    6    6    0    0  0.50662118905E+02 -0.27634321330E+02  0.48907094700E+02  0.75645290133E+02  0.00000000000E+00 0.  1.
</event>
<event>
12    1  0.1066489E+000  0.1776250E+03  0.7818608E-02  0.1170367E+00
         21   -1    0    0  503  502  0.00000000000E+00  0.00000000000E+00  0.11418132157E+03  0.11418132157E+03  0.00000000000E+00 0.  1.
         21   -1    0    0  501  503 -0.00000000000E+00 -0.00000000000E+00 -0.28264927876E+03  0.28264927876E+03  0.00000000000E+00 0.  1.
          6    2    1    2  501    0  0.18310633842E+01  0.47814486014E+02 -0.50896400104E+02  0.18381951652E+03  0.17002821309E+03 0.  0.
         24    2    3    3    0    0  0.44594032967E+02  0.80346692174E+02 -0.36009108294E+02  0.12786652319E+03  0.81295591234E+02 0.  0.
         -6    2    1    2    0  502 -0.18310633842E+01 -0.47814486014E+02 -0.11757155708E+03  0.21301108381E+03  0.17105868269E+03 0.  0.
        -24    2    5    5    0    0  0.42066763296E+02  0.30092891035E+01 -0.23856227037E+02  0.97621619858E+02  0.84747818262E+02 0.  0.
          5    1    3    3  501    0 -0.42762969583E+02 -0.32532206160E+02 -0.14887291811E+02  0.55952993330E+02  0.47000000000E+01 0. -1.
        -13    1    4    4    0    0 -0.84421509149E+01 -0.72397572969E+01 -0.21826408146E+02  0.24496450566E+02  0.00000000000E+00 0.  1.
         14    1    4    4    0    0  0.53036183882E+02  0.87586449471E+02 -0.14182700148E+02  0.10337007263E+03  0.00000000000E+00 0. -1.
         -5    1    5    5    0  502 -0.43897826680E+02 -0.50823775118E+02 -0.93715330046E+02  0.11538946395E+03  0.47000000000E+01 0.  1.
         11    1    6    6    0    0  0.15214072359E+01 -0.37350955567E+02 -0.11277838956E+02  0.39046103688E+02  0.00000000000E+00 0. -1.
        -12    1    6    6    0    0  0.40545356060E+02  0.40360244670E+02 -0.12578388081E+02  0.58575516170E+02  0.00000000000E+00 0.  1.
</event>
<event>
12    1  0.1066489E+000  0.1731550E+03  0.7818608E-02  0.1174664E+00
         21   -1    0    0  503  502  0.00000000000E+00  0.00000000000E+00  0.81638802292E+02  0.81638802292E+02  0.00000000000E+00 0.  1.
         21   -1    0    0  501  503 -0.00000000000E+00 -0.00000000000E+00 -0.37846061189E+03  0.37846061189E+03  0.00000000000E+00 0.  1.
          6    2    1    2  501    0  0.21140009192E+02 -0.15778588351E+02 -0.18906231745E+03  0.25637316953E+03  0.17113380244E+03 0.  0.
         24    2    3    3    0    0  0.55955447854E+02  0.36498534764E+02 -0.13951117518E+03  0.17623317907E+03  0.84448861575E+02 0.  0.
         -6    2    1    2    0  502 -0.21140009192E+02  0.15778588351E+02 -0.10775949215E+03  0.20372624466E+03  0.17086957240E+03 0.  0.
        -24    2    5    5    0    0 -0.66725511743E+02  0.39746152601E+02 -0.13274037985E+02  0.96013324222E+02  0.54866271786E+02 0.  0.
          5    1    3    3  501    0 -0.34815438662E+02 -0.52277123116E+02 -0.49551142270E+02  0.80139990459E+02  0.47000000000E+01 0. -1.
        -11    1    4    4    0    0 -0.10080645756E+02 -0.24734772618E+01  0.58303232011E+01  0.11905048394E+02  0.00000000000E+00 0.  1.
         12    1    4    4    0    0  0.66036093610E+02  0.38972012026E+02 -0.14534149838E+03  0.16432813068E+03  0.00000000000E+00 0. -1.
         -5    1    5    5    0  502  0.45585502552E+02 -0.23967564250E+02 -0.94485454168E+02  0.10771292043E+03  0.47000000000E+01 0.  1.
         11    1    6    6    0    0 -0.22570516785E+02  0.43654739495E+02 -0.15777980979E+02  0.51615009368E+02  0.00000000000E+00 0. -1.
        -12    1    6    6    0    0 -0.44154994959E+02 -0.39085868937E+01  0.25039429938E+01  0.44398314854E+02  0.00000000000E+00 0.  1.
</event>
<event>
12    1  0.1066489E+000  0.1739887E+03  0.7818608E-02  0.1173891E+00
         21   -1    0    0  501  502  0.00000000000E+00  0.00000000000E+00  0.49094892648E+02  0.49094892648E+02  0.00000000000E+00 0. -1.
         21   -1    0    0  502  503 -0.00000000000E+00 -0.00000000000E+00 -0.11044035973E+04  0.11044035973E+04  0.00000000000E+00 0. -1.
         -6    2    1    2    0  503 -0.12700784485E+01  0.26375475462E+02 -0.14404923665E+03  0.22588107974E+03  0.17197325606E+03 0.  0.
        -24    2    3    3    0    0  0.22004598829E+02 -0.47299414582E+02 -0.68839840645E+02  0.11795405221E+03  0.80329308364E+02 0.  0.
          6    2    1    2  501    0  0.12700784485E+01 -0.26375475462E+02 -0.91125946798E+03  0.92761741018E+03  0.17141459356E+03 0.  0.
         24    2    5    5    0    0 -0.48699916018E+02 -0.59841726737E+02 -0.47005802027E+03  0.48231100131E+03  0.75608501412E+02 0.  0.
          5    1    5    5  501    0  0.49969994466E+02  0.33466251275E+02 -0.44120144771E+03  0.44530640887E+03  0.47000000000E+01 0. -1.
        -11    1    6    6    0    0 -0.31126360903E+02 -0.32143437810E+02 -0.86820270928E+02  0.97671952890E+02  0.00000000000E+00 0.  1.
         12    1    6    6    0    0 -0.17573555115E+02 -0.27698288926E+02 -0.38323774934E+03  0.38463904842E+03  0.00000000000E+00 0. -1.
         -5    1    3    3    0  503 -0.23274677278E+02  0.73674890044E+02 -0.75209396001E+02  0.10792702753E+03  0.47000000000E+01 0.  1.
         11    1    4    4    0    0 -0.23095414466E+01 -0.16360703547E+02  0.16888145629E+02  0.23626596560E+02  0.00000000000E+00 0. -1.
        -12    1    4    4    0    0  0.24314140276E+02 -0.30938711036E+02 -0.85727986274E+02  0.94327455646E+02  0.00000000000E+00 0.  1.
</event>
<event>
12    1  0.1066489E+000  0.3815435E+03  0.7818608E-02  0.1050433E+00
         21   -1    0    0  501  502  0.00000000000E+00  0.00000000000E+00  0.17366679874E+04  0.17366679874E+04  0.00000000000E+00 0. -1.
         21   -1    0    0  502  503 -0.00000000000E+00 -0.00000000000E+00 -0.13632924356E+03  0.13632924356E+03  0.00000000000E+00 0. -1.
         -6    2    1    2    0  503  0.29478594287E+03  0.17041563306E+03  0.13817733244E+04  0.14332856079E+04  0.17049889621E+03 0.  0.
        -24    2    3    3    0    0  0.11687005518E+03  0.10735576706E+03  0.85997788835E+03  0.87837734800E+03  0.82467730120E+02 0.  0.
          6    2    1    2  501    0 -0.29478594287E+03 -0.17041563306E+03  0.21856541942E+03  0.43971162307E+03  0.17214885649E+03 0.  0.
         24    2    5    5    0    0 -0.13449233741E+03 -0.22613486388E+02  0.55003245439E+02  0.16710533321E+03  0.79367983405E+02 0.  0.
          5    1    5    5  501    0 -0.16029360546E+03 -0.14780214667E+03  0.16356217398E+03  0.27260628986E+03  0.47000000000E+01 0. -1.
        -11    1    6    6    0    0 -0.98014060975E+02 -0.38185717440E+02  0.68130605067E+02  0.12532631213E+03  0.00000000000E+00 0.  1.
         12    1    6    6    0    0 -0.36478276434E+02  0.15572231052E+02 -0.13127359628E+02  0.41779021080E+02  0.00000000000E+00 0. -1.
         -5    1    3    3    0  503  0.17791588768E+03  0.63059866003E+02  0.52179543604E+03  0.55490825986E+03  0.47000000000E+01 0.  1.
         11    1    4    4    0    0  0.15195620429E+02  0.50798488222E+02  0.15389404778E+03  0.16277214512E+03  0.00000000000E+00 0. -1.
        -12    1    4    4    0    0  0.10167443475E+03  0.56557278836E+02  0.70608384057E+03  0.71560520288E+03  0.00000000000E+00 0.  1.
</event>
<event>
12    1  0.1066489E+000  0.1725232E+03  0.7818608E-02  0.1175296E+00
         21   -1    0    0  501  502  0.00000000000E+00  0.00000000000E+00  0.15351322860E+03  0.15351322860E+03  0.00000000000E+00 0. -1.
         21   -1    0    0  502  503 -0.00000000000E+00 -0.00000000000E+00 -0.26234665892E+03  0.26234665892E+03  0.00000000000E+00 0. -1.
         -6    2    1    2    0  503 -0.13424304027E+02 -0.17435836432E+02  0.51959846482E+02  0.18017794083E+03  0.17111412679E+03 0.  0.
        -24    2    3    3    0    0  0.13111500528E+02 -0.46374489631E+02  0.86516322869E+02  0.12766285126E+03  0.80561931054E+02 0.  0.
          6    2    1    2  501    0  0.13424304027E+02  0.17435836432E+02 -0.16079327680E+03  0.23568194669E+03  0.17090138034E+03 0.  0.
         24    2    5    5    0    0 -0.30591125704E+02  0.58486786229E+02 -0.13456549463E+03  0.16986002716E+03  0.79925185926E+02 0.  0.
          5    1    5    5  501    0  0.44015429731E+02 -0.41050949797E+02 -0.26227782171E+02  0.65821919535E+02  0.47000000000E+01 0. -1.
        -13    1    6    6    0    0 -0.17466923025E+02 -0.18410333790E+02 -0.27940042156E+02  0.37744930069E+02  0.00000000000E+00 0.  1.
         14    1    6    6    0    0 -0.13124202679E+02  0.76897120019E+02 -0.10662545248E+03  0.13211509709E+03  0.00000000000E+00 0. -1.
         -5    1    3    3    0  503 -0.26535804555E+02  0.28938653199E+02 -0.34556476387E+02  0.52515089571E+02  0.47000000000E+01 0.  1.
         13    1    4    4    0    0 -0.21606223137E+02  0.12260827399E+02  0.15710928424E+02  0.29393707468E+02  0.00000000000E+00 0. -1.
        -14    1    4    4    0    0  0.34717723665E+02 -0.58635317030E+02  0.70805394445E+02  0.98269143795E+02  0.00000000000E+00 0.  1.
</event>
<event>
12    1  0.1066489E+000  0.1786787E+03  0.7818608E-02  0.1169211E+00
         21   -1    0    0  503  502  0.00000000000E+00  0.00000000000E+00  0.20001440922E+02  0.20001440922E+02  0.00000000000E+00 0.  1.
         21   -1    0    0  501  503 -0.00000000000E+00 -0.00000000000E+00 -0.16416952571E+04  0.16416952571E+04  0.00000000000E+00 0.  1.
          6    2    1    2  501    0 -0.31341474360E+02  0.32522021475E+02 -0.95692082908E+03  0.97345958290E+03  0.17287601486E+03 0.  0.
         24    2    3    3    0    0  0.64142831078E+01  0.70812799850E+02 -0.39617668139E+03  0.41012329781E+03  0.78673762322E+02 0.  0.
         -6    2    1    2    0  502  0.31341474360E+02 -0.32522021475E+02 -0.66477298711E+03  0.68823711514E+03  0.17235786133E+03 0.  0.
        -24    2    5    5    0    0  0.54892426284E+02 -0.73942908822E-01 -0.62172990461E+03  0.62922591204E+03  0.79774621107E+02 0.  0.
          5    1    3    3  501    0 -0.37755757468E+02 -0.38290778375E+02 -0.56074414769E+03  0.56333628509E+03  0.47000000000E+01 0. -1.
        -11    1    4    4    0    0  0.35350555248E+02  0.16090904699E+02 -0.21965684947E+03  0.22306436401E+03  0.00000000000E+00 0.  1.
         12    1    4    4    0    0 -0.28936272140E+02  0.54721895151E+02 -0.17651983192E+03  0.18705893380E+03  0.00000000000E+00 0. -1.
         -5    1    5    5    0  502 -0.23550951924E+02 -0.32448078566E+02 -0.43043082506E+02  0.59011203095E+02  0.47000000000E+01 0.  1.
         11    1    6    6    0    0 -0.34839421642E+01 -0.24795596522E+02 -0.31611163123E+03  0.31710175474E+03  0.00000000000E+00 0. -1.
        -12    1    6    6    0    0  0.58376368448E+02  0.24721653613E+02 -0.30561827338E+03  0.31212415730E+03  0.00000000000E+00 0.  1.
</event>
<event>
12    1  0.1066489E+000  0.2032697E+03  0.7818608E-02  0.1147149E+00
         21   -1    0    0  503  502  0.00000000000E+00  0.00000000000E+00  0.34746405467E+03  0.34746405467E+03  0.00000000000E+00 0. -1.
         21   -1    0    0  501  503 -0.00000000000E+00 -0.00000000000E+00 -0.20958125759E+03  0.20958125759E+03  0.00000000000E+00 0. -1.
          6    2    1    2  501    0 -0.89115164380E+02  0.60859143891E+02 -0.11471328732E+03  0.23281799760E+03  0.17146350574E+03 0.  0.
         24    2    3    3    0    0  0.15880879583E+02  0.42491464809E+02 -0.69285409630E+02  0.11685540469E+03  0.82443863931E+02 0.  0.
         -6    2    1    2    0  502  0.89115164380E+02 -0.60859143891E+02  0.25259608439E+03  0.32422731466E+03  0.17225917046E+03 0.  0.
        -24    2    5    5    0    0  0.12215567792E+03 -0.50997149004E+02  0.15007304488E+03  0.21595913786E+03  0.81201672204E+02 0.  0.
          5    1    3    3  501    0 -0.10499604396E+03  0.18367679082E+02 -0.45427877687E+02  0.11596259291E+03  0.47000000000E+01 0. -1.
        -11    1    4    4    0    0 -0.22524014492E+02  0.49684063697E+02 -0.34524987550E+02  0.64558594932E+02  0.00000000000E+00 0.  1.
         12    1    4    4    0    0  0.38404894075E+02 -0.71925988884E+01 -0.34760422081E+02  0.52296809759E+02  0.00000000000E+00 0. -1.
         -5    1    5    5    0  502 -0.33040513544E+02 -0.98619948871E+01  0.10252303951E+03  0.10826817681E+03  0.47000000000E+01 0.  1.
         13    1    6    6    0    0  0.64231284358E+02 -0.17411849069E+02  0.19710934405E+02  0.69407141660E+02  0.00000000000E+00 0. -1.
        -14    1    6    6    0    0  0.57924393566E+02 -0.33585299934E+02  0.13036211048E+03  0.14655199620E+03  0.00000000000E+00 0.  1.
</event>
<event>
12    1  0.1066489E+000  0.1913889E+03  0.7818608E-02  0.1158057E+00
         21   -1    0    0  503  502  0.00000000000E+00  0.00000000000E+00  0.10091629926E+03  0.10091629926E+03  0.00000000000E+00 0.  1.
         21   -1    0    0  501  503 -0.00000000000E+00 -0.00000000000E+00 -0.41291952445E+03  0.41291952445E+03  0.00000000000E+00 0.  1.
          6    2    1    2  501    0 -0.63578712927E+02 -0.38088809770E+02 -0.25012393996E+03  0.31269222444E+03  0.17239904791E+03 0.  0.
         24    2    3    3    0    0 -0.93929798829E+02 -0.16222388215E+02 -0.10589903951E+03  0.16362096391E+03  0.80444019505E+02 0.  0.
         -6    2    1    2    0  502  0.63578712927E+02  0.38088809770E+02 -0.61879285230E+02  0.20114359927E+03  0.17645591919E+03 0.  0.
        -24    2    5    5    0    0  0.46348366639E+02 -0.29353271321E+02 -0.91341563416E+02  0.12541094468E+03  0.66142559752E+02 0.  0.
          5    1    3    3  501    0  0.30351085902E+02 -0.21866421555E+02 -0.14422490045E+03  0.14907126053E+03  0.47000000000E+01 0. -1.
        -11    1    4    4    0    0 -0.17636468635E+02  0.15012478551E+00  0.12644150303E+02  0.21701200433E+02  0.00000000000E+00 0.  1.
         12    1    4    4    0    0 -0.76293330195E+02 -0.16372513001E+02 -0.11854318981E+03  0.14191976348E+03  0.00000000000E+00 0. -1.
         -5    1    5    5    0  502  0.17230346288E+02  0.67442081091E+02  0.29462278186E+02  0.75732654588E+02  0.47000000000E+01 0.  1.
         11    1    6    6    0    0  0.19870301081E+02 -0.47334497399E+02 -0.40742665292E+02  0.65538906645E+02  0.00000000000E+00 0. -1.
        -12    1    6    6    0    0  0.26478065558E+02  0.17981226078E+02 -0.50598898123E+02  0.59872038033E+02  0.00000000000E+00 0.  1.
</event>
<event>
12    1  0.1066489E+000  0.3016133E+03  0.7818608E-02  0.1084457E+00
         21   -1    0    0  503  502  0.00000000000E+00  0.00000000000E+00  0.32134576676E+03  0.32134576676E+03  0.00000000000E+00 0.  1.
         21   -1    0    0  501  503 -0.00000000000E+00 -0.00000000000E+00 -0.41383026946E+03  0.41383026946E+03  0.00000000000E+00 0.  1.
          6    2    1    2  501    0  0.15269807869E+03 -0.19489536041E+03  0.16048108968E+03  0.34165007475E+03  0.17224891491E+03 0.  0.
         24    2    3    3    0    0  0.13665128135E+03 -0.65761893574E+02  0.96106448921E+02  0.19639465717E+03  0.79600329773E+02 0.  0.
         -6    2    1    2    0  502 -0.15269807869E+03  0.19489536041E+03 -0.25296559238E+03  0.39352596146E+03  0.17195984030E+03 0.  0.
        -24    2    5    5    0    0 -0.13239757419E+02  0.35572128363E+02 -0.82248863409E+02  0.12149874372E+03  0.80971610469E+02 0.  0.
          5    1    3    3  501    0  0.16046797336E+02 -0.12913346684E+03  0.64374640756E+02  0.14525541758E+03  0.47000000000E+01 0. -1.
        -13    1    4    4    0    0  0.30210894294E+02  0.12825221591E+02  0.42359060641E+02  0.53586140571E+02  0.00000000000E+00 0.  1.
         14    1    4    4    0    0  0.10644038706E+03 -0.78587115164E+02  0.53747388280E+02  0.14280851660E+03  0.00000000000E+00 0. -1.
         -5    1    5    5    0  502 -0.13945832127E+03  0.15932323205E+03 -0.17071672897E+03  0.27202721774E+03  0.47000000000E+01 0.  1.
         13    1    6    6    0    0  0.19099779522E+02  0.50026709374E+02 -0.43426530131E+02  0.68944446823E+02  0.00000000000E+00 0. -1.
        -14    1    6    6    0    0 -0.32339536940E+02 -0.14454581011E+02 -0.38822333278E+02  0.52554296902E+02  0.00000000000E+00 0.  1.
</event>
<event>
12    1  0.1066489E+000  0.1849967E+03  0.7818608E-02  0.1165984E+00
         21   -1    0    0  501  502  0.00000000000E+00  0.00000000000E+00  0.84607661586E+02  0.84607661586E+02  0.00000000000E+00 0.  1.
         21   -1    0    0  502  503 -0.00000000000E+00 -0.00000000000E+00 -0.63286068552E+03  0.63286068552E+03  0.00000000000E+00 0.  1.
         -6    2    1    2    0  503 -0.28627574748E+02  0.21926477219E+02 -0.41213294840E+02  0.17773409569E+03  0.16908744679E+03 0.  0.
        -24    2    3    3    0    0  0.31112900441E+02  0.57143916867E+02 -0.19616653119E+02  0.10494881308E+03  0.79974999085E+02 0.  0.
          6    2    1    2  501    0  0.28627574748E+02 -0.21926477219E+02 -0.50703972909E+03  0.53973425141E+03  0.18144824835E+03 0.  0.
         24    2    5    5    0    0  0.40103999425E+02 -0.18175231033E+02 -0.67940851539E+02  0.10044426241E+03  0.59450994521E+02 0.  0.
          5    1    5    5  501    0 -0.11476424677E+02 -0.37512461868E+01 -0.43909887755E+03  0.43928998900E+03  0.47000000000E+01 0. -1.
        -11    1    6    6    0    0  0.15011604041E+02 -0.19405526480E+02 -0.71015721621E+02  0.75134249388E+02  0.00000000000E+00 0.  1.
         12    1    6    6    0    0  0.25092395384E+02  0.12302954471E+01  0.30748700810E+01  0.25310013019E+02  0.00000000000E+00 0. -1.
         -5    1    3    3    0  503 -0.59740475189E+02 -0.35217439648E+02 -0.21596641721E+02  0.72785282612E+02  0.47000000000E+01 0.  1.
         13    1    4    4    0    0  0.11548070248E+02  0.55366822699E+02  0.20597827457E+02  0.60192304144E+02  0.00000000000E+00 0. -1.
        -14    1    4    4    0    0  0.19564830194E+02  0.17770941683E+01 -0.40214480576E+02  0.44756508937E+02  0.00000000000E+00 0.  1.
</event>
<event>
12    1  0.1066489E+000  0.1888183E+03  0.7818608E-02  0.1159838E+00
         21   -1    0    0  501  502  0.00000000000E+00  0.00000000000E+00  0.31071984969E+03  0.31071984969E+03  0.00000000000E+00 0. -1.
         21   -1    0    0  502  503 -0.00000000000E+00 -0.00000000000E+00 -0.19737367428E+03  0.19737367428E+03  0.00000000000E+00 0. -1.
         -6    2    1    2    0  503  0.76108645657E+02 -0.17991956226E+01  0.22174180366E+03  0.29037357267E+03  0.17132314837E+03 0.  0.
        -24    2    3    3    0    0  0.54668134200E+02  0.45714997807E+02  0.21096940117E+03  0.23693736056E+03  0.80949111670E+02 0.  0.
          6    2    1    2  501    0 -0.76108645657E+02  0.17991956226E+01 -0.10839562825E+03  0.21771995130E+03  0.17279063031E+03 0.  0.
         24    2    5    5    0    0 -0.24943360883E+02 -0.64324223079E+02 -0.64920117051E+02  0.12336740528E+03  0.79026060015E+02 0.  0.
          5    1    5    5  501    0 -0.51165284774E+02  0.66123418701E+02 -0.43475511198E+02  0.94352546021E+02  0.47000000000E+01 0. -1.
        -11    1    6    6    0    0 -0.25794837714E+02 -0.17270626973E+02 -0.69466439307E+02  0.76087018596E+02  0.00000000000E+00 0.  1.
         12    1    6    6    0    0  0.85147683150E+00 -0.47053596105E+02  0.45463222559E+01  0.47280386687E+02  0.00000000000E+00 0. -1.
         -5    1    3    3    0  503  0.21440511458E+02 -0.47514193429E+02  0.10772402491E+02  0.53436212106E+02  0.47000000000E+01 0.  1.
         11    1    4    4    0    0  0.50036274507E+02  0.12318840841E+02  0.47685599433E+02  0.70208966661E+02  0.00000000000E+00 0. -1.
        -12    1    4    4    0    0  0.46318596924E+01  0.33396156966E+02  0.16328380174E+03  0.16672839390E+03  0.00000000000E+00 0.  1.
</event>
<event>
12    1  0.1066489E+000  0.2533794E+03  0.7818608E-02  0.1111194E+00
         21   -1    0    0  501  502  0.00000000000E+00  0.00000000000E+00  0.92813809869E+02  0.92813809869E+02  0.00000000000E+00 0.  1.
         21   -1    0    0  502  503 -0.00000000000E+00 -0.00000000000E+00 -0.97547753081E+03  0.97547753081E+03  0.00000000000E+00 0.  1.
         -6    2    1    2    0  503 -0.15850263531E+03  0.96815699493E+02 -0.72950234386E+03  0.77225306729E+03  0.17235070404E+03 0.  0.
        -24    2    3    3    0    0 -0.48207475728E+01  0.35577879592E+02 -0.28305973975E+03  0.29612148677E+03  0.79221799647E+02 0.  0.
          6    2    1    2  501    0  0.15850263531E+03 -0.96815699493E+02 -0.15316137708E+03  0.29603827338E+03  0.17229012394E+03 0.  0.
         24    2    5    5    0    0  0.11471916630E+03  0.36999465566E+01 -0.58041559168E+02  0.15081342351E+03  0.78750805714E+02 0.  0.
          5    1    5    5  501    0  0.43783469016E+02 -0.10051564605E+03 -0.95119817914E+02  0.14522484987E+03  0.47000000000E+01 0. -1.
        -13    1    6    6    0    0  0.18350867149E+02  0.33608828031E+02 -0.16323813844E+02  0.41626608620E+02  0.00000000000E+00 0.  1.
         14    1    6    6    0    0  0.96368299148E+02 -0.29908881474E+02 -0.41717745324E+02  0.10918681489E+03  0.00000000000E+00 0. -1.
         -5    1    3    3    0  503 -0.15368188774E+03  0.61237819901E+02 -0.44644260411E+03  0.47613158052E+03  0.47000000000E+01 0.  1.
         11    1    4    4    0    0 -0.36939697655E+02  0.11732756463E+02 -0.76883059364E+02  0.86099963149E+02  0.00000000000E+00 0. -1.
        -12    1    4    4    0    0  0.32118950082E+02  0.23845123129E+02 -0.20617668038E+03  0.21002152362E+03  0.00000000000E+00 0.  1.
</event>
<event>
12    1  0.1066489E+000  0.2294495E+03  0.7818608E-02  0.1127324E+00
         21   -1    0    0  501  502  0.00000000000E+00  0.00000000000E+00  0.34575662552E+03  0.34575662552E+03  0.00000000000E+00 0. -1.
         21   -1    0    0  502  503 -0.00000000000E+00 -0.00000000000E+00 -0.15361386205E+03  0.15361386205E+03  0.00000000000E+00 0. -1.
         -6    2    1    2    0  503  0.12614988367E+03  0.80708845465E+02  0.12799206177E+03  0.26273380857E+03  0.17383720950E+03 0.  0.
        -24    2    3    3    0    0  0.11329279561E+03  0.30867208376E+02  0.20016031171E+02  0.14302413192E+03  0.79165767334E+02 0.  0.
          6    2    1    2  501    0 -0.12614988367E+03 -0.80708845465E+02  0.64150701711E+02  0.23663667899E+03  0.17162136938E+03 0.  0.
         24    2    5    5    0    0 -0.49130936395E+02 -0.83933771852E+02  0.90686065835E+02  0.15497558704E+03  0.79591099208E+02 0.  0.
          5    1    5    5  501    0 -0.77018947278E+02  0.32249263861E+01 -0.26535364124E+02  0.81661091954E+02  0.47000000000E+01 0. -1.
        -11    1    6    6    0    0 -0.69547869349E+02 -0.55327922110E+02  0.53137093138E+02  0.10354533192E+03  0.00000000000E+00 0.  1.
         12    1    6    6    0    0  0.20416932953E+02 -0.28605849741E+02  0.37548972696E+02  0.51430255115E+02  0.00000000000E+00 0. -1.
         -5    1    3    3    0  503  0.12857088059E+02  0.49841637090E+02  0.10797603059E+03  0.11970967665E+03  0.47000000000E+01 0.  1.
         11    1    4    4    0    0  0.11823601010E+03  0.44579947872E+02  0.22164122894E+02  0.12829019518E+03  0.00000000000E+00 0. -1.
        -12    1    4    4    0    0 -0.49432144816E+01 -0.13712739497E+02 -0.21480917227E+01  0.14733936743E+02  0.00000000000E+00 0.  1.
</event>
<event>
12    1  0.1066489E+000  0.2076183E+03  0.7818608E-02  0.1143632E+00
         21   -1    0    0  501  502  0.00000000000E+00  0.00000000000E+00  0.88383759868E+02  0.88383759868E+02  0.00000000000E+00 0.  1.
         21   -1    0    0  502  503 -0.00000000000E+00 -0.00000000000E+00 -0.59292150206E+03  0.59292150206E+03  0.00000000000E+00 0.  1.
         -6    2    1    2    0  503 -0.73781853415E+02 -0.87878154800E+02 -0.10704955509E+03  0.23286105770E+03  0.17204166055E+03 0.  0.
        -24    2    3    3    0    0 -0.11271874022E+03 -0.87637174709E+02 -0.88328325657E+02  0.18940172434E+03  0.87666021242E+02 0.  0.
          6    2    1    2  501    0  0.73781853415E+02  0.87878154800E+02 -0.39748818710E+03  0.44844420423E+03  0.17302893814E+03 0.  0.
         24    2    5    5    0    0 -0.26967182282E+02  0.43928738710E+02 -0.22071528094E+03  0.24023116495E+03  0.79616671439E+02 0.  0.
          5    1    5    5  501    0  0.10074903570E+03  0.43949416090E+02 -0.17677290617E+03  0.20821303927E+03  0.47000000000E+01 0. -1.
        -13    1    6    6    0    0 -0.42373118099E+01  0.17109864124E+02 -0.19708600282E+03  0.19787267312E+03  0.00000000000E+00 0.  1.
         14    1    6    6    0    0 -0.22729870472E+02  0.26818874586E+02 -0.23629278116E+02  0.42358491829E+02  0.00000000000E+00 0. -1.
         -5    1    3    3    0  503  0.38936886803E+02 -0.24098009079E+00 -0.18721229433E+02  0.43459333368E+02  0.47000000000E+01 0.  1.
         13    1    4    4    0    0 -0.32114232758E+02  0.16137214091E+02 -0.15204163586E+02  0.39024354122E+02  0.00000000000E+00 0. -1.
        -14    1    4    4    0    0 -0.80604507460E+02 -0.10377438880E+03 -0.73124162071E+02  0.15037737021E+03  0.00000000000E+00 0.  1.
</event>
<event>
12    1  0.1530252E+000  0.3301705E+03  0.7818608E-02  0.1071160E+00
         21   -1    0    0  501  502  0.00000000000E+00  0.00000000000E+00  0.48054546912E+03  0.48054546912E+03  0.00000000000E+00 0. -1.
         21   -1    0    0  502  503 -0.00000000000E+00 -0.00000000000E+00 -0.39260470631E+03  0.39260470631E+03  0.00000000000E+00 0. -1.
         -6    2    1    2    0  503  0.21097143312E+03  0.18609511373E+03  0.32812872062E+03  0.46485760576E+03  0.17112509865E+03 0.  0.
        -24    2    3    3    0    0  0.20254508087E+03  0.96525960417E+02  0.25365723717E+03  0.34797420879E+03  0.80014281218E+02 0.  0.
          6    2    1    2  501    0 -0.21097143312E+03 -0.18609511373E+03 -0.24018795781E+03  0.40829256967E+03  0.17283584821E+03 0.  0.
         24    2    5    5    0    0 -0.15159815300E+03 -0.68320010334E+02 -0.19763527277E+03  0.26962396336E+03  0.77380596853E+02 0.  0.
          5    1    5    5  501    0 -0.59373280113E+02 -0.11777510340E+03 -0.42552685042E+02  0.13866860631E+03  0.47000000000E+01 0. -1.
        -13    1    6    6    0    0 -0.10199794627E+03 -0.55199518439E+02 -0.78878710355E+02  0.14025840020E+03  0.00000000000E+00 0.  1.
         14    1    6    6    0    0 -0.49600206737E+02 -0.13120491896E+02 -0.11875656242E+03  0.12936556317E+03  0.00000000000E+00 0. -1.
         -5    1    3    3    0  503  0.84263522444E+01  0.89569153317E+02  0.74471483457E+02  0.11688339697E+03  0.47000000000E+01 0.  1.
         13    1    4    4    0    0  0.21173505696E+02 -0.13323903984E+02  0.38303497121E+02  0.45749334995E+02  0.00000000000E+00 0. -1.
        -14    1    4    4    0    0  0.18137157518E+03  0.10984986440E+03  0.21535374005E+03  0.30222487380E+03  0.00000000000E+00 0.  1.
</event>
<event>
12    1  0.1066489E+000  0.1956821E+03  0.7818608E-02  0.1153657E+00
         21   -1    0    0  503  502  0.00000000000E+00  0.00000000000E+00  0.22727725961E+03  0.22727725961E+03  0.00000000000E+00 0. -1.
         21   -1    0    0  501  503 -0.00000000000E+00 -0.00000000000E+00 -0.16761734535E+03  0.16761734535E+03  0.00000000000E+00 0. -1.
          6    2    1    2  501    0  0.81748964115E+02  0.40187506730E+02  0.27840419613E+02  0.19765263993E+03  0.17318645523E+03 0.  0.
         24    2    3    3    0    0  0.15203831158E+02 -0.41271460816E+02  0.86276224017E+01  0.90624420794E+02  0.78764584784E+02 0.  0.
         -6    2    1    2    0  502 -0.81748964115E+02 -0.40187506730E+02  0.31819494648E+02  0.19724196503E+03  0.17202901993E+03 0.  0.
        -24    2    5    5    0    0 -0.24053892366E+02 -0.77145864685E+02  0.53828044521E+02  0.12512325875E+03  0.78919562394E+02 0.  0.
          5    1    3    3  501    0  0.66545132957E+02  0.81458967546E+02  0.19212797211E+02  0.10702821913E+03  0.47000000000E+01 0. -1.
        -13    1    4    4    0    0  0.13382187198E+02 -0.15754192615E+02 -0.34652270756E+02  0.40349193148E+02  0.00000000000E+00 0.  1.
         14    1    4    4    0    0  0.18216439602E+01 -0.25517268201E+02  0.43279893158E+02  0.50275227646E+02  0.00000000000E+00 0. -1.
         -5    1    5    5    0  502 -0.57695071749E+02  0.36958357954E+02 -0.22008549873E+02  0.72118706272E+02  0.47000000000E+01 0.  1.
         13    1    6    6    0    0 -0.45182243036E+02 -0.16784900401E+02  0.15819055117E+02  0.50728793323E+02  0.00000000000E+00 0. -1.
        -14    1    6    6    0    0  0.21128350670E+02 -0.60360964283E+02  0.38008989404E+02  0.74394465431E+02  0.00000000000E+00 0.  1.
</event>
<event>
12    1  0.1066489E+000  0.1726744E+03  0.7818608E-02  0.1175133E+00
         21   -1    0    0  503  502  0.00000000000E+00  0.00000000000E+00  0.59816437315E+03  0.59816437315E+03  0.00000000000E+00 0.  1.
         21   -1    0    0  501  503 -0.00000000000E+00 -0.00000000000E+00 -0.10137384520E+03  0.10137384520E+03  0.00000000000E+00 0.  1.
          6    2    1    2  501    0  0.20282849185E+02 -0.13188509679E+02  0.49795109054E+03  0.52704055627E+03  0.17097113390E+03 0.  0.
         24    2    3    3    0    0  0.74982375070E+02 -0.73346437430E+00  0.40089607008E+03  0.41484014057E+03  0.75840547781E+02 0.  0.
         -6    2    1    2    0  502 -0.20282849185E+02  0.13188509679E+02 -0.11605625804E+01  0.17249766208E+03  0.17078865817E+03 0.  0.
        -24    2    5    5    0    0 -0.14703053654E+02  0.14192159645E+02  0.65358087627E+02  0.10557261254E+03  0.80351102778E+02 0.  0.
          5    1    3    3  501    0 -0.54699525885E+02 -0.12455045305E+02  0.97055020461E+02  0.11220041570E+03  0.47000000000E+01 0. -1.
        -13    1    4    4    0    0  0.98753358965E+01 -0.28689820928E+02  0.67621657985E+02  0.74116912460E+02  0.00000000000E+00 0.  1.
         14    1    4    4    0    0  0.65107039173E+02  0.27956356554E+02  0.33327441209E+03  0.34072322811E+03  0.00000000000E+00 0. -1.
         -5    1    5    5    0  502 -0.55797955311E+01 -0.10036499653E+01 -0.66518650207E+02  0.66925049546E+02  0.47000000000E+01 0.  1.
         11    1    6    6    0    0  0.29623116592E+02  0.11069647503E+02  0.48802286255E+02  0.58152637740E+02  0.00000000000E+00 0. -1.
        -12    1    6    6    0    0 -0.44326170246E+02  0.31225121417E+01  0.16555801372E+02  0.47419974797E+02  0.00000000000E+00 0.  1.
</event>
<event>
12    1  0.1066489E+000  0.2457514E+03  0.7818608E-02  0.1116490E+00
         21   -1    0    0  503  502  0.00000000000E+00  0.00000000000E+00  0.24082426442E+04  0.24082426442E+04  0.00000000000E+00 0.  1.
         21   -1    0    0  501  503 -0.00000000000E+00 -0.00000000000E+00 -0.25061842140E+02  0.25061842140E+02  0.00000000000E+00 0.  1.
          6    2    1    2  501    0  0.16730558460E+03  0.52484849326E+02  0.10703113025E+04  0.10981621278E+04  0.17218582000E+03 0.  0.
         24    2    3    3    0    0  0.18268535994E+03  0.45899789267E+02  0.10563665128E+04  0.10758810222E+04  0.78288142590E+02 0.  0.
         -6    2    1    2    0  502 -0.16730558460E+03 -0.52484849326E+02  0.13128694995E+04  0.13351423585E+04  0.16802671414E+03 0.  0.
        -24    2    5    5    0    0 -0.13211098744E+03 -0.56993235536E+02  0.12641969476E+04  0.12747263629E+04  0.77664895898E+02 0.  0.
          5    1    3    3  501    0 -0.15379775337E+02  0.65850600591E+01  0.13944789750E+02  0.22281105596E+02  0.47000000000E+01 0. -1.
        -13    1    4    4    0    0  0.16275866093E+03  0.64471290666E+02  0.95530615537E+03  0.97121407502E+03  0.00000000000E+00 0.  1.
         14    1    4    4    0    0  0.19926699010E+02 -0.18571501398E+02  0.10106035743E+03  0.10466694722E+03  0.00000000000E+00 0. -1.
         -5    1    5    5    0  502 -0.35194597166E+02  0.45083862095E+01  0.48672551965E+02  0.60415995653E+02  0.47000000000E+01 0.  1.
         11    1    6    6    0    0 -0.10195902960E+03 -0.15707566163E+02  0.62192458880E+03  0.63042252934E+03  0.00000000000E+00 0. -1.
        -12    1    6    6    0    0 -0.30151957841E+02 -0.41285669373E+02  0.64227235876E+03  0.64430383352E+03  0.00000000000E+00 0.  1.
</event>
<event>
12    1  0.1066489E+000  0.2637045E+03  0.7818608E-02  0.1105000E+00
         21   -1    0    0  501  502  0.00000000000E+00  0.00000000000E+00  0.12142538254E+03  0.12142538254E+03  0.00000000000E+00 0.  1.
         21   -1    0    0  502  503 -0.00000000000E+00 -0.00000000000E+00 -0.20744560058E+04  0.20744560058E+04  0.00000000000E+00 0.  1.
         -6    2    1    2    0  503  0.93132342435E+02 -0.17519968822E+03 -0.42274379598E+02  0.26707149112E+03  0.17369943649E+03 0.  0.
        -24    2    3    3    0    0  0.95896752554E+02 -0.52917546004E+02  0.65275828837E+01  0.13529787536E+03  0.79160924151E+02 0.  0.
          6    2    1    2  501    0 -0.93132342435E+02  0.17519968822E+03 -0.19107562437E+04  0.19288098972E+04  0.17305962257E+03 0.  0.
         24    2    5    5    0    0 -0.98970492712E+02  0.72472847737E+02 -0.79912272747E+03  0.81241478254E+03  0.79832156737E+02 0.  0.
          5    1    5    5  501    0  0.58381502771E+01  0.10272684049E+03 -0.11116335162E+04  0.11163951147E+04  0.47000000000E+01 0. -1.
        -13    1    6    6    0    0 -0.10019348571E+02 -0.95445310653E+01 -0.23770096494E+03  0.23810341063E+03  0.00000000000E+00 0.  1.
         14    1    6    6    0    0 -0.88951144141E+02  0.82017378802E+02 -0.56142176252E+03  0.57431137191E+03  0.00000000000E+00 0. -1.
         -5    1    3    3    0  503 -0.27644101189E+01 -0.12228214222E+03 -0.48801962482E+02  0.13177361576E+03  0.47000000000E+01 0.  1.
         13    1    4    4    0    0  0.55790247314E+02 -0.70475384873E+02  0.13731051355E+02  0.90927846888E+02  0.00000000000E+00 0. -1.
        -14    1    4    4    0    0  0.40106505239E+02  0.17557838870E+02 -0.72034684715E+01  0.44370028469E+02  0.00000000000E+00 0.  1.
</event>
<event>
12    1  0.1066489E+000  0.2422294E+03  0.7818608E-02  0.1118378E+00
         21   -1    0    0  503  502  0.00000000000E+00  0.00000000000E+00  0.35747411536E+03  0.35747411536E+03  0.00000000000E+00 0.  1.
         21   -1    0    0  501  503 -0.00000000000E+00 -0.00000000000E+00 -0.16388373081E+03  0.16388373081E+03  0.00000000000E+00 0.  1.
          6    2    1    2  501    0 -0.70282658714E+02  0.15466610887E+03  0.97015685397E+02  0.26058635609E+03  0.17213932851E+03 0.  0.
         24    2    3    3    0    0  0.55694645780E+01  0.13432836386E+03  0.35219987973E+02  0.16054653052E+03  0.80371715403E+02 0.  0.
         -6    2    1    2    0  502  0.70282658714E+02 -0.15466610887E+03  0.96574699147E+02  0.26077149008E+03  0.17266684736E+03 0.  0.
        -24    2    5    5    0    0  0.48188846311E+02 -0.18303567019E+03  0.76512321293E+02  0.21932806405E+03  0.80165097782E+02 0.  0.
          5    1    3    3  501    0 -0.75852123292E+02  0.20337745012E+02  0.61795697424E+02  0.10003982557E+03  0.47000000000E+01 0. -1.
        -11    1    4    4    0    0  0.11810376004E+02 -0.48816188204E+01  0.15051215749E+02  0.19744727884E+02  0.00000000000E+00 0.  1.
         12    1    4    4    0    0 -0.62409114264E+01  0.13920998268E+03  0.20168772224E+02  0.14080180263E+03  0.00000000000E+00 0. -1.
         -5    1    5    5    0  502  0.22093812403E+02  0.28369561319E+02  0.20062377854E+02  0.41443426029E+02  0.47000000000E+01 0.  1.
         13    1    6    6    0    0  0.62525831964E+02 -0.81233214391E+02  0.32986000046E+02  0.10768654039E+03  0.00000000000E+00 0. -1.
        -14    1    6    6    0    0 -0.14336985653E+02 -0.10180245580E+03  0.43526321248E+02  0.11164152366E+03  0.00000000000E+00 0.  1.
</event>
<event>
12    1  0.1066489E+000  0.1878003E+03  0.7818608E-02  0.1162106E+00
         21   -1    0    0  503  502  0.00000000000E+00  0.00000000000E+00  0.31671560895E+03  0.31671560895E+03  0.00000000000E+00 0. -1.
         21   -1    0    0  501  503 -0.00000000000E+00 -0.00000000000E+00 -0.12356533099E+03  0.12356533099E+03  0.00000000000E+00 0. -1.
          6    2    1    2  501    0  0.46395377441E+02  0.59368275604E+02  0.17822835009E+03  0.25890983369E+03  0.17202277178E+03 0.  0.
         24    2    3    3    0    0 -0.77751956002E+01  0.13258279446E+02  0.16632026681E+03  0.18662930259E+03  0.83257611014E+02 0.  0.
         -6    2    1    2    0  502 -0.46395377441E+02 -0.59368275604E+02  0.14921927870E+02  0.18137110625E+03  0.16430365503E+03 0.  0.
        -24    2    5    5    0    0 -0.62923616840E+02 -0.77536062251E+02  0.48648389041E+02  0.13938521157E+03  0.84204209763E+02 0.  0.
          5    1    3    3  501    0  0.54170573042E+02  0.46109996158E+02  0.11908083283E+02  0.72280531105E+02  0.47000000000E+01 0. -1.
        -11    1    4    4    0    0  0.19781360823E+02  0.38891998356E+02  0.11490958930E+03  0.12291502546E+03  0.00000000000E+00 0.  1.
         12    1    4    4    0    0 -0.27556556423E+02 -0.25633718910E+02  0.51410677512E+02  0.63714277123E+02  0.00000000000E+00 0. -1.
         -5    1    5    5    0  502  0.16528239399E+02  0.18167786647E+02 -0.33726461171E+02  0.41985894684E+02  0.47000000000E+01 0.  1.
         11    1    6    6    0    0 -0.10260110164E+02  0.12944787278E+02  0.28251125204E+02  0.32725577971E+02  0.00000000000E+00 0. -1.
        -12    1    6    6    0    0 -0.52663506676E+02 -0.90480849529E+02  0.20397263837E+02  0.10665963360E+03  0.00000000000E+00 0.  1.
</event>
<event>
12    1  0.1066489E+000  0.2110379E+03  0.7818608E-02  0.1141392E+00
         21   -1    0    0  503  502  0.00000000000E+00  0.00000000000E+00  0.12253984128E+03  0.12253984128E+03  0.00000000000E+00 0.  1.
         21   -1    0    0  501  503 -0.00000000000E+00 -0.00000000000E+00 -0.43162979963E+03  0.43162979963E+03  0.00000000000E+00 0.  1.
          6    2    1    2  501    0  0.56376410741E+02 -0.10492402822E+03 -0.39004403571E+02  0.21141140454E+03  0.17025300904E+03 0.  0.
         24    2    3    3    0    0  0.42906912351E+02 -0.56608072734E+02 -0.89963682181E+02  0.13975390655E+03  0.79951318057E+02 0.  0.
         -6    2    1    2    0  502 -0.56376410741E+02  0.10492402822E+03 -0.27008555477E+03  0.34275823637E+03  0.17421151029E+03 0.  0.
        -24    2    5    5    0    0 -0.95291391971E+02  0.35124005901E+02 -0.18696688929E+03  0.22735797020E+03  0.80130417137E+02 0.  0.
          5    1    3    3  501    0  0.13469498390E+02 -0.48315955486E+02  0.50959278610E+02  0.71657497988E+02  0.47000000000E+01 0. -1.
        -11    1    4    4    0    0 -0.96394130003E+00  0.16677494472E+02 -0.14795745178E+01  0.16770722866E+02  0.00000000000E+00 0.  1.
         12    1    4    4    0    0  0.43870853651E+02 -0.73285567206E+02 -0.88484107663E+02  0.12298318369E+03  0.00000000000E+00 0. -1.
         -5    1    5    5    0  502  0.38914981229E+02  0.69800022319E+02 -0.83118665483E+02  0.11540026617E+03  0.47000000000E+01 0.  1.
         13    1    6    6    0    0 -0.34547732157E+02  0.51327132371E+02 -0.12291430034E+03  0.13760794142E+03  0.00000000000E+00 0. -1.
        -14    1    6    6    0    0 -0.60743659814E+02 -0.16203126470E+02 -0.64052588946E+02  0.89750028779E+02  0.00000000000E+00 0.  1.
</event>
<event>
12    1  0.1066489E+000  0.2110751E+03  0.7818608E-02  0.1140791E+00
         21   -1    0    0  503  502  0.00000000000E+00  0.00000000000E+00  0.33432816148E+03  0.33432816148E+03  0.00000000000E+00 0. -1.
         21   -1    0    0  501  503 -0.00000000000E+00 -0.00000000000E+00 -0.14045097108E+03  0.14045097108E+03  0.00000000000E+00 0.  1.
          6    2    1    2  501    0  0.83747582718E+02 -0.88593763374E+02  0.15144415501E+03  0.25948105954E+03  0.17185044560E+03 0.  0.
         24    2    3    3    0    0 -0.17811761526E+01 -0.93982059270E+02  0.10039527147E+03  0.15961975153E+03  0.81015149768E+02 0.  0.
         -6    2    1    2    0  502 -0.83747582718E+02  0.88593763374E+02  0.42433035379E+02  0.21529807302E+03  0.17230840152E+03 0.  0.
        -24    2    5    5    0    0 -0.96437426180E+02  0.18147626480E+02  0.61909818566E+02  0.14096688566E+03  0.80058251943E+02 0.  0.
          5    1    3    3  501    0  0.85528758870E+02  0.53882958960E+01  0.51048883543E+02  0.99861308010E+02  0.47000000000E+01 0. -1.
        -11    1    4    4    0    0  0.37830218861E+02 -0.63353296682E+02  0.64574738713E+02  0.98054385621E+02  0.00000000000E+00 0.  1.
         12    1    4    4    0    0 -0.39611395014E+02 -0.30628762589E+02  0.35820532756E+02  0.61565365909E+02  0.00000000000E+00 0. -1.
         -5    1    5    5    0  502  0.12689843462E+02  0.70446136895E+02 -0.19476783186E+02  0.74331187356E+02  0.47000000000E+01 0.  1.
         11    1    6    6    0    0 -0.29129583898E+02  0.20973297917E+02  0.64208584456E+02  0.73560547860E+02  0.00000000000E+00 0. -1.
        -12    1    6    6    0    0 -0.67307842282E+02 -0.28256714375E+01 -0.22987658900E+01  0.67406337805E+02  0.00000000000E+00 0.  1.
</event>
<event>
12    1  0.1066489E+000  0.2717640E+03  0.7818608E-02  0.1100288E+00
         21   -1    0    0  501  502  0.00000000000E+00  0.00000000000E+00  0.25695676982E+04  0.25695676982E+04  0.00000000000E+00 0. -1.
         21   -1    0    0  502  503 -0.00000000000E+00 -0.00000000000E+00 -0.31666380521E+02  0.31666380521E+02  0.00000000000E+00 0. -1.
         -6    2    1    2    0  503 -0.16572215544E+03  0.12943845491E+03  0.87323730507E+03  0.91454857120E+03  0.17215560320E+03 0.  0.
        -24    2    3    3    0    0 -0.17341232027E+03  0.91199626625E+02  0.55442640575E+03  0.59332617760E+03  0.79108210191E+02 0.  0.
          6    2    1    2  501    0  0.16572215544E+03 -0.12943845491E+03  0.16646640126E+04  0.16866855075E+04  0.17199877902E+03 0.  0.
         24    2    5    5    0    0  0.20249024415E+02 -0.84671847929E+02  0.80806258405E+03  0.81665414121E+03  0.79871783462E+02 0.  0.
          5    1    5    5  501    0  0.14547313102E+03 -0.44766606978E+02  0.85660142851E+03  0.87003136626E+03  0.47000000000E+01 0. -1.
        -11    1    6    6    0    0  0.45730873382E+02 -0.64983995883E+02  0.43450841908E+03  0.44171461234E+03  0.00000000000E+00 0.  1.
         12    1    6    6    0    0 -0.25481848967E+02 -0.19687852045E+02  0.37355416497E+03  0.37493952888E+03  0.00000000000E+00 0. -1.
         -5    1    3    3    0  503  0.76901648366E+01  0.38238828282E+02  0.31881089932E+03  0.32122239360E+03  0.47000000000E+01 0.  1.
         13    1    4    4    0    0  0.32308532075E+01  0.18040004161E+02  0.74414533890E+02  0.76638130305E+02  0.00000000000E+00 0. -1.
        -14    1    4    4    0    0 -0.17664317348E+03  0.73159622465E+02  0.48001187186E+03  0.51668804730E+03  0.00000000000E+00 0.  1.
</event>
<event>
12    1  0.1066489E+000  0.2091848E+03  0.7818608E-02  0.1142385E+00
         21   -1    0    0  501  502  0.00000000000E+00  0.00000000000E+00  0.54376236056E+02  0.54376236056E+02  0.00000000000E+00 0. -1.
         21   -1    0    0  502  503 -0.00000000000E+00 -0.00000000000E+00 -0.81558312282E+03  0.81558312282E+03  0.00000000000E+00 0. -1.
         -6    2    1    2    0  503 -0.11744199990E+03  0.24914133952E+02 -0.32406704830E+03  0.38571717104E+03  0.17130366846E+03 0.  0.
        -24    2    3    3    0    0  0.65355005625E+01  0.83173323300E+01 -0.15750082192E+03  0.17736105230E+03  0.80861258849E+02 0.  0.
          6    2    1    2  501    0  0.11744199990E+03 -0.24914133952E+02 -0.43713983846E+03  0.48424218784E+03  0.17025252039E+03 0.  0.
         24    2    5    5    0    0  0.10824646550E+03  0.17079647889E+02 -0.41315476276E+03  0.43479110673E+03  0.79608019912E+02 0.  0.
          5    1    5    5  501    0  0.91955344005E+01 -0.41993781841E+02 -0.23985075704E+02  0.49451081108E+02  0.47000000000E+01 0. -1.
        -13    1    6    6    0    0  0.71545287001E+02 -0.16829041966E+02 -0.32733078855E+03  0.33548083384E+03  0.00000000000E+00 0.  1.
         14    1    6    6    0    0  0.36701178499E+02  0.33908689855E+02 -0.85823974212E+02  0.99310272885E+02  0.00000000000E+00 0. -1.
         -5    1    3    3    0  503 -0.12397750046E+03  0.16596801622E+02 -0.16656622637E+03  0.20835611873E+03  0.47000000000E+01 0.  1.
         11    1    4    4    0    0  0.35906450292E+02  0.28559480027E+02 -0.88445447735E+02  0.99636912322E+02  0.00000000000E+00 0. -1.
        -12    1    4    4    0    0 -0.29370949729E+02 -0.20242147698E+02 -0.69055374188E+02  0.77724139980E+02  0.00000000000E+00 0.  1.
</event>
<event>
12    1  0.1066489E+000  0.2046146E+03  0.7818608E-02  0.1146221E+00
         21   -1    0    0  503  502  0.00000000000E+00  0.00000000000E+00  0.29625235297E+03  0.29625235297E+03  0.00000000000E+00 0. -1.
         21   -1    0    0  501  503 -0.00000000000E+00 -0.00000000000E+00 -0.14095767660E+03  0.14095767660E+03  0.00000000000E+00 0. -1.
          6    2    1    2  501    0 -0.33661655075E+02  0.10196682936E+03  0.61944427973E+02  0.21230697682E+03  0.17235660398E+03 0.  0.
         24    2    3    3    0    0  0.21436289542E+02  0.10419481964E+03  0.78679416936E+02  0.15448918287E+03  0.79752003263E+02 0.  0.
         -6    2    1    2    0  502  0.33661655075E+02 -0.10196682936E+03  0.93350248392E+02  0.22490305275E+03  0.17417454737E+03 0.  0.
        -24    2    5    5    0    0  0.30410531279E+02 -0.16058982618E+02 -0.14066816835E+02  0.87239536018E+02  0.78931425765E+02 0.  0.
          5    1    3    3  501    0 -0.55097944617E+02 -0.22279902785E+01 -0.16734988963E+02  0.57817793951E+02  0.47000000000E+01 0. -1.
        -11    1    4    4    0    0 -0.16664320120E+02 -0.26410198631E+01  0.21897880001E+02  0.27644017427E+02  0.00000000000E+00 0.  1.
         12    1    4    4    0    0  0.38100609662E+02  0.10683583950E+03  0.56781536935E+02  0.12684516544E+03  0.00000000000E+00 0. -1.
         -5    1    5    5    0  502  0.32511237962E+01 -0.85907846743E+02  0.10741706523E+03  0.13766351674E+03  0.47000000000E+01 0.  1.
         13    1    6    6    0    0 -0.45650347350E+01 -0.33435658550E+02 -0.29910839128E+02  0.45093692488E+02  0.00000000000E+00 0. -1.
        -14    1    6    6    0    0  0.34975566014E+02  0.17376675932E+02  0.15844022293E+02  0.42145843530E+02  0.00000000000E+00 0.  1.
</event>
<event>
12    1  0.1066489E+000  0.3398204E+03  0.7818608E-02  0.1066892E+00
         21   -1    0    0  503  502  0.00000000000E+00  0.00000000000E+00  0.11183446370E+04  0.11183446370E+04  0.00000000000E+00 0.  1.
         21   -1    0    0  501  503 -0.00000000000E+00 -0.00000000000E+00 -0.55239372732E+03  0.55239372732E+03  0.00000000000E+00 0.  1.
          6    2    1    2  501    0 -0.27775993116E+03 -0.91785757164E+02 -0.47034139934E+03  0.58015153590E+03  0.17256757545E+03 0.  0.
         24    2    3    3    0    0 -0.48737898481E+02 -0.12575961180E+02 -0.98747816466E+02  0.13649720642E+03  0.79666922594E+02 0.  0.
         -6    2    1    2    0  502  0.27775993116E+03  0.91785757164E+02  0.10362923091E+04  0.10905868285E+04  0.17292390239E+03 0.  0.
        -24    2    5    5    0    0  0.20237805525E+03  0.78664646877E+02  0.52710442126E+03  0.57566063391E+03  0.80006816005E+02 0.  0.
          5    1    3    3  501    0 -0.22902203268E+03 -0.79209795984E+02 -0.37159358288E+03  0.44365432948E+03  0.47000000000E+01 0. -1.
        -11    1    4    4    0    0 -0.62207921217E+01 -0.10306149279E+02  0.12515590248E+02  0.17365338086E+02  0.00000000000E+00 0.  1.
         12    1    4    4    0    0 -0.42517106359E+02 -0.22698119006E+01 -0.11126340671E+03  0.11913186833E+03  0.00000000000E+00 0. -1.
         -5    1    5    5    0  502  0.75381875908E+02  0.13121110287E+02  0.50918788780E+03  0.51492619455E+03  0.47000000000E+01 0.  1.
         13    1    6    6    0    0  0.11914872249E+01  0.17720568473E+02  0.74996528660E+02  0.77070860251E+02  0.00000000000E+00 0. -1.
        -14    1    6    6    0    0  0.20118656803E+03  0.60944078404E+02  0.45210789260E+03  0.49858977366E+03  0.00000000000E+00 0.  1.
</event>
<event>
12    1  0.1066489E+000  0.1740855E+03  0.7818608E-02  0.1173875E+00
         21   -1    0    0  501  502  0.00000000000E+00  0.00000000000E+00  0.71300926101E+02  0.71300926101E+02  0.00000000000E+00 0.  1.
         21   -1    0    0  502  503 -0.00000000000E+00 -0.00000000000E+00 -0.42297322985E+03  0.42297322985E+03  0.00000000000E+00 0.  1.
         -6    2    1    2    0  503 -0.11858528474E+02 -0.99331086601E+01 -0.17304385505E+03  0.24545859818E+03  0.17339681746E+03 0.  0.
        -24    2    3    3    0    0  0.18503196332E+01 -0.32102455041E+02 -0.23843235396E+02  0.93925343285E+02  0.84967516938E+02 0.  0.
          6    2    1    2  501    0  0.11858528474E+02  0.99331086601E+01 -0.17862844871E+03  0.24881555777E+03  0.17251599276E+03 0.  0.
         24    2    5    5    0    0 -0.16996863042E+02 -0.54853417648E+02 -0.12940814061E+03  0.16235946291E+03  0.79475389638E+02 0.  0.
          5    1    5    5  501    0  0.28855391517E+02  0.64786526308E+02 -0.49220308092E+02  0.86456094865E+02  0.47000000000E+01 0. -1.
        -13    1    6    6    0    0  0.22439520065E+02 -0.22006621546E+02 -0.10986974084E+02  0.33294700061E+02  0.00000000000E+00 0.  1.
         14    1    6    6    0    0 -0.39436383108E+02 -0.32846796102E+02 -0.11842116653E+03  0.12906476285E+03  0.00000000000E+00 0. -1.
         -5    1    3    3    0  503 -0.13708848108E+02  0.22169346381E+02 -0.14920061965E+03  0.15153325490E+03  0.47000000000E+01 0.  1.
         13    1    4    4    0    0 -0.41495621557E+02 -0.16902227087E+02 -0.14071697234E+02  0.46963651390E+02  0.00000000000E+00 0. -1.
        -14    1    4    4    0    0  0.43345941190E+02 -0.15200227954E+02 -0.97715381628E+01  0.46961691894E+02  0.00000000000E+00 0.  1.
</event>
<event>
12    1  0.1066489E+000  0.1830173E+03  0.7818608E-02  0.1168245E+00
         21   -1    0    0  501  502  0.00000000000E+00  0.00000000000E+00  0.73689283774E+02  0.73689283774E+02  0.00000000000E+00 0. -1.
         21   -1    0    0  502  503 -0.00000000000E+00 -0.00000000000E+00 -0.42341146361E+03  0.42341146361E+03  0.00000000000E+00 0. -1.
         -6    2    1    2    0  503 -0.55948338704E+02  0.29780483740E+02 -0.18430534595E+03  0.25040651402E+03  0.15721917155E+03 0.  0.
        -24    2    3    3    0    0 -0.55419424825E+01  0.25114187280E+02 -0.33760453430E+02  0.91508956559E+02  0.81072099920E+02 0.  0.
          6    2    1    2  501    0  0.55948338704E+02 -0.29780483740E+02 -0.16541683389E+03  0.24669423337E+03  0.17169223054E+03 0.  0.
         24    2    5    5    0    0  0.60500892110E+02  0.42650772756E+02 -0.10832653731E+03  0.15423665054E+03  0.81085506228E+02 0.  0.
          5    1    5    5  501    0 -0.45525534053E+01 -0.72431256495E+02 -0.57090296580E+02  0.92457582835E+02  0.47000000000E+01 0. -1.
        -11    1    6    6    0    0  0.16953318947E+01  0.77132557062E+01 -0.79694203861E+02  0.80084546530E+02  0.00000000000E+00 0.  1.
         12    1    6    6    0    0  0.58805560215E+02  0.34937517049E+02 -0.28632333447E+02  0.74152104005E+02  0.00000000000E+00 0. -1.
         -5    1    3    3    0  503 -0.50406396222E+02  0.46662964602E+01 -0.15054489252E+03  0.15889755746E+03  0.47000000000E+01 0.  1.
         13    1    4    4    0    0  0.33946714754E+02 -0.56708681836E+01 -0.18973107062E+02  0.39300343258E+02  0.00000000000E+00 0. -1.
        -14    1    4    4    0    0 -0.39488657237E+02  0.30785055463E+02 -0.14787346368E+02  0.52208613301E+02  0.00000000000E+00 0.  1.
</event>
<event>
12    1  0.1066489E+000  0.3021806E+03  0.7818608E-02  0.1084239E+00
         21   -1    0    0  503  502  0.00000000000E+00  0.00000000000E+00  0.23333008968E+03  0.23333008968E+03  0.00000000000E+00 0. -1.
         21   -1    0    0  501  503 -0.00000000000E+00 -0.00000000000E+00 -0.57080126103E+03  0.57080126103E+03  0.00000000000E+00 0.  1.
          6    2    1    2  501    0 -0.79162222569E+02  0.23475933101E+03  0.57121610602E+02  0.30753211012E+03  0.17301595122E+03 0.  0.
         24    2    3    3    0    0 -0.75036164550E+02  0.23923307429E+03  0.86639883932E+02  0.27702871368E+03  0.79847034336E+02 0.  0.
         -6    2    1    2    0  502  0.79162222569E+02 -0.23475933101E+03 -0.39459278195E+03  0.49659924059E+03  0.17183928890E+03 0.  0.
        -24    2    5    5    0    0  0.99324407247E+02 -0.12229433361E+03 -0.17506477986E+03  0.24907242783E+03  0.81044156186E+02 0.  0.
          5    1    3    3  501    0 -0.41260580188E+01 -0.44737432757E+01 -0.29518273330E+02  0.30503396435E+02  0.47000000000E+01 0. -1.
        -13    1    4    4    0    0 -0.40557931172E+02  0.41076529215E+02  0.40937639243E+02  0.70768053104E+02  0.00000000000E+00 0.  1.
         14    1    4    4    0    0 -0.34478233378E+02  0.19815654507E+03  0.45702244690E+02  0.20626066058E+03  0.00000000000E+00 0. -1.
         -5    1    5    5    0  502 -0.20162184678E+02 -0.11246499741E+03 -0.21952800210E+03  0.24752681276E+03  0.47000000000E+01 0.  1.
         13    1    6    6    0    0  0.20424581038E+02 -0.78491153844E+02 -0.11478659754E+03  0.14054888017E+03  0.00000000000E+00 0. -1.
        -14    1    6    6    0    0  0.78899826210E+02 -0.43803179765E+02 -0.60278182314E+02  0.10852354766E+03  0.00000000000E+00 0.  1.
</event>
<event>
12    1  0.1066489E+000  0.2241064E+03  0.7818608E-02  0.1133386E+00
         21   -1    0    0  501  502  0.00000000000E+00  0.00000000000E+00  0.42209027436E+02  0.42209027436E+02  0.00000000000E+00 0. -1.
         21   -1    0    0  502  503 -0.00000000000E+00 -0.00000000000E+00 -0.11252557049E+04  0.11252557049E+04  0.00000000000E+00 0. -1.
         -6    2    1    2    0  503  0.11732794301E+03  0.34414520147E+02 -0.48344986242E+03  0.52735535778E+03  0.17155086272E+03 0.  0.
        -24    2    3    3    0    0  0.15926114906E+02 -0.70449843666E+01 -0.32021699639E+03  0.33071283997E+03  0.80800896085E+02 0.  0.
          6    2    1    2  501    0 -0.11732794301E+03 -0.34414520147E+02 -0.59959681502E+03  0.64010937453E+03  0.18781231421E+03 0.  0.
         24    2    5    5    0    0 -0.12174988450E+03  0.22129811462E+02 -0.28538599420E+03  0.32078611367E+03  0.78395166367E+02 0.  0.
          5    1    5    5  501    0  0.44219414887E+01 -0.56544331609E+02 -0.31421082082E+03  0.31932326085E+03  0.47000000000E+01 0. -1.
        -13    1    6    6    0    0 -0.12905077353E+03  0.64788117361E+01 -0.25096812339E+03  0.28227836635E+03  0.00000000000E+00 0.  1.
         14    1    6    6    0    0  0.73008890308E+01  0.15650999726E+02 -0.34417870809E+02  0.38507747326E+02  0.00000000000E+00 0. -1.
         -5    1    3    3    0  503  0.10140182810E+03  0.41459504514E+02 -0.16323286603E+03  0.19664251781E+03  0.47000000000E+01 0.  1.
         11    1    4    4    0    0  0.21477459557E+01 -0.23716508379E+00  0.48359734854E+01  0.52967631171E+01  0.00000000000E+00 0. -1.
        -12    1    4    4    0    0  0.13778368950E+02 -0.68078192828E+01 -0.32505296987E+03  0.32541607686E+03  0.00000000000E+00 0.  1.
</event>
<event>
12    1  0.1066489E+000  0.2120718E+03  0.7818608E-02  0.1140228E+00
         21   -1    0    0  501  502  0.00000000000E+00  0.00000000000E+00  0.65444682727E+03  0.65444682727E+03  0.00000000000E+00 0. -1.
         21   -1    0    0  502  503 -0.00000000000E+00 -0.00000000000E+00 -0.73998675323E+02  0.73998675323E+02  0.00000000000E+00 0. -1.
         -6    2    1    2    0  503 -0.11731958367E+03  0.35211241757E+02  0.18955948245E+03  0.28444195452E+03  0.17312051249E+03 0.  0.
        -24    2    3    3    0    0 -0.18564398873E+02 -0.31343846124E+02  0.44938576338E+02  0.97040079574E+02  0.77911666681E+02 0.  0.
          6    2    1    2  501    0  0.11731958367E+03 -0.35211241757E+02  0.39088866949E+03  0.44400354807E+03  0.17129355651E+03 0.  0.
         24    2    5    5    0    0  0.11574056851E+03 -0.33488980617E+02  0.17177782027E+03  0.22482984135E+03  0.80767858712E+02 0.  0.
          5    1    5    5  501    0  0.15790151608E+01 -0.17222611399E+01  0.21911084922E+03  0.21917370672E+03  0.47000000000E+01 0. -1.
        -13    1    6    6    0    0  0.78003963999E+02 -0.44176057380E+02  0.16080302070E+03  0.18410256357E+03  0.00000000000E+00 0.  1.
         14    1    6    6    0    0  0.37736604514E+02  0.10687076763E+02  0.10974799573E+02  0.40727277784E+02  0.00000000000E+00 0. -1.
         -5    1    3    3    0  503 -0.98755184801E+02  0.66555087881E+02  0.14462090611E+03  0.18740187495E+03  0.47000000000E+01 0.  1.
         13    1    4    4    0    0  0.58740633302E+01 -0.20327214375E+02  0.61833449740E+02  0.65353467934E+02  0.00000000000E+00 0. -1.
        -14    1    4    4    0    0 -0.24438462203E+02 -0.11016631749E+02 -0.16894873402E+02  0.31686611640E+02  0.00000000000E+00 0.  1.
</event>
<event>
12    1  0.1554112E+000  0.1799831E+03  0.7818608E-02  0.1169862E+00
         21   -1    0    0  503  502  0.00000000000E+00  0.00000000000E+00  0.38084017730E+03  0.38084017730E+03  0.00000000000E+00 0. -1.
         21   -1    0    0  501  503 -0.00000000000E+00 -0.00000000000E+00 -0.51024752076E+03  0.51024752076E+03  0.00000000000E+00 0. -1.
          6    2    1    2  501    0  0.41769830448E+02  0.28652592145E+02  0.34407053170E+03  0.38455516722E+03  0.16411110894E+03 0.  0.
         24    2    3    3    0    0 -0.29374269021E+01  0.13549876203E+02  0.45716180745E+02  0.82455449206E+02  0.67206430496E+02 0.  0.
         -6    2    1    2    0  502 -0.41769830448E+02 -0.28652592145E+02 -0.47347787516E+03  0.50653253084E+03  0.17270847333E+03 0.  0.
        -24    2    5    5    0    0 -0.59322904203E+02  0.12102629324E+02 -0.14466652082E+03  0.17470713215E+03  0.76996747832E+02 0.  0.
          5    1    3    3  501    0  0.44707257350E+02  0.15102715942E+02  0.29835435096E+03  0.30209971801E+03  0.47000000000E+01 0. -1.
        -11    1    4    4    0    0  0.14619453375E+02 -0.66791446406E+01  0.52432591349E+02  0.54840824444E+02  0.00000000000E+00 0.  1.
         12    1    4    4    0    0 -0.17556880277E+02  0.20229020844E+02 -0.67164106045E+01  0.27614624762E+02  0.00000000000E+00 0. -1.
         -5    1    5    5    0  502  0.17553073755E+02 -0.40755221469E+02 -0.32881135434E+03  0.33182539869E+03  0.47000000000E+01 0.  1.
         13    1    6    6    0    0  0.94721642429E+01 -0.14838952461E+02 -0.79754743683E+01  0.19326784445E+02  0.00000000000E+00 0. -1.
        -14    1    6    6    0    0 -0.68795068446E+02  0.26941581785E+02 -0.13669104645E+03  0.15538034770E+03  0.00000000000E+00 0.  1.
</event>
<event>
12    1  0.1066489E+000  0.1938990E+03  0.7818608E-02  0.1155190E+00
         21   -1    0    0  503  502  0.00000000000E+00  0.00000000000E+00  0.72028867499E+02  0.72028867499E+02  0.00000000000E+00 0.  1.
         21   -1    0    0  501  503 -0.00000000000E+00 -0.00000000000E+00 -0.61378649766E+03  0.61378649766E+03  0.00000000000E+00 0.  1.
          6    2    1    2  501    0 -0.75706422709E+02 -0.48377229379E+02 -0.13704147242E+03  0.23743878718E+03  0.17182838453E+03 0.  0.
         24    2    3    3    0    0  0.26536636326E+02 -0.25108104934E+02 -0.77019027725E+02  0.11652609495E+03  0.79446775723E+02 0.  0.
         -6    2    1    2    0  502  0.75706422709E+02  0.48377229379E+02 -0.40471615774E+03  0.44837657798E+03  0.17080564565E+03 0.  0.
        -24    2    5    5    0    0  0.22928631919E+02 -0.35188555077E+02 -0.23307478557E+03  0.25025644732E+03  0.80873216748E+02 0.  0.
          5    1    3    3  501    0 -0.10224305903E+03 -0.23269124446E+02 -0.60022444695E+02  0.12091269222E+03  0.47000000000E+01 0. -1.
        -11    1    4    4    0    0  0.47967291175E+02 -0.14867349883E+02 -0.18754427447E+02  0.53606227848E+02  0.00000000000E+00 0.  1.
         12    1    4    4    0    0 -0.21430654849E+02 -0.10240755051E+02 -0.58264600278E+02  0.62919867107E+02  0.00000000000E+00 0. -1.
         -5    1    5    5    0  502  0.52777790790E+02  0.83565784456E+02 -0.17164137218E+03  0.19812013067E+03  0.47000000000E+01 0.  1.
         13    1    6    6    0    0  0.52919552005E+02 -0.16121672379E+02 -0.13237930829E+03  0.14347358142E+03  0.00000000000E+00 0. -1.
        -14    1    6    6    0    0 -0.29990920086E+02 -0.19066882698E+02 -0.10069547728E+03  0.10678286589E+03  0.00000000000E+00 0.  1.
</event>
<event>
12    1  0.1066489E+000  0.4087867E+03  0.7818608E-02  0.1040912E+00
         21   -1    0    0  503  502  0.00000000000E+00  0.00000000000E+00  0.94139631607E+02  0.94139631607E+02  0.00000000000E+00 0.  1.
         21   -1    0    0  501  503 -0.00000000000E+00 -0.00000000000E+00 -0.24289456721E+04  0.24289456721E+04  0.00000000000E+00 0.  1.
          6    2    1    2  501    0  0.12632141521E+03 -0.34888323172E+03 -0.50779333690E+03  0.65089888575E+03  0.16774587076E+03 0.  0.
         24    2    3    3    0    0  0.22981855537E+02 -0.24796573028E+03 -0.30796720362E+03  0.40428992356E+03  0.81187281713E+02 0.  0.
         -6    2    1    2    0  502 -0.12632141521E+03  0.34888323172E+03 -0.18270127036E+04  0.18721864180E+04  0.17155161077E+03 0.  0.
        -24    2    5    5    0    0 -0.48268315608E+00  0.12464411442E+03 -0.54388597908E+03  0.56354022842E+03  0.78925550788E+02 0.  0.
          5    1    3    3  501    0  0.10333955968E+03 -0.10091750145E+03 -0.19982613327E+03  0.24660896219E+03  0.47000000000E+01 0. -1.
        -11    1    4    4    0    0 -0.23488109390E+02 -0.69345096531E+02 -0.57128509447E+02  0.92866034088E+02  0.00000000000E+00 0.  1.
         12    1    4    4    0    0  0.46469964927E+02 -0.17862063374E+03 -0.25083869418E+03  0.31142388948E+03  0.00000000000E+00 0. -1.
         -5    1    5    5    0  502 -0.12583873206E+03  0.22423911730E+03 -0.12831267245E+04  0.13086461895E+04  0.47000000000E+01 0.  1.
         13    1    6    6    0    0 -0.29565866435E+02  0.27296311199E+02 -0.92709014731E+02  0.10106527829E+03  0.00000000000E+00 0. -1.
        -14    1    6    6    0    0  0.29083183279E+02  0.97347803220E+02 -0.45117696435E+03  0.46247495013E+03  0.00000000000E+00 0.  1.
</event>
<event>
12    1  0.1066489E+000  0.1846512E+03  0.7818608E-02  0.1163711E+00
         21   -1    0    0  503  502  0.00000000000E+00  0.00000000000E+00  0.80824234763E+03  0.80824234763E+03  0.00000000000E+00 0.  1.
         21   -1    0    0  501  503 -0.00000000000E+00 -0.00000000000E+00 -0.43379210916E+02  0.43379210916E+02  0.00000000000E+00 0. -1.
          6    2    1    2  501    0 -0.49754471084E+02  0.49171346237E+02  0.30419540594E+03  0.35585236935E+03  0.17088807769E+03 0.  0.
         24    2    3    3    0    0  0.34958069481E+02  0.44991834361E+02  0.19789070186E+03  0.21977715869E+03  0.76778498397E+02 0.  0.
         -6    2    1    2    0  502  0.49754471084E+02 -0.49171346237E+02  0.46066773077E+03  0.49576918919E+03  0.16934875876E+03 0.  0.
        -24    2    5    5    0    0  0.60716892251E+02 -0.36254224213E+02  0.22211453183E+03  0.25656896878E+03  0.10720009661E+03 0.  0.
          5    1    3    3  501    0 -0.84712540565E+02  0.41795118759E+01  0.10630470408E+03  0.13607521067E+03  0.47000000000E+01 0. -1.
        -13    1    4    4    0    0  0.20342683525E+02  0.15922632336E+01  0.43121130828E+01  0.20855560276E+02  0.00000000000E+00 0.  1.
         14    1    4    4    0    0  0.14615385957E+02  0.43399571127E+02  0.19357858878E+03  0.19892159841E+03  0.00000000000E+00 0. -1.
         -5    1    5    5    0  502 -0.10962421167E+02 -0.12917122024E+02  0.23855319894E+03  0.23920022041E+03  0.47000000000E+01 0.  1.
         11    1    6    6    0    0  0.90307348259E+02 -0.21488219648E+02  0.18412633435E+03  0.20620297703E+03  0.00000000000E+00 0. -1.
        -12    1    6    6    0    0 -0.29590456007E+02 -0.14766004565E+02  0.37988197475E+02  0.50365991750E+02  0.00000000000E+00 0.  1.
</event>
<event>
12    1  0.1066489E+000  0.2180923E+03  0.7818608E-02  0.1136230E+00
         21   -1    0    0  503  502  0.00000000000E+00  0.00000000000E+00  0.77331167653E+03  0.77331167653E+03  0.00000000000E+00 0.  1.
         21   -1    0    0  501  503 -0.00000000000E+00 -0.00000000000E+00 -0.62190249612E+02  0.62190249612E+02  0.00000000000E+00 0.  1.
          6    2    1    2  501    0  0.11863037814E+03 -0.34965016687E+02  0.42722234189E+03  0.47750341368E+03  0.17376668744E+03 0.  0.
         24    2    3    3    0    0  0.53075168845E+02 -0.87807484895E+02  0.25940389066E+03  0.28968718839E+03  0.78109926868E+02 0.  0.
         -6    2    1    2    0  502 -0.11863037814E+03  0.34965016687E+02  0.28389908503E+03  0.35799851246E+03  0.17963442162E+03 0.  0.
        -24    2    5    5    0    0 -0.45859532677E+01  0.11092705601E+02  0.19396232579E+03  0.21073436630E+03  0.81507731104E+02 0.  0.
          5    1    3    3  501    0  0.65555209291E+02  0.52842468208E+02  0.16781845123E+03  0.18781622530E+03  0.47000000000E+01 0. -1.
        -11    1    4    4    0    0 -0.86632641112E+01 -0.38698093781E+02  0.39123276506E+02  0.55706600793E+02  0.00000000000E+00 0.  1.
         12    1    4    4    0    0  0.61738432956E+02 -0.49109391114E+02  0.22028061415E+03  0.23398058759E+03  0.00000000000E+00 0. -1.
         -5    1    5    5    0  502 -0.11404442487E+03  0.23872311086E+02  0.89936759236E+02  0.14726414615E+03  0.47000000000E+01 0.  1.
         11    1    6    6    0    0  0.21642471341E+01  0.18925706704E+02  0.27545243462E+01  0.19247174968E+02  0.00000000000E+00 0. -1.
        -12    1    6    6    0    0 -0.67502004018E+01 -0.78330011029E+01  0.19120780145E+03  0.19148719133E+03  0.00000000000E+00 0.  1.
</event>
<event>
12    1  0.1066489E+000  0.3664327E+03  0.7818608E-02  0.1056077E+00
         21   -1    0    0  503  502  0.00000000000E+00  0.00000000000E+00  0.92072848488E+03  0.92072848488E+03  0.00000000000E+00 0.  1.
         21   -1    0    0  501  503 -0.00000000000E+00 -0.00000000000E+00 -0.15218935595E+03  0.15218935595E+03  0.00000000000E+00 0.  1.
          6    2    1    2  501    0 -0.28167672528E+03  0.15948752162E+03  0.49425355987E+03  0.61520012547E+03  0.17148342724E+03 0.  0.
         24    2    3    3    0    0 -0.11134928805E+03  0.60645038866E+02  0.11976342927E+03  0.19206159001E+03  0.80423197401E+02 0.  0.
         -6    2    1    2    0  502  0.28167672528E+03 -0.15948752162E+03  0.27428556907E+03  0.45771771537E+03  0.17174075359E+03 0.  0.
        -24    2    5    5    0    0  0.14987683638E+03 -0.25834698023E+02  0.17660644532E+03  0.24606330557E+03  0.78910177513E+02 0.  0.
          5    1    3    3  501    0 -0.17032743723E+03  0.98842482753E+02  0.37449013059E+03  0.42313853545E+03  0.47000000000E+01 0. -1.
        -13    1    4    4    0    0 -0.21797500532E+02  0.33535676325E+02  0.81863171004E+02  0.91111752167E+02  0.00000000000E+00 0.  1.
         14    1    4    4    0    0 -0.89551787517E+02  0.27109362541E+02  0.37900258267E+02  0.10094983785E+03  0.00000000000E+00 0. -1.
         -5    1    5    5    0  502  0.13179988890E+03 -0.13365282360E+03  0.97679123753E+02  0.21165440980E+03  0.47000000000E+01 0.  1.
         11    1    6    6    0    0  0.96003880917E+02 -0.31166745257E+02  0.59798224012E+02  0.11731981400E+03  0.00000000000E+00 0. -1.
        -12    1    6    6    0    0  0.53872955460E+02  0.53320472337E+01  0.11680822131E+03  0.12874349157E+03  0.00000000000E+00 0.  1.
</event>
<event>
12    1  0.1066489E+000  0.1732508E+03  0.7818608E-02  0.1174700E+00
         21   -1    0    0  501  502  0.00000000000E+00  0.00000000000E+00  0.99167901293E+02  0.99167901293E+02  0.00000000000E+00 0.  1.
         21   -1    0    0  502  503 -0.00000000000E+00 -0.00000000000E+00 -0.32827972530E+03  0.32827972530E+03  0.00000000000E+00 0.  1.
         -6    2    1    2    0  503  0.84063185065E+01 -0.26163791051E+02 -0.53054752797E+02  0.18044169315E+03  0.17026211463E+03 0.  0.
        -24    2    3    3    0    0 -0.52840940385E+02 -0.18060618596E+02 -0.66058678711E+02  0.11713229247E+03  0.78980212587E+02 0.  0.
          6    2    1    2  501    0 -0.84063185065E+01  0.26163791051E+02 -0.17605707121E+03  0.24700593344E+03  0.17105738417E+03 0.  0.
         24    2    5    5    0    0 -0.52960958286E+01  0.31238362496E+02 -0.20064343528E+03  0.22127649391E+03  0.87758844061E+02 0.  0.
          5    1    5    5  501    0 -0.31102226779E+01 -0.50745714455E+01  0.24586364074E+02  0.25729439536E+02  0.47000000000E+01 0. -1.
        -13    1    6    6    0    0  0.26892631649E+02  0.10303753024E+02 -0.16538425805E+02  0.33209945671E+02  0.00000000000E+00 0.  1.
         14    1    6    6    0    0 -0.32188727477E+02  0.20934609472E+02 -0.18410500948E+03  0.18806654823E+03  0.00000000000E+00 0. -1.
         -5    1    3    3    0  503  0.61247258892E+02 -0.81031724552E+01  0.13003925915E+02  0.63309400683E+02  0.47000000000E+01 0.  1.
         13    1    4    4    0    0 -0.75930851887E+01  0.20582079519E+02 -0.51347360817E+02  0.55837517878E+02  0.00000000000E+00 0. -1.
        -14    1    4    4    0    0 -0.45247855197E+02 -0.38642698114E+02 -0.14711317895E+02  0.61294774587E+02  0.00000000000E+00 0.  1.
</event>
<event>
12    1  0.1066489E+000  0.2133485E+03  0.7818608E-02  0.1141537E+00
         21   -1    0    0  501  502  0.00000000000E+00  0.00000000000E+00  0.13493620294E+04  0.13493620294E+04  0.00000000000E+00 0.  1.
         21   -1    0    0  502  503 -0.00000000000E+00 -0.00000000000E+00 -0.81673875612E+02  0.81673875612E+02  0.00000000000E+00 0.  1.
         -6    2    1    2    0  503 -0.12531250065E+03 -0.69243928556E+01  0.82052925249E+02  0.22858316252E+03  0.17252944563E+03 0.  0.
        -24    2    3    3    0    0 -0.43068095115E+02 -0.24365864457E+02  0.10642053590E+03  0.14092349322E+03  0.78009898803E+02 0.  0.
          6    2    1    2  501    0  0.12531250065E+03  0.69243928556E+01  0.11856352285E+04  0.12024527425E+04  0.15623870433E+03 0.  0.
         24    2    5    5    0    0  0.20341486692E+02  0.38517075532E+02  0.61074512629E+03  0.61718551204E+03  0.77530676507E+02 0.  0.
          5    1    5    5  501    0  0.10497101396E+03 -0.31592682676E+02  0.57489010223E+03  0.58526723042E+03  0.47000000000E+01 0. -1.
        -13    1    6    6    0    0 -0.40819394827E+01 -0.21008055580E+02  0.23490350785E+03  0.23587636302E+03  0.00000000000E+00 0.  1.
         14    1    6    6    0    0  0.24423426175E+02  0.59525131112E+02  0.37584161844E+03  0.38130914902E+03  0.00000000000E+00 0. -1.
         -5    1    3    3    0  503 -0.82244405538E+02  0.17441471601E+02 -0.24367610654E+02  0.87659669306E+02  0.47000000000E+01 0.  1.
         11    1    4    4    0    0 -0.53166625612E+02 -0.27366487894E+02  0.11346021361E+03  0.12825301093E+03  0.00000000000E+00 0. -1.
        -12    1    4    4    0    0  0.10098530498E+02  0.30006234370E+01 -0.70396777098E+01  0.12670482291E+02  0.00000000000E+00 0.  1.
</event>
<event>
12    1  0.1066489E+000  0.1739903E+03  0.7818608E-02  0.1173853E+00
         21   -1    0    0  503  502  0.00000000000E+00  0.00000000000E+00  0.68409385680E+02  0.68409385680E+02  0.00000000000E+00 0.  1.
         21   -1    0    0  501  503 -0.00000000000E+00 -0.00000000000E+00 -0.45236004263E+03  0.45236004263E+03  0.00000000000E+00 0.  1.
          6    2    1    2  501    0  0.35182119926E+01  0.26816648524E+02 -0.23212850713E+03  0.28985257157E+03  0.17146241270E+03 0.  0.
         24    2    3    3    0    0  0.28611227959E+01 -0.43245713695E+02 -0.74415091756E+02  0.11721196871E+03  0.79515168060E+02 0.  0.
         -6    2    1    2    0  502 -0.35182119926E+01 -0.26816648524E+02 -0.15182214982E+03  0.23091685674E+03  0.17187530101E+03 0.  0.
        -24    2    5    5    0    0  0.46299832553E+02 -0.66775790012E+02 -0.91355346952E+02  0.14284362131E+03  0.73863523510E+02 0.  0.
          5    1    3    3  501    0  0.65708919671E+00  0.70062362220E+02 -0.15771341538E+03  0.17264060286E+03  0.47000000000E+01 0. -1.
        -13    1    4    4    0    0 -0.91673450171E-01  0.33770203688E+01  0.15511414017E+02  0.15875031824E+02  0.00000000000E+00 0.  1.
         14    1    4    4    0    0  0.29527962461E+01 -0.46622734064E+02 -0.89926505773E+02  0.10133693689E+03  0.00000000000E+00 0. -1.
         -5    1    5    5    0  502 -0.49818044546E+02  0.39959141488E+02 -0.60466802869E+02  0.88073235435E+02  0.47000000000E+01 0.  1.
         13    1    6    6    0    0  0.11775834713E+02 -0.39636741999E+02  0.14692841192E+00  0.41349282792E+02  0.00000000000E+00 0. -1.
        -14    1    6    6    0    0  0.34523997840E+02 -0.27139048013E+02 -0.91502275363E+02  0.10149433852E+03  0.00000000000E+00 0.  1.
</event>
<event>
12    1  0.1066489E+000  0.1752936E+03  0.7818608E-02  0.1172748E+00
         21   -1    0    0  501  502  0.00000000000E+00  0.00000000000E+00  0.18475642648E+02  0.18475642648E+02  0.00000000000E+00 0. -1.
         21   -1    0    0  502  503 -0.00000000000E+00 -0.00000000000E+00 -0.18084316803E+04  0.18084316803E+04  0.00000000000E+00 0. -1.
         -6    2    1    2    0  503 -0.13019543118E+02 -0.10465828757E+02 -0.62875174225E+03  0.65273010929E+03  0.17449584558E+03 0.  0.
        -24    2    3    3    0    0  0.51572460691E+02  0.12139679442E+02 -0.47151819434E+03  0.48118532056E+03  0.80017589325E+02 0.  0.
          6    2    1    2  501    0  0.13019543118E+02  0.10465828757E+02 -0.11612042954E+04  0.11741772136E+04  0.17325608596E+03 0.  0.
         24    2    5    5    0    0 -0.53781476028E+02 -0.12254461970E+02 -0.51965002923E+03  0.52873739909E+03  0.80526177868E+02 0.  0.
          5    1    5    5  501    0  0.66801019146E+02  0.22720290726E+02 -0.64155426614E+03  0.64543981452E+03  0.47000000000E+01 0. -1.
        -11    1    6    6    0    0 -0.27898885453E+02  0.76434655978E+01 -0.45855623074E+03  0.45946772153E+03  0.00000000000E+00 0.  1.
         12    1    6    6    0    0 -0.25882590574E+02 -0.19897927568E+02 -0.61093798486E+02  0.69269677563E+02  0.00000000000E+00 0. -1.
         -5    1    3    3    0  503 -0.64592003809E+02 -0.22605508199E+02 -0.15723354790E+03  0.17154478874E+03  0.47000000000E+01 0.  1.
         13    1    4    4    0    0 -0.18503108990E+02  0.14116414633E+02 -0.75346167969E+02  0.78858628139E+02  0.00000000000E+00 0. -1.
        -14    1    4    4    0    0  0.70075569681E+02 -0.19767351903E+01 -0.39617202638E+03  0.40232669242E+03  0.00000000000E+00 0.  1.
</event>
<event>
12    1  0.1066489E+000  0.2697914E+03  0.7818608E-02  0.1101480E+00
         21   -1    0    0  503  502  0.00000000000E+00  0.00000000000E+00  0.24504090509E+03  0.24504090509E+03  0.00000000000E+00 0.  1.
         21   -1    0    0  501  503 -0.00000000000E+00 -0.00000000000E+00 -0.29671026930E+03  0.29671026930E+03  0.00000000000E+00 0.  1.
          6    2    1    2  501    0  0.16081683817E+03 -0.13197705524E+03 -0.34325555129E+02  0.27140287829E+03  0.17088382035E+03 0.  0.
         24    2    3    3    0    0  0.61527214718E+02 -0.42564667510E+01  0.23834821069E+02  0.99427015419E+02  0.74255754252E+02 0.  0.
         -6    2    1    2    0  502 -0.16081683817E+03  0.13197705524E+03 -0.17343809074E+02  0.27034829610E+03  0.17177716652E+03 0.  0.
        -24    2    5    5    0    0 -0.10449800520E+03  0.46792585237E+02  0.29621627240E+02  0.15784919794E+03  0.10454448511E+03 0.  0.
          5    1    3    3  501    0  0.99289623455E+02 -0.12772058849E+03 -0.58160376198E+02  0.17197586287E+03  0.47000000000E+01 0. -1.
        -11    1    4    4    0    0  0.69487587780E+02  0.14932244975E+02  0.47753104783E+01  0.71234123745E+02  0.00000000000E+00 0.  1.
         12    1    4    4    0    0 -0.79603730621E+01 -0.19188711726E+02  0.19059510591E+02  0.28192891674E+02  0.00000000000E+00 0. -1.
         -5    1    5    5    0  502 -0.56318832971E+02  0.85184470007E+02 -0.46965436314E+02  0.11249909816E+03  0.47000000000E+01 0.  1.
         13    1    6    6    0    0 -0.69641984089E+02 -0.12886742144E+02 -0.19022081858E+02  0.73334259859E+02  0.00000000000E+00 0. -1.
        -14    1    6    6    0    0 -0.34856021114E+02  0.59679327381E+02  0.48643709098E+02  0.84514938083E+02  0.00000000000E+00 0.  1.
</event>
<event>
12    1  0.1066489E+000  0.1751531E+03  0.7818608E-02  0.1173223E+00
         21   -1    0    0  503  502  0.00000000000E+00  0.00000000000E+00  0.52130233728E+02  0.52130233728E+02  0.00000000000E+00 0.  1.
         21   -1    0    0  501  503 -0.00000000000E+00 -0.00000000000E+00 -0.60162305968E+03  0.60162305968E+03  0.00000000000E+00 0.  1.
          6    2    1    2  501    0  0.19316576350E+02  0.21563988870E+02 -0.33872723125E+03  0.38133285688E+03  0.17274395738E+03 0.  0.
         24    2    3    3    0    0  0.61876127339E+00  0.17422904101E+02 -0.34901298949E+03  0.35909227024E+03  0.82663481993E+02 0.  0.
         -6    2    1    2    0  502 -0.19316576350E+02 -0.21563988870E+02 -0.21076559470E+03  0.27242043653E+03  0.17015470193E+03 0.  0.
        -24    2    5    5    0    0 -0.27880531081E+02 -0.77913740625E+02 -0.15604128584E+03  0.19326567783E+03  0.78452943535E+02 0.  0.
          5    1    3    3  501    0  0.18697815076E+02  0.41410847684E+01  0.10285758245E+02  0.22240586646E+02  0.47000000000E+01 0. -1.
        -13    1    4    4    0    0 -0.30940523881E+02 -0.92513284443E+01 -0.70674763012E+02  0.77703444086E+02  0.00000000000E+00 0.  1.
         14    1    4    4    0    0  0.31559285154E+02  0.26674232546E+02 -0.27833822648E+03  0.28138882615E+03  0.00000000000E+00 0. -1.
         -5    1    5    5    0  502  0.85639547312E+01  0.56349751756E+02 -0.54724308862E+02  0.79154758695E+02  0.47000000000E+01 0.  1.
         13    1    6    6    0    0 -0.15325313999E+02 -0.21499849164E+02 -0.12481136475E+03  0.12757345153E+03  0.00000000000E+00 0. -1.
        -14    1    6    6    0    0 -0.12555217082E+02 -0.56413891461E+02 -0.31229921091E+02  0.65692226307E+02  0.00000000000E+00 0.  1.
</event>
<event>
12    1  0.1113758E+000  0.2209367E+03  0.7818608E-02  0.1133325E+00
         21   -1    0    0  501  502  0.00000000000E+00  0.00000000000E+00  0.16185438404E+04  0.16185438404E+04  0.00000000000E+00 0. -1.
         21   -1    0    0  502  503 -0.00000000000E+00 -0.00000000000E+00 -0.10822256953E+03  0.10822256953E+03  0.00000000000E+00 0.  1.
         -6    2    1    2    0  503  0.12344936190E+03  0.62432486153E+02  0.14892719151E+04  0.15055709448E+04  0.17226570287E+03 0.  0.
        -24    2    3    3    0    0  0.12121644314E+02  0.10450869045E+02  0.31674156373E+03  0.32661146113E+03  0.78061984471E+02 0.  0.
          6    2    1    2  501    0 -0.12344936190E+03 -0.62432486153E+02  0.21049355787E+02  0.22119546516E+03  0.17130907199E+03 0.  0.
         24    2    5    5    0    0 -0.33006926035E+02 -0.88091592178E+02  0.36699489733E+00  0.12482081092E+03  0.82039712187E+02 0.  0.
          5    1    5    5  501    0 -0.90442435862E+02  0.25659106025E+02  0.20682360890E+02  0.96374654234E+02  0.47000000000E+01 0. -1.
        -11    1    6    6    0    0 -0.33712653421E+02 -0.42390151776E+02 -0.37158705536E+02  0.65682854425E+02  0.00000000000E+00 0.  1.
         12    1    6    6    0    0  0.70572738593E+00 -0.45701440402E+02  0.37525700433E+02  0.59137956500E+02  0.00000000000E+00 0. -1.
         -5    1    3    3    0  503  0.11132771758E+03  0.51981617108E+02  0.11725303514E+04  0.11789594837E+04  0.47000000000E+01 0.  1.
         13    1    4    4    0    0 -0.30921374082E+02  0.15548975554E+02  0.17504275112E+03  0.17843168647E+03  0.00000000000E+00 0. -1.
        -14    1    4    4    0    0  0.43043018396E+02 -0.50981065088E+01  0.14169881261E+03  0.14817977466E+03  0.00000000000E+00 0.  1.
</event>
<event>
12    1  0.1066489E+000  0.1812631E+03  0.7818608E-02  0.1166968E+00
         21   -1    0    0  503  502  0.00000000000E+00  0.00000000000E+00  0.73260909357E+03  0.73260909357E+03  0.00000000000E+00 0.  1.
         21   -1    0    0  501  503 -0.00000000000E+00 -0.00000000000E+00 -0.44569132110E+02  0.44569132110E+02  0.00000000000E+00 0.  1.
          6    2    1    2  501    0 -0.10679656527E+02 -0.54743418008E+02  0.32603349113E+03  0.37303369188E+03  0.17246855092E+03 0.  0.
         24    2    3    3    0    0 -0.61526260211E+02 -0.13987746374E+02  0.26256546769E+03  0.28194756847E+03  0.81071997641E+02 0.  0.
         -6    2    1    2    0  502  0.10679656527E+02  0.54743418008E+02  0.36200647033E+03  0.40414453380E+03  0.17080170598E+03 0.  0.
        -24    2    5    5    0    0  0.57863744874E+02  0.39196597451E+02  0.32537817784E+03  0.34224329284E+03  0.79843137810E+02 0.  0.
          5    1    3    3  501    0  0.50846603684E+02 -0.40755671633E+02  0.63468023447E+02  0.91086123404E+02  0.47000000000E+01 0. -1.
        -13    1    4    4    0    0  0.11300623214E+02  0.19369259042E+02  0.65073212593E+02  0.68828738750E+02  0.00000000000E+00 0.  1.
         14    1    4    4    0    0 -0.72826883425E+02 -0.33357005416E+02  0.19749225509E+03  0.21311882972E+03  0.00000000000E+00 0. -1.
         -5    1    5    5    0  502 -0.47184088347E+02  0.15546820557E+02  0.36628292487E+02  0.61901240966E+02  0.47000000000E+01 0.  1.
         13    1    6    6    0    0  0.52371781374E+02  0.49184459276E+02  0.14818267680E+03  0.16468157220E+03  0.00000000000E+00 0. -1.
        -14    1    6    6    0    0  0.54919635001E+01 -0.99878618254E+01  0.17719550104E+03  0.17756172064E+03  0.00000000000E+00 0.  1.
</event>
<event>
12    1  0.1066489E+000  0.1944777E+03  0.7818608E-02  0.1154798E+00
         21   -1    0    0  503  502  0.00000000000E+00  0.00000000000E+00  0.86415244353E+03  0.86415244353E+03  0.00000000000E+00 0.  1.
         21   -1    0    0  501  503 -0.00000000000E+00 -0.00000000000E+00 -0.48111813683E+02  0.48111813683E+02  0.00000000000E+00 0.  1.
          6    2    1    2  501    0  0.57167550715E+02  0.67181821510E+02  0.26733571548E+03  0.33059029966E+03  0.17332061466E+03 0.  0.
         24    2    3    3    0    0  0.49389559872E+02 -0.25120584778E+02  0.93888281509E+02  0.13390188186E+03  0.77745303114E+02 0.  0.
         -6    2    1    2    0  502 -0.57167550715E+02 -0.67181821510E+02  0.54870491437E+03  0.58167395755E+03  0.17171483292E+03 0.  0.
        -24    2    5    5    0    0  0.14487997501E+02 -0.36888397082E+02  0.43232509054E+03  0.44160767842E+03  0.80880787728E+02 0.  0.
          5    1    3    3  501    0  0.77779908427E+01  0.92302406288E+02  0.17344743397E+03  0.19668841780E+03  0.47000000000E+01 0. -1.
        -11    1    4    4    0    0  0.12120265239E+02  0.26854816572E+02  0.17476646176E+02  0.34256607598E+02  0.00000000000E+00 0.  1.
         12    1    4    4    0    0  0.37269294634E+02 -0.51975401350E+02  0.76411635333E+02  0.99645274260E+02  0.00000000000E+00 0. -1.
         -5    1    5    5    0  502 -0.71655548216E+02 -0.30293424428E+02  0.11637982384E+03  0.14006627913E+03  0.47000000000E+01 0.  1.
         11    1    6    6    0    0 -0.29212802127E+02 -0.34706257503E+02  0.18801727619E+03  0.19341253388E+03  0.00000000000E+00 0. -1.
        -12    1    6    6    0    0  0.43700799627E+02 -0.21821395791E+01  0.24430781435E+03  0.24819514454E+03  0.00000000000E+00 0.  1.
</event>
<event>
12    1  0.1066489E+000  0.2102152E+03  0.7818608E-02  0.1142050E+00
         21   -1    0    0  501  502  0.00000000000E+00  0.00000000000E+00  0.36111370296E+03  0.36111370296E+03  0.00000000000E+00 0. -1.
         21   -1    0    0  502  503 -0.00000000000E+00 -0.00000000000E+00 -0.21547276944E+03  0.21547276944E+03  0.00000000000E+00 0. -1.
         -6    2    1    2    0  503 -0.26509911308E+02 -0.11648054490E+03  0.26456570792E+03  0.33791335446E+03  0.17297378004E+03 0.  0.
        -24    2    3    3    0    0  0.39706104817E+02 -0.92835964656E+02  0.11184514668E+03  0.16971916077E+03  0.78103556928E+02 0.  0.
          6    2    1    2  501    0  0.26509911308E+02  0.11648054490E+03 -0.11892477440E+03  0.23867311793E+03  0.16897118844E+03 0.  0.
         24    2    5    5    0    0 -0.36204864286E+02  0.64920480884E+02 -0.11361618731E+03  0.15717554511E+03  0.79183665784E+02 0.  0.
          5    1    5    5  501    0  0.62714775593E+02  0.51560064015E+02 -0.53085870914E+01  0.81497572822E+02  0.47000000000E+01 0. -1.
        -13    1    6    6    0    0 -0.32218388765E+02  0.62499168720E+02 -0.35222938748E+02  0.78643665221E+02  0.00000000000E+00 0.  1.
         14    1    6    6    0    0 -0.39864755205E+01  0.24213121639E+01 -0.78393248559E+02  0.78531879891E+02  0.00000000000E+00 0. -1.
         -5    1    3    3    0  503 -0.66216016124E+02 -0.23644580243E+02  0.15272056124E+03  0.16819419369E+03  0.47000000000E+01 0.  1.
         13    1    4    4    0    0  0.29262116597E+02 -0.86892579825E+01  0.15049770615E+01  0.30562061907E+02  0.00000000000E+00 0. -1.
        -14    1    4    4    0    0  0.10443988220E+02 -0.84146706673E+02  0.11034016962E+03  0.13915709887E+03  0.00000000000E+00 0.  1.
</event>
<event>
12    1  0.1066489E+000  0.2250271E+03  0.7818608E-02  0.1130372E+00
         21   -1    0    0  501  502  0.00000000000E+00  0.00000000000E+00  0.86689418903E+02  0.86689418903E+02  0.00000000000E+00 0.  1.
         21   -1    0    0  502  503 -0.00000000000E+00 -0.00000000000E+00 -0.66667656301E+03  0.66667656301E+03  0.00000000000E+00 0.  1.
         -6    2    1    2    0  503 -0.14243795878E+03  0.27282357685E+02 -0.42405873015E+03  0.47959443598E+03  0.17073991117E+03 0.  0.
        -24    2    3    3    0    0 -0.16110852965E+03 -0.82288730728E+01 -0.31140981330E+03  0.35992194042E+03  0.80895356466E+02 0.  0.
          6    2    1    2  501    0  0.14243795878E+03 -0.27282357685E+02 -0.15592841396E+03  0.27377154593E+03  0.17205897228E+03 0.  0.
         24    2    5    5    0    0  0.76475321718E+02 -0.34664356287E+02 -0.32058350182E+02  0.13316057164E+03  0.98254300645E+02 0.  0.
          5    1    5    5  501    0  0.65962637058E+02  0.73819986021E+01 -0.12387006378E+03  0.14061097429E+03  0.47000000000E+01 0. -1.
        -11    1    6    6    0    0 -0.17108828668E+01 -0.29449494699E+02 -0.44931988541E+02  0.53750194907E+02  0.00000000000E+00 0.  1.
         12    1    6    6    0    0  0.78186204585E+02 -0.52148615876E+01  0.12873638360E+02  0.79410376736E+02  0.00000000000E+00 0. -1.
         -5    1    3    3    0  503  0.18670570873E+02  0.35511230758E+02 -0.11264891685E+03  0.11967249556E+03  0.47000000000E+01 0.  1.
         13    1    4    4    0    0 -0.12295852637E+03  0.29702260582E+02 -0.21116890507E+03  0.24615712453E+03  0.00000000000E+00 0. -1.
        -14    1    4    4    0    0 -0.38150003281E+02 -0.37931133654E+02 -0.10024090823E+03  0.11376481588E+03  0.00000000000E+00 0.  1.
</event>
<event>
12    1  0.1066489E+000  0.4166708E+03  0.7818608E-02  0.1038171E+00
         21   -1    0    0  503  502  0.00000000000E+00  0.00000000000E+00  0.13476874118E+03  0.13476874118E+03  0.00000000000E+00 0.  1.
         21   -1    0    0  501  503 -0.00000000000E+00 -0.00000000000E+00 -0.12878253385E+04  0.12878253385E+04  0.00000000000E+00 0.  1.
          6    2    1    2  501    0 -0.27989227413E+03  0.25618600147E+03 -0.58482144628E+03  0.71807427179E+03  0.17217312018E+03 0.  0.
         24    2    3    3    0    0 -0.72942652270E+02  0.48504152606E+02 -0.14860839669E+03  0.19246623250E+03  0.85355209245E+02 0.  0.
         -6    2    1    2    0  502  0.27989227413E+03 -0.25618600147E+03 -0.56823515101E+03  0.70451980785E+03  0.17171493920E+03 0.  0.
        -24    2    5    5    0    0  0.19640240122E+03 -0.20700658158E+03 -0.51211662686E+03  0.59244593502E+03  0.85458284521E+02 0.  0.
          5    1    3    3  501    0 -0.20694962186E+03  0.20768184886E+03 -0.43621304959E+03  0.52560803929E+03  0.47000000000E+01 0. -1.
        -11    1    4    4    0    0 -0.13330157003E+02  0.32134894148E+02 -0.11888837617E+03  0.12387409130E+03  0.00000000000E+00 0.  1.
         12    1    4    4    0    0 -0.59612495267E+02  0.16369258458E+02 -0.29720020523E+02  0.68592141200E+02  0.00000000000E+00 0. -1.
         -5    1    5    5    0  502  0.83489872911E+02 -0.49179419888E+02 -0.56118524158E+02  0.11207387284E+03  0.47000000000E+01 0.  1.
         13    1    6    6    0    0  0.15315868529E+03 -0.11057253130E+03 -0.28467240231E+03  0.34164637302E+03  0.00000000000E+00 0. -1.
        -14    1    6    6    0    0  0.43243715931E+02 -0.96434050279E+02 -0.22744422454E+03  0.25079956200E+03  0.00000000000E+00 0.  1.
</event>
<event>
12    1  0.1066489E+000  0.2378274E+03  0.7818608E-02  0.1121406E+00
         21   -1    0    0  501  502  0.00000000000E+00  0.00000000000E+00  0.56387537481E+03  0.56387537481E+03  0.00000000000E+00 0.  1.
         21   -1    0    0  502  503 -0.00000000000E+00 -0.00000000000E+00 -0.16795230292E+03  0.16795230292E+03  0.00000000000E+00 0.  1.
         -6    2    1    2    0  503  0.83274670111E+02  0.14026032510E+03  0.43108323367E+03  0.49233590514E+03  0.17307298939E+03 0.  0.
        -24    2    3    3    0    0  0.82003288355E+02  0.14580155428E+03  0.24660635883E+03  0.30771161371E+03  0.76740526873E+02 0.  0.
          6    2    1    2  501    0 -0.83274670111E+02 -0.14026032510E+03 -0.35160161785E+02  0.23949177259E+03  0.17179185861E+03 0.  0.
         24    2    5    5    0    0 -0.14334031009E+02 -0.14633757518E+03 -0.29497309742E+02  0.16989362188E+03  0.79834836518E+02 0.  0.
          5    1    5    5  501    0 -0.68940639102E+02  0.60772500797E+01 -0.56628520425E+01  0.69598150705E+02  0.47000000000E+01 0. -1.
        -11    1    6    6    0    0  0.24325236032E+02 -0.41111332698E+02 -0.32455784439E+02  0.57751508446E+02  0.00000000000E+00 0.  1.
         12    1    6    6    0    0 -0.38659267040E+02 -0.10522624248E+03  0.29584746967E+01  0.11214211344E+03  0.00000000000E+00 0. -1.
         -5    1    3    3    0  503  0.12713817557E+01 -0.55412291883E+01  0.18447687485E+03  0.18462429143E+03  0.47000000000E+01 0.  1.
         11    1    4    4    0    0  0.42842734469E+02  0.23951400021E+02  0.11033510471E+03  0.12076011258E+03  0.00000000000E+00 0. -1.
        -12    1    4    4    0    0  0.39160553886E+02  0.12185015426E+03  0.13627125412E+03  0.18695150113E+03  0.00000000000E+00 0.  1.
</event>
<event>
12    1  0.1066489E+000  0.2367393E+03  0.7818608E-02  0.1122104E+00
         21   -1    0    0  501  502  0.00000000000E+00  0.00000000000E+00  0.67384487788E+03  0.67384487788E+03  0.00000000000E+00 0. -1.
         21   -1    0    0  502  503 -0.00000000000E+00 -0.00000000000E+00 -0.27763177386E+03  0.27763177386E+03  0.00000000000E+00 0. -1.
         -6    2    1    2    0  503 -0.18942708397E+02 -0.16141071326E+03  0.59642203226E+03  0.64142970907E+03  0.17117414103E+03 0.  0.
        -24    2    3    3    0    0 -0.40737457155E+02 -0.36004151175E+02  0.15095403664E+03  0.17810947207E+03  0.77330611972E+02 0.  0.
          6    2    1    2  501    0  0.18942708397E+02  0.16141071326E+03 -0.20020892824E+03  0.31004694267E+03  0.17214310081E+03 0.  0.
         24    2    5    5    0    0 -0.20104814063E+02  0.15936564783E+03 -0.20385824805E+03  0.27049572476E+03  0.76211144575E+02 0.  0.
          5    1    5    5  501    0  0.39047522460E+02  0.20450654292E+01  0.36493198177E+01  0.39551217908E+02  0.47000000000E+01 0. -1.
        -11    1    6    6    0    0  0.27214418656E+02  0.32901091322E+02 -0.52166589207E+02  0.67412605812E+02  0.00000000000E+00 0.  1.
         12    1    6    6    0    0 -0.47319232719E+02  0.12646455651E+03 -0.15169165885E+03  0.20308311895E+03  0.00000000000E+00 0. -1.
         -5    1    3    3    0  503  0.21794748758E+02 -0.12540656209E+03  0.44546799562E+03  0.46332023700E+03  0.47000000000E+01 0.  1.
         11    1    4    4    0    0  0.11820699156E+02 -0.38479838464E+02  0.82246984771E+02  0.91569609591E+02  0.00000000000E+00 0. -1.
        -12    1    4    4    0    0 -0.52558156311E+02  0.24756872894E+01  0.68707051864E+02  0.86539862481E+02  0.00000000000E+00 0.  1.
</event>
<event>
12    1  0.1066489E+000  0.2802239E+03  0.7818608E-02  0.1095612E+00
         21   -1    0    0  501  502  0.00000000000E+00  0.00000000000E+00  0.55512991741E+03  0.55512991741E+03  0.00000000000E+00 0. -1.
         21   -1    0    0  502  503 -0.00000000000E+00 -0.00000000000E+00 -0.16287640099E+03  0.16287640099E+03  0.00000000000E+00 0. -1.
         -6    2    1    2    0  503 -0.21989369159E+03 -0.18134065291E+02  0.32673094044E+03  0.43022408122E+03  0.17221374133E+03 0.  0.
        -24    2    3    3    0    0 -0.66575127727E+02 -0.59100895199E+02  0.12719487367E+03  0.17523075755E+03  0.81253424901E+02 0.  0.
          6    2    1    2  501    0  0.21989369159E+03  0.18134065291E+02  0.65522575983E+02  0.28778223717E+03  0.17275221602E+03 0.  0.
         24    2    5    5    0    0  0.94546713191E+02  0.60893545001E+02 -0.49500177251E+01  0.13768655248E+03  0.79284167773E+02 0.  0.
          5    1    5    5  501    0  0.12534697840E+03 -0.42759479710E+02  0.70472593708E+02  0.15009568469E+03  0.47000000000E+01 0. -1.
        -11    1    6    6    0    0  0.10119096089E+03  0.42614464115E+02  0.13811321535E+02  0.11066325371E+03  0.00000000000E+00 0.  1.
         12    1    6    6    0    0 -0.66442477028E+01  0.18279080886E+02 -0.18761339261E+02  0.27023298770E+02  0.00000000000E+00 0. -1.
         -5    1    3    3    0  503 -0.15331856386E+03  0.40966829909E+02  0.19953606677E+03  0.25499332368E+03  0.47000000000E+01 0.  1.
         13    1    4    4    0    0 -0.11484488540E+02  0.20469653516E+01  0.78993894260E+02  0.79850603470E+02  0.00000000000E+00 0. -1.
        -14    1    4    4    0    0 -0.55090639187E+02 -0.61147860551E+02  0.48200979407E+02  0.95380154077E+02  0.00000000000E+00 0.  1.
</event>
<event>
12    1  0.1066489E+000  0.3007893E+03  0.7818608E-02  0.1084914E+00
         21   -1    0    0  503  502  0.00000000000E+00  0.00000000000E+00  0.14910793836E+03  0.14910793836E+03  0.00000000000E+00 0. -1.
         21   -1    0    0  501  503 -0.00000000000E+00 -0.00000000000E+00 -0.12007454270E+04  0.12007454270E+04  0.00000000000E+00 0. -1.
          6    2    1    2  501    0  0.53905280766E+02  0.24151748129E+03 -0.50445578313E+02  0.30445418522E+03  0.17003270704E+03 0.  0.
         24    2    3    3    0    0  0.78303247178E+02  0.11375871510E+03  0.19752757842E+02  0.15657768437E+03  0.71091181035E+02 0.  0.
         -6    2    1    2    0  502 -0.53905280766E+02 -0.24151748129E+03 -0.10011919103E+04  0.10453991801E+04  0.17099044264E+03 0.  0.
        -24    2    5    5    0    0 -0.18558551299E+02 -0.12562604904E+03 -0.32058498209E+03  0.35407574200E+03  0.80427459935E+02 0.  0.
          5    1    3    3  501    0 -0.24397966412E+02  0.12775876620E+03 -0.70198336156E+02  0.14787650085E+03  0.47000000000E+01 0. -1.
        -13    1    4    4    0    0  0.72861868183E+02  0.11886586614E+03  0.43794584197E+01  0.13948880107E+03  0.00000000000E+00 0.  1.
         14    1    4    4    0    0  0.54413789942E+01 -0.51071510451E+01  0.15373299423E+02  0.17088883296E+02  0.00000000000E+00 0. -1.
         -5    1    5    5    0  502 -0.35346729468E+02 -0.11589143225E+03 -0.68060692822E+03  0.69132343812E+03  0.47000000000E+01 0.  1.
         11    1    6    6    0    0 -0.34640111068E+02 -0.12913401458E+03 -0.28012228738E+03  0.31039334223E+03  0.00000000000E+00 0. -1.
        -12    1    6    6    0    0  0.16081559769E+02  0.35079655346E+01 -0.40462694704E+02  0.43682399769E+02  0.00000000000E+00 0.  1.
</event>
<event>
12    1  0.1066489E+000  0.1858144E+03  0.7818608E-02  0.1162448E+00
         21   -1    0    0  503  502  0.00000000000E+00  0.00000000000E+00  0.52941932839E+02  0.52941932839E+02  0.00000000000E+00 0.  1.
         21   -1    0    0  501  503 -0.00000000000E+00 -0.00000000000E+00 -0.65018229354E+03  0.65018229354E+03  0.00000000000E+00 0.  1.
          6    2    1    2  501    0 -0.69674586661E+02 -0.17261568791E+01 -0.29072194797E+03  0.34503078204E+03  0.17224825653E+03 0.  0.
         24    2    3    3    0    0  0.10759779233E+02 -0.42706671589E+01 -0.57216583145E+02  0.98002429107E+02  0.78719294185E+02 0.  0.
         -6    2    1    2    0  502  0.69674586661E+02  0.17261568791E+01 -0.30651841273E+03  0.35809344434E+03  0.17152215569E+03 0.  0.
        -24    2    5    5    0    0  0.10240502862E+03 -0.31598992369E+02 -0.25881126314E+03  0.29116131808E+03  0.79412574667E+02 0.  0.
          5    1    3    3  501    0 -0.80434365895E+02  0.25445102798E+01 -0.23350536483E+03  0.24702835293E+03  0.47000000000E+01 0. -1.
        -13    1    4    4    0    0 -0.23839188872E+02 -0.13202995383E+02 -0.55964978925E+02  0.62247127478E+02  0.00000000000E+00 0.  1.
         14    1    4    4    0    0  0.34598968105E+02  0.89323282242E+01 -0.12516042201E+01  0.35755301629E+02  0.00000000000E+00 0. -1.
         -5    1    5    5    0  502 -0.32730441958E+02  0.33325149249E+02 -0.47707149593E+02  0.66932126258E+02  0.47000000000E+01 0.  1.
         13    1    6    6    0    0  0.76310449716E+02  0.13037528917E+02 -0.11771916911E+03  0.14089380637E+03  0.00000000000E+00 0. -1.
        -14    1    6    6    0    0  0.26094578903E+02 -0.44636521286E+02 -0.14109209403E+03  0.15026751172E+03  0.00000000000E+00 0.  1.
</event>
<event>
12    1  0.1066489E+000  0.2045547E+03  0.7818608E-02  0.1146103E+00
         21   -1    0    0  501  502  0.00000000000E+00  0.00000000000E+00  0.65398636132E+02  0.65398636132E+02  0.00000000000E+00 0. -1.
         21   -1    0    0  502  503 -0.00000000000E+00 -0.00000000000E+00 -0.65165969336E+03  0.65165969336E+03  0.00000000000E+00 0. -1.
         -6    2    1    2    0  503 -0.10254366100E+03 -0.36925628070E+02 -0.24081043366E+03  0.31596247694E+03  0.17310088809E+03 0.  0.
        -24    2    3    3    0    0 -0.86763654359E+01 -0.67328526452E+02 -0.13992794238E+03  0.17477192325E+03  0.79730711189E+02 0.  0.
          6    2    1    2  501    0  0.10254366100E+03  0.36925628070E+02 -0.34545062357E+03  0.40109585255E+03  0.17222962924E+03 0.  0.
         24    2    5    5    0    0  0.76065340486E+01  0.48934219606E+02 -0.22656935367E+03  0.24841281264E+03  0.89010315418E+02 0.  0.
          5    1    5    5  501    0  0.94937126948E+02 -0.12008591536E+02 -0.11888126990E+03  0.15268303991E+03  0.47000000000E+01 0. -1.
        -13    1    6    6    0    0  0.32028227720E+02  0.62977894235E+02 -0.18646863398E+03  0.19940555156E+03  0.00000000000E+00 0.  1.
         14    1    6    6    0    0 -0.24421693671E+02 -0.14043674629E+02 -0.40100719690E+02  0.49007261079E+02  0.00000000000E+00 0. -1.
         -5    1    3    3    0  503 -0.93867295561E+02  0.30402898382E+02 -0.10088249128E+03  0.14119055370E+03  0.47000000000E+01 0.  1.
         11    1    4    4    0    0  0.29930958434E+02 -0.57047729368E+01 -0.55754173110E+02  0.63536875326E+02  0.00000000000E+00 0. -1.
        -12    1    4    4    0    0 -0.38607323869E+02 -0.61623753515E+02 -0.84173769267E+02  0.11123504792E+03  0.00000000000E+00 0.  1.
</event>
<event>
12    1  0.1066489E+000  0.1750168E+03  0.7818608E-02  0.1172983E+00
         21   -1    0    0  503  502  0.00000000000E+00  0.00000000000E+00  0.22939911566E+03  0.22939911566E+03  0.00000000000E+00 0.  1.
         21   -1    0    0  501  503 -0.00000000000E+00 -0.00000000000E+00 -0.23450327173E+03  0.23450327173E+03  0.00000000000E+00 0.  1.
          6    2    1    2  501    0 -0.19648199965E+02  0.23353619123E+02  0.15026736250E+03  0.22986992129E+03  0.17125553186E+03 0.  0.
         24    2    3    3    0    0 -0.42108239970E+02  0.85237189334E+01  0.15090859470E+02  0.91959964041E+02  0.79894576093E+02 0.  0.
         -6    2    1    2    0  502  0.19648199965E+02 -0.23353619123E+02 -0.15537151857E+03  0.23403246611E+03  0.17233526371E+03 0.  0.
        -24    2    5    5    0    0  0.15723131006E+02  0.22128321779E+02 -0.16700391860E+03  0.18668887261E+03  0.78902134673E+02 0.  0.
          5    1    3    3  501    0  0.22460040005E+02  0.14829900189E+02  0.13517650303E+03  0.13790995725E+03  0.47000000000E+01 0. -1.
        -13    1    4    4    0    0  0.13874135453E+02 -0.84914255055E+01  0.27683898726E+02  0.32109098249E+02  0.00000000000E+00 0.  1.
         14    1    4    4    0    0 -0.55982375423E+02  0.17015144439E+02 -0.12593039256E+02  0.59850865791E+02  0.00000000000E+00 0. -1.
         -5    1    5    5    0  502  0.39250689588E+01 -0.45481940901E+02  0.11632400027E+02  0.47343593493E+02  0.47000000000E+01 0.  1.
         13    1    6    6    0    0 -0.29092332081E+01 -0.27886953342E+02 -0.78262537610E+02  0.83133450534E+02  0.00000000000E+00 0. -1.
        -14    1    6    6    0    0  0.18632364214E+02  0.50015275121E+02 -0.88741380992E+02  0.10355542208E+03  0.00000000000E+00 0.  1.
</event>
<event>
12    1  0.1066489E+000  0.1845734E+03  0.7818608E-02  0.1165627E+00
         21   -1    0    0  501  502  0.00000000000E+00  0.00000000000E+00  0.32165558251E+03  0.32165558251E+03  0.00000000000E+00 0.  1.
         21   -1    0    0  502  503 -0.00000000000E+00 -0.00000000000E+00 -0.17698915541E+03  0.17698915541E+03  0.00000000000E+00 0.  1.
         -6    2    1    2    0  503 -0.24934728134E+02 -0.23106344938E+02 -0.92275103631E+02  0.19829722473E+03  0.17219596610E+03 0.  0.
        -24    2    3    3    0    0 -0.83088191354E+01 -0.48130571677E+02  0.85699318444E+01  0.92967058327E+02  0.78637407109E+02 0.  0.
          6    2    1    2  501    0  0.24934728134E+02  0.23106344938E+02  0.23694153073E+03  0.30034751319E+03  0.18141580927E+03 0.  0.
         24    2    5    5    0    0  0.27513787646E+02  0.36323722642E+02  0.25864313092E+03  0.27437829926E+03  0.79440295776E+02 0.  0.
          5    1    5    5  501    0 -0.25790595117E+01 -0.13217377704E+02 -0.21701600195E+02  0.25969213935E+02  0.47000000000E+01 0. -1.
        -13    1    6    6    0    0 -0.20904604419E+02 -0.10127667802E+02  0.48352731599E+02  0.53642882045E+02  0.00000000000E+00 0.  1.
         14    1    6    6    0    0  0.48418392065E+02  0.46451390444E+02  0.21029039933E+03  0.22073541721E+03  0.00000000000E+00 0. -1.
         -5    1    3    3    0  503 -0.16625908999E+02  0.25024226739E+02 -0.10084503548E+03  0.10533016640E+03  0.47000000000E+01 0.  1.
         11    1    4    4    0    0  0.31691927569E+02 -0.29633086822E+02 -0.10978945448E+02  0.44755282937E+02  0.00000000000E+00 0. -1.
        -12    1    4    4    0    0 -0.40000746704E+02 -0.18497484856E+02  0.19548877292E+02  0.48211775390E+02  0.00000000000E+00 0.  1.
</event>
<event>
12    1  0.1066489E+000  0.4678959E+03  0.7818608E-02  0.1022540E+00
         21   -1    0    0  501  502  0.00000000000E+00  0.00000000000E+00  0.54606036730E+03  0.54606036730E+03  0.00000000000E+00 0. -1.
         21   -1    0    0  502  503 -0.00000000000E+00 -0.00000000000E+00 -0.41747470934E+03  0.41747470934E+03  0.00000000000E+00 0. -1.
         -6    2    1    2    0  503 -0.42225997012E+03  0.10428340172E+03 -0.32467413058E+02  0.46902096117E+03  0.17247613999E+03 0.  0.
        -24    2    3    3    0    0 -0.84555423165E+02  0.47575368486E+02 -0.24073104769E+02  0.12645313361E+03  0.77445757492E+02 0.  0.
          6    2    1    2  501    0  0.42225997012E+03 -0.10428340172E+03  0.16105307102E+03  0.49451411548E+03  0.17154477108E+03 0.  0.
         24    2    5    5    0    0  0.32591799410E+03 -0.87821915574E+02  0.56306255266E+02  0.35117276667E+03  0.78845988700E+02 0.  0.
          5    1    5    5  501    0  0.96341976019E+02 -0.16461486145E+02  0.10474681575E+03  0.14334134881E+03  0.47000000000E+01 0. -1.
        -13    1    6    6    0    0  0.15888779890E+03 -0.14850745958E+02 -0.26461308971E+01  0.15960225344E+03  0.00000000000E+00 0.  1.
         14    1    6    6    0    0  0.16703019520E+03 -0.72971169616E+02  0.58952386163E+02  0.19157051323E+03  0.00000000000E+00 0. -1.
         -5    1    3    3    0  503 -0.33770454695E+03  0.56708033233E+02 -0.83943082891E+01  0.34256782756E+03  0.47000000000E+01 0.  1.
         13    1    4    4    0    0  0.48515933379E+01  0.31713136909E+01  0.17410756717E+02  0.18350194492E+02  0.00000000000E+00 0. -1.
        -14    1    4    4    0    0 -0.89407016503E+02  0.44404054795E+02 -0.41483861486E+02  0.10810293912E+03  0.00000000000E+00 0.  1.
</event>
<event>
12    1  0.1066489E+000  0.1735701E+03  0.7818608E-02  0.1174634E+00
         21   -1    0    0  501  502  0.00000000000E+00  0.00000000000E+00  0.23031000029E+04  0.23031000029E+04  0.00000000000E+00 0.  1.
         21   -1    0    0  502  503 -0.00000000000E+00 -0.00000000000E+00 -0.14357028536E+02  0.14357028536E+02  0.00000000000E+00 0.  1.
         -6    2    1    2    0  503  0.13347122260E+02 -0.59640971870E+01  0.15130284800E+04  0.15229516611E+04  0.17295336022E+03 0.  0.
        -24    2    3    3    0    0  0.26652324731E+02  0.28929350903E+02  0.14179510428E+04  0.14206951689E+04  0.79008541162E+02 0.  0.
          6    2    1    2  501    0 -0.13347122260E+02  0.59640971870E+01  0.77571449439E+03  0.79450537030E+03  0.17114932224E+03 0.  0.
         24    2    5    5    0    0 -0.62792695611E+02 -0.68959819477E+01  0.66218929242E+03  0.66992484276E+03  0.79461681120E+02 0.  0.
          5    1    5    5  501    0  0.49445573351E+02  0.12860079135E+02  0.11352520197E+03  0.12458052754E+03  0.47000000000E+01 0. -1.
        -11    1    6    6    0    0 -0.78171004803E+01  0.14850316189E+02  0.42999082967E+03  0.43031819918E+03  0.00000000000E+00 0.  1.
         12    1    6    6    0    0 -0.54975595131E+02 -0.21746298137E+02  0.23219846275E+03  0.23960664358E+03  0.00000000000E+00 0. -1.
         -5    1    3    3    0  503 -0.13305202471E+02 -0.34893448090E+02  0.95077437214E+02  0.10225649221E+03  0.47000000000E+01 0.  1.
         11    1    4    4    0    0  0.53599865988E+01  0.27914813108E+02  0.15627375207E+03  0.15883781613E+03  0.00000000000E+00 0. -1.
        -12    1    4    4    0    0  0.21292338132E+02  0.10145377951E+01  0.12616772907E+04  0.12618573528E+04  0.00000000000E+00 0.  1.
</event>
<event>
12    1  0.1066489E+000  0.1871796E+03  0.7818608E-02  0.1161346E+00
         21   -1    0    0  501  502  0.00000000000E+00  0.00000000000E+00  0.28904596279E+03  0.28904596279E+03  0.00000000000E+00 0. -1.
         21   -1    0    0  502  503 -0.00000000000E+00 -0.00000000000E+00 -0.12878903510E+03  0.12878903510E+03  0.00000000000E+00 0. -1.
         -6    2    1    2    0  503  0.42213056596E+02 -0.60769760479E+02  0.13394725804E+03  0.23016964212E+03  0.17193397071E+03 0.  0.
        -24    2    3    3    0    0  0.22951908633E+02 -0.10279972866E+03  0.12598131004E+03  0.18302034336E+03  0.80812012000E+02 0.  0.
          6    2    1    2  501    0 -0.42213056596E+02  0.60769760479E+02  0.26309669645E+02  0.18766535577E+03  0.17044407031E+03 0.  0.
         24    2    5    5    0    0  0.33742835410E+02  0.59867452844E+02  0.46576568919E+02  0.10890655375E+03  0.70488082859E+02 0.  0.
          5    1    5    5  501    0 -0.75955892007E+02  0.90230763495E+00 -0.20266899274E+02  0.78758802021E+02  0.47000000000E+01 0. -1.
        -11    1    6    6    0    0 -0.63076666190E+01  0.18509241484E+02  0.47456913044E+02  0.51327743708E+02  0.00000000000E+00 0.  1.
         12    1    6    6    0    0  0.40050502029E+02  0.41358211360E+02 -0.88034412498E+00  0.57578810039E+02  0.00000000000E+00 0. -1.
         -5    1    3    3    0  503  0.19261147964E+02  0.42029968179E+02  0.79659479999E+01  0.47149298760E+02  0.47000000000E+01 0.  1.
         11    1    4    4    0    0  0.30633515256E+02 -0.42976138537E+01  0.14829328239E+02  0.34304383361E+02  0.00000000000E+00 0. -1.
        -12    1    4    4    0    0 -0.76816066230E+01 -0.98502114804E+02  0.11115198180E+03  0.14871596000E+03  0.00000000000E+00 0.  1.
</event>
<event>
12    1  0.1066489E+000  0.1831103E+03  0.7818608E-02  0.1165310E+00
         21   -1    0    0  501  502  0.00000000000E+00  0.00000000000E+00  0.20471129128E+03  0.20471129128E+03  0.00000000000E+00 0.  1.
         21   -1    0    0  502  503 -0.00000000000E+00 -0.00000000000E+00 -0.17266396737E+03  0.17266396737E+03  0.00000000000E+00 0.  1.
         -6    2    1    2    0  503  0.56685693641E+02  0.25289468131E+02 -0.30836715729E+02  0.18568870249E+03  0.17226887744E+03 0.  0.
        -24    2    3    3    0    0  0.90127684021E+02  0.60221834557E+02 -0.26606908199E+02  0.13691762278E+03  0.79302200968E+02 0.  0.
          6    2    1    2  501    0 -0.56685693641E+02 -0.25289468131E+02  0.62884039640E+02  0.19168655615E+03  0.17010734348E+03 0.  0.
         24    2    5    5    0    0 -0.54541854048E+02  0.47215605860E+02  0.27913549649E+02  0.11102301437E+03  0.79641799243E+02 0.  0.
          5    1    5    5  501    0 -0.21438395924E+01 -0.72505073990E+02  0.34970489991E+02  0.80663541781E+02  0.47000000000E+01 0. -1.
        -11    1    6    6    0    0 -0.37270679713E+02  0.70172422382E+01  0.49400705741E+02  0.62279811999E+02  0.00000000000E+00 0.  1.
         12    1    6    6    0    0 -0.17271174335E+02  0.40198363621E+02 -0.21487156092E+02  0.48743202374E+02  0.00000000000E+00 0. -1.
         -5    1    3    3    0  503 -0.33441990381E+02 -0.34932366427E+02 -0.42298075302E+01  0.48771079714E+02  0.47000000000E+01 0.  1.
         11    1    4    4    0    0  0.12829121690E+02  0.36622583807E+01 -0.38176029635E+02  0.40440174808E+02  0.00000000000E+00 0. -1.
        -12    1    4    4    0    0  0.77298562332E+02  0.56559576176E+02  0.11569121436E+02  0.96477447969E+02  0.00000000000E+00 0.  1.
</event>
<event>
12    1  0.1066489E+000  0.1884761E+03  0.7818608E-02  0.1160577E+00
         21   -1    0    0  501  502  0.00000000000E+00  0.00000000000E+00  0.86371509737E+02  0.86371509737E+02  0.00000000000E+00 0. -1.
         21   -1    0    0  502  503 -0.00000000000E+00 -0.00000000000E+00 -0.47725149585E+03  0.47725149585E+03  0.00000000000E+00 0. -1.
         -6    2    1    2    0  503 -0.67305640418E+02  0.20546754091E+02 -0.86712584623E+02  0.20746637551E+03  0.17484566423E+03 0.  0.
        -24    2    3    3    0    0 -0.20890301393E+02  0.34412267894E+02  0.14850921743E+02  0.94843677994E+02  0.84582294276E+02 0.  0.
          6    2    1    2  501    0  0.67305640418E+02 -0.20546754091E+02 -0.30416740149E+03  0.35615663008E+03  0.17139871261E+03 0.  0.
         24    2    5    5    0    0  0.59709464633E+02 -0.14288707497E+02 -0.32076179270E+03  0.33629891486E+03  0.80246153497E+02 0.  0.
          5    1    5    5  501    0  0.75961757851E+01 -0.62580465936E+01  0.16594391215E+02  0.19857715214E+02  0.47000000000E+01 0. -1.
        -11    1    6    6    0    0 -0.30653158396E+01 -0.21299981303E+02 -0.21410753334E+02  0.30356312738E+02  0.00000000000E+00 0.  1.
         12    1    6    6    0    0  0.62774780473E+02  0.70112738055E+01 -0.29935103937E+03  0.30594260212E+03  0.00000000000E+00 0. -1.
         -5    1    3    3    0  503 -0.46415339025E+02 -0.13865513803E+02 -0.10156350637E+03  0.11262269751E+03  0.47000000000E+01 0.  1.
         13    1    4    4    0    0 -0.41057064010E+02  0.44082529119E+02  0.30524562365E+02  0.67532960739E+02  0.00000000000E+00 0. -1.
        -14    1    4    4    0    0  0.20166762617E+02 -0.96702612255E+01 -0.15673640623E+02  0.27310717255E+02  0.00000000000E+00 0.  1.
</event>
<event>
12    1  0.1066489E+000  0.2160684E+03  0.7818608E-02  0.1136909E+00
         21   -1    0    0  501  502  0.00000000000E+00  0.00000000000E+00  0.17192688616E+03  0.17192688616E+03  0.00000000000E+00 0.  1.
         21   -1    0    0  502  503 -0.00000000000E+00 -0.00000000000E+00 -0.32319766581E+03  0.32319766581E+03  0.00000000000E+00 0.  1.
         -6    2    1    2    0  503  0.30209253493E+02  0.12602806942E+03  0.23670551618E+02  0.21736113896E+03  0.17288694698E+03 0.  0.
        -24    2    3    3    0    0  0.24375178909E+02  0.13265296405E+03 -0.33099758787E+02  0.15971667870E+03  0.78885139318E+02 0.  0.
          6    2    1    2  501    0 -0.30209253493E+02 -0.12602806942E+03 -0.17494133126E+03  0.27776341301E+03  0.17248875600E+03 0.  0.
         24    2    5    5    0    0 -0.39819513024E+02  0.27619343377E+00 -0.63042383839E+02  0.10868181041E+03  0.79067843364E+02 0.  0.
          5    1    5    5  501    0  0.96102595310E+01 -0.12630426285E+03 -0.11189894742E+03  0.16908160260E+03  0.47000000000E+01 0. -1.
        -11    1    6    6    0    0  0.83213441574E+01 -0.21909209011E+02  0.34045201954E+01  0.23682250017E+02  0.00000000000E+00 0.  1.
         12    1    6    6    0    0 -0.48140857182E+02  0.22185402445E+02 -0.66446904035E+02  0.84999560397E+02  0.00000000000E+00 0. -1.
         -5    1    3    3    0  503  0.58340745842E+01 -0.66248946281E+01  0.56770310405E+02  0.57644460259E+02  0.47000000000E+01 0.  1.
         13    1    4    4    0    0 -0.14131202171E+02  0.10994537061E+03 -0.30347296679E+02  0.11492882062E+03  0.00000000000E+00 0. -1.
        -14    1    4    4    0    0  0.38506381080E+02  0.22707593438E+02 -0.27524621083E+01  0.44787858079E+02  0.00000000000E+00 0.  1.
</event>
<event>
12    1  0.1066489E+000  0.2627626E+03  0.7818608E-02  0.1105574E+00
         21   -1    0    0  503  502  0.00000000000E+00  0.00000000000E+00  0.12866595130E+04  0.12866595130E+04  0.00000000000E+00 0.  1.
         21   -1    0    0  501  503 -0.00000000000E+00 -0.00000000000E+00 -0.83737789348E+02  0.83737789348E+02  0.00000000000E+00 0.  1.
          6    2    1    2  501    0 -0.19827509783E+03 -0.96402493296E+01  0.10132392366E+04  0.10467559050E+04  0.17215755893E+03 0.  0.
         24    2    3    3    0    0 -0.17614804871E+02 -0.11134843613E+02  0.32536110097E+03  0.33553245570E+03  0.79296385215E+02 0.  0.
         -6    2    1    2    0  502  0.19827509783E+03  0.96402493296E+01  0.18968248706E+03  0.32364139742E+03  0.17134281252E+03 0.  0.
        -24    2    5    5    0    0  0.12481341946E+03  0.19549563337E+02  0.37361678854E+02  0.15417596937E+03  0.80085949955E+02 0.  0.
          5    1    3    3  501    0 -0.18066029296E+03  0.14945942836E+01  0.68787813567E+03  0.71122344928E+03  0.47000000000E+01 0. -1.
        -13    1    4    4    0    0 -0.10137687873E+02  0.24480602279E+02  0.25447321645E+03  0.25584896031E+03  0.00000000000E+00 0.  1.
         14    1    4    4    0    0 -0.74771169983E+01 -0.35615445892E+02  0.70887884526E+02  0.79683495389E+02  0.00000000000E+00 0. -1.
         -5    1    5    5    0  502  0.73461678369E+02 -0.99093140074E+01  0.15232080820E+03  0.16946542805E+03  0.47000000000E+01 0.  1.
         11    1    6    6    0    0  0.90185953356E+02  0.50303135492E+02  0.26148587602E+02  0.10652539724E+03  0.00000000000E+00 0. -1.
        -12    1    6    6    0    0  0.34627466107E+02 -0.30753572155E+02  0.11213091252E+02  0.47650572134E+02  0.00000000000E+00 0.  1.
</event>
<event>
12    1  0.1066489E+000  0.2622909E+03  0.7818608E-02  0.1105832E+00
         21   -1    0    0  503  502  0.00000000000E+00  0.00000000000E+00  0.24967498440E+03  0.24967498440E+03  0.00000000000E+00 0.  1.
         21   -1    0    0  501  503 -0.00000000000E+00 -0.00000000000E+00 -0.36177507181E+03  0.36177507181E+03  0.00000000000E+00 0.  1.
          6    2    1    2  501    0  0.19765523566E+03  0.70243815380E+01  0.93530533268E+02  0.27846807303E+03  0.17227760425E+03 0.  0.
         24    2    3    3    0    0  0.19831817484E+03  0.33550008674E+02  0.42032515110E+02  0.22034592358E+03  0.79560619371E+02 0.  0.
         -6    2    1    2    0  502 -0.19765523566E+03 -0.70243815380E+01 -0.20563062068E+03  0.33298198318E+03  0.17168609391E+03 0.  0.
        -24    2    5    5    0    0 -0.12702278119E+03  0.21091467046E+02 -0.51556610840E+02  0.16110896297E+03  0.81965705679E+02 0.  0.
          5    1    3    3  501    0 -0.66293918627E+00 -0.26525627136E+02  0.51498018158E+02  0.58122149457E+02  0.47000000000E+01 0. -1.
        -13    1    4    4    0    0  0.73819006923E+02 -0.22687605816E+02 -0.62493088354E+00  0.77229293532E+02  0.00000000000E+00 0.  1.
         14    1    4    4    0    0  0.12449916792E+03  0.56237614491E+02  0.42657445994E+02  0.14311663004E+03  0.00000000000E+00 0. -1.
         -5    1    5    5    0  502 -0.70632454473E+02 -0.28115848583E+02 -0.15407400984E+03  0.17187302020E+03  0.47000000000E+01 0.  1.
         11    1    6    6    0    0 -0.44317058777E+02 -0.28008591518E+02 -0.36196788801E+02  0.63707852083E+02  0.00000000000E+00 0. -1.
        -12    1    6    6    0    0 -0.82705722408E+02  0.49100058563E+02 -0.15359822039E+02  0.97401110892E+02  0.00000000000E+00 0.  1.
</event>
<event>
12    1  0.1066489E+000  0.1809737E+03  0.7818608E-02  0.1167211E+00
         21   -1    0    0  501  502  0.00000000000E+00  0.00000000000E+00  0.21719185341E+03  0.21719185341E+03  0.00000000000E+00 0. -1.
         21   -1    0    0  502  503 -0.00000000000E+00 -0.00000000000E+00 -0.14967043160E+03  0.14967043160E+03  0.00000000000E+00 0. -1.
         -6    2    1    2    0  503 -0.30941931953E+02 -0.41785257578E+02  0.29592425344E+02  0.18195667852E+03  0.17184036288E+03 0.  0.
        -24    2    3    3    0    0 -0.26848223321E+02  0.41162594407E+02 -0.88718085547E+00  0.93366605748E+02  0.79381041220E+02 0.  0.
          6    2    1    2  501    0  0.30941931953E+02  0.41785257578E+02  0.37928996465E+02  0.18490560650E+03  0.17334377300E+03 0.  0.
         24    2    5    5    0    0  0.34715577289E+02 -0.43226665786E+02  0.76922564628E+00  0.91931383830E+02  0.73328518895E+02 0.  0.
          5    1    5    5  501    0 -0.37736453356E+01  0.85011923364E+02  0.37159770819E+02  0.92974222667E+02  0.47000000000E+01 0. -1.
        -11    1    6    6    0    0 -0.91606502724E+01  0.15734571861E+02  0.27269747478E+01  0.18410069428E+02  0.00000000000E+00 0.  1.
         12    1    6    6    0    0  0.43876227561E+02 -0.58961237647E+02 -0.19577491016E+01  0.73521314402E+02  0.00000000000E+00 0. -1.
         -5    1    3    3    0  503 -0.40937086324E+01 -0.82947851985E+02  0.30479606199E+02  0.88590072770E+02  0.47000000000E+01 0.  1.
         13    1    4    4    0    0 -0.38705914345E+02  0.59761292056E+02  0.12000471783E+01  0.71210953839E+02  0.00000000000E+00 0. -1.
        -14    1    4    4    0    0  0.11857691024E+02 -0.18598697649E+02 -0.20872280338E+01  0.22155651909E+02  0.00000000000E+00 0.  1.
</event>
<event>
12    1  0.1066489E+000  0.1873827E+03  0.7818608E-02  0.1161224E+00
         21   -1    0    0  501  502  0.00000000000E+00  0.00000000000E+00  0.14632618191E+04  0.14632618191E+04  0.00000000000E+00 0.  1.
         21   -1    0    0  502  503 -0.00000000000E+00 -0.00000000000E+00 -0.43152952536E+02  0.43152952536E+02  0.00000000000E+00 0.  1.
         -6    2    1    2    0  503 -0.69631667374E+02 -0.19030985097E+02  0.12163854122E+04  0.12307338305E+04  0.17292062681E+03 0.  0.
        -24    2    3    3    0    0 -0.11057751244E+03 -0.19158014718E+02  0.74621828633E+03  0.75876371009E+03  0.79285692997E+02 0.  0.
          6    2    1    2  501    0  0.69631667374E+02  0.19030985097E+02  0.20372345439E+03  0.27568094110E+03  0.17113149308E+03 0.  0.
         24    2    5    5    0    0  0.74806065411E+02 -0.71937247853E+01  0.21883859125E+03  0.24461541091E+03  0.79364180418E+02 0.  0.
          5    1    5    5  501    0 -0.51743980372E+01  0.26224709882E+02 -0.15115136867E+02  0.31065530190E+02  0.47000000000E+01 0. -1.
        -13    1    6    6    0    0  0.77942403096E+02  0.21107651717E+02  0.16569166432E+03  0.18432112952E+03  0.00000000000E+00 0.  1.
         14    1    6    6    0    0 -0.31363376845E+01 -0.28301376502E+02  0.53146926936E+02  0.60294281393E+02  0.00000000000E+00 0. -1.
         -5    1    3    3    0  503  0.40945845068E+02  0.12702962073E+00  0.47016712584E+03  0.47197012044E+03  0.47000000000E+01 0.  1.
         11    1    4    4    0    0 -0.94036681743E+02  0.69469793306E+00  0.69563260789E+03  0.70196018782E+03  0.00000000000E+00 0. -1.
        -12    1    4    4    0    0 -0.16540830699E+02 -0.19852712651E+02  0.50585678441E+02  0.56803522277E+02  0.00000000000E+00 0.  1.
</event>
<event>
12    1  0.1066489E+000  0.3612544E+03  0.7818608E-02  0.1058124E+00
         21   -1    0    0  501  502  0.00000000000E+00  0.00000000000E+00  0.25564022361E+03  0.25564022361E+03  0.00000000000E+00 0.  1.
         21   -1    0    0  502  503 -0.00000000000E+00 -0.00000000000E+00 -0.57425614161E+03  0.57425614161E+03  0.00000000000E+00 0.  1.
         -6    2    1    2    0  503  0.26023286775E+03  0.18214616569E+03 -0.20416092922E+02  0.36146507677E+03  0.17129452338E+03 0.  0.
        -24    2    3    3    0    0  0.19538203978E+03  0.16923234620E+03 -0.69204832015E+02  0.27915573535E+03  0.79529160299E+02 0.  0.
          6    2    1    2  501    0 -0.26023286775E+03 -0.18214616569E+03 -0.29819982508E+03  0.46843128845E+03  0.17206500280E+03 0.  0.
         24    2    5    5    0    0 -0.22043601308E+03 -0.12851143460E+03 -0.15225299274E+03  0.30786030137E+03  0.80559088100E+02 0.  0.
          5    1    5    5  501    0 -0.39796854662E+02 -0.53634731097E+02 -0.14594683234E+03  0.16057098708E+03  0.47000000000E+01 0. -1.
        -11    1    6    6    0    0 -0.49247320013E+02 -0.70911990766E+02 -0.59178237094E+02  0.10467030481E+03  0.00000000000E+00 0.  1.
         12    1    6    6    0    0 -0.17118869307E+03 -0.57599443830E+02 -0.93074755642E+02  0.20318999656E+03  0.00000000000E+00 0. -1.
         -5    1    3    3    0  503  0.64850827970E+02  0.12913819496E+02  0.48788739093E+02  0.82309341418E+02  0.47000000000E+01 0.  1.
         13    1    4    4    0    0  0.76083442280E+02  0.54470391964E+02  0.12759790847E+02  0.94437948158E+02  0.00000000000E+00 0. -1.
        -14    1    4    4    0    0  0.11929859750E+03  0.11476195423E+03 -0.81964622862E+02  0.18471778719E+03  0.00000000000E+00 0.  1.
</event>
<event>
12    1  0.1066489E+000  0.4868725E+03  0.7818608E-02  0.1017299E+00
         21   -1    0    0  503  502  0.00000000000E+00  0.00000000000E+00  0.72746904505E+03  0.72746904505E+03  0.00000000000E+00 0. -1.
         21   -1    0    0  501  503 -0.00000000000E+00 -0.00000000000E+00 -0.40157258735E+03  0.40157258735E+03  0.00000000000E+00 0.  1.
          6    2    1    2  501    0  0.43326671918E+03  0.13911934666E+03 -0.82837721531E+02  0.49334639450E+03  0.17162265086E+03 0.  0.
         24    2    3    3    0    0  0.35190646640E+03  0.11123199474E+03 -0.52069877317E+01  0.37739029953E+03  0.78648634497E+02 0.  0.
         -6    2    1    2    0  502 -0.43326671918E+03 -0.13911934666E+03  0.40873417923E+03  0.63569523790E+03  0.17312008449E+03 0.  0.
        -24    2    5    5    0    0 -0.23493302795E+03 -0.85047959449E+02  0.31483154740E+03  0.40964267265E+03  0.79129848920E+02 0.  0.
          5    1    3    3  501    0  0.81360252782E+02  0.27887351923E+02 -0.77630733799E+02  0.11595609497E+03  0.47000000000E+01 0. -1.
        -11    1    4    4    0    0  0.45313475765E+02 -0.11915647059E+02  0.22148191117E+01  0.46906280543E+02  0.00000000000E+00 0.  1.
         12    1    4    4    0    0  0.30659299064E+03  0.12314764180E+03 -0.74218068434E+01  0.33048401898E+03  0.00000000000E+00 0. -1.
         -5    1    5    5    0  502 -0.19833369123E+03 -0.54071387210E+02  0.93902631832E+02  0.22605256525E+03  0.47000000000E+01 0.  1.
         13    1    6    6    0    0 -0.54868918170E+02  0.64336037702E+01  0.10348841558E+03  0.11731087588E+03  0.00000000000E+00 0. -1.
        -14    1    6    6    0    0 -0.18006410978E+03 -0.91481563219E+02  0.21134313181E+03  0.29233179678E+03  0.00000000000E+00 0.  1.
</event>
<event>
12    1  0.1066489E+000  0.3660306E+03  0.7818608E-02  0.1056830E+00
         21   -1    0    0  503  502  0.00000000000E+00  0.00000000000E+00  0.50003372079E+03  0.50003372079E+03  0.00000000000E+00 0. -1.
         21   -1    0    0  501  503 -0.00000000000E+00 -0.00000000000E+00 -0.44726286766E+03  0.44726286766E+03  0.00000000000E+00 0. -1.
          6    2    1    2  501    0  0.17079764672E+03  0.26696621530E+03 -0.27715890896E+03  0.45912468143E+03  0.18312732194E+03 0.  0.
         24    2    3    3    0    0  0.10517499583E+03  0.26910455997E+03 -0.23718242835E+03  0.38211095648E+03  0.79210067549E+02 0.  0.
         -6    2    1    2    0  502 -0.17079764672E+03 -0.26696621530E+03  0.32992976209E+03  0.48817190703E+03  0.17033897576E+03 0.  0.
        -24    2    5    5    0    0 -0.14931147369E+03 -0.23972433319E+03  0.20315754821E+03  0.35665361938E+03  0.78531157678E+02 0.  0.
          5    1    3    3  501    0  0.65622650885E+02 -0.21383446727E+01 -0.39976480613E+02  0.77013724941E+02  0.47000000000E+01 0. -1.
        -11    1    4    4    0    0  0.48233028725E+02  0.11142555723E+03 -0.51337107742E+02  0.13182404369E+03  0.00000000000E+00 0.  1.
         12    1    4    4    0    0  0.56941967109E+02  0.15767900275E+03 -0.18584532060E+03  0.25028691279E+03  0.00000000000E+00 0. -1.
         -5    1    5    5    0  502 -0.21486173035E+02 -0.27241882108E+02  0.12677221388E+03  0.13151828765E+03  0.47000000000E+01 0.  1.
         11    1    6    6    0    0 -0.11753479132E+02 -0.42130223665E+02  0.35019734263E+01  0.43878968034E+02  0.00000000000E+00 0. -1.
        -12    1    6    6    0    0 -0.13755799455E+03 -0.19759410953E+03  0.19965557478E+03  0.31277465135E+03  0.00000000000E+00 0.  1.
</event>
<event>
12    1  0.1066489E+000  0.2107474E+03  0.7818608E-02  0.1140976E+00
         21   -1    0    0  501  502  0.00000000000E+00  0.00000000000E+00  0.38136240734E+03  0.38136240734E+03  0.00000000000E+00 0. -1.
         21   -1    0    0  502  503 -0.00000000000E+00 -0.00000000000E+00 -0.20437692672E+03  0.20437692672E+03  0.00000000000E+00 0. -1.
         -6    2    1    2    0  503  0.84848847459E+02 -0.86792014959E+02 -0.10359316238E+03  0.23482791447E+03  0.17228007821E+03 0.  0.
        -24    2    3    3    0    0  0.98918863633E+02 -0.51062850873E+01 -0.59610495573E+02  0.14087532644E+03  0.80507333119E+02 0.  0.
          6    2    1    2  501    0 -0.84848847459E+02  0.86792014959E+02  0.28057864300E+03  0.35091141959E+03  0.17228542803E+03 0.  0.
         24    2    5    5    0    0 -0.54068769374E+02  0.92973564843E+02  0.28823643151E+03  0.31825630528E+03  0.81482021438E+02 0.  0.
          5    1    5    5  501    0 -0.30780078084E+02 -0.61815498836E+01 -0.76577885059E+01  0.32655114311E+02  0.47000000000E+01 0. -1.
        -11    1    6    6    0    0 -0.66091201301E+02  0.86308930096E+02  0.18868041314E+03  0.21775577284E+03  0.00000000000E+00 0.  1.
         12    1    6    6    0    0  0.12022431926E+02  0.66646347467E+01  0.99556018373E+02  0.10050053244E+03  0.00000000000E+00 0. -1.
         -5    1    3    3    0  503 -0.14070016174E+02 -0.81685729872E+02 -0.43982666805E+02  0.93952588038E+02  0.47000000000E+01 0.  1.
         11    1    4    4    0    0  0.29181902552E+02  0.12717223701E+02  0.16722778026E+02  0.35957788032E+02  0.00000000000E+00 0. -1.
        -12    1    4    4    0    0  0.69736961080E+02 -0.17823508788E+02 -0.76333273600E+02  0.10491753840E+03  0.00000000000E+00 0.  1.
</event>
<event>
12    1  0.1066489E+000  0.1984918E+03  0.7818608E-02  0.1152070E+00
         21   -1    0    0  503  502  0.00000000000E+00  0.00000000000E+00  0.67477903294E+03  0.67477903294E+03  0.00000000000E+00 0.  1.
         21   -1    0    0  501  503 -0.00000000000E+00 -0.00000000000E+00 -0.56970978957E+02  0.56970978957E+02  0.00000000000E+00 0.  1.
          6    2    1    2  501    0 -0.36213463717E+02  0.92721084071E+02  0.30955819843E+03  0.36512079187E+03  0.16606715526E+03 0.  0.
         24    2    3    3    0    0 -0.53717449076E+02  0.26095176078E+02  0.94284515103E+02  0.13904503056E+03  0.82930260974E+02 0.  0.
         -6    2    1    2    0  502  0.36213463717E+02 -0.92721084071E+02  0.30824985555E+03  0.36662922002E+03  0.17172768310E+03 0.  0.
        -24    2    5    5    0    0  0.25902376501E+02 -0.13743940854E+02  0.57585258554E+02  0.10357307039E+03  0.80941274326E+02 0.  0.
          5    1    3    3  501    0  0.17503985359E+02  0.66625907993E+02  0.21527368333E+03  0.22607576131E+03  0.47000000000E+01 0. -1.
        -11    1    4    4    0    0 -0.10015486826E+01 -0.14069382855E+02  0.65134430694E+02  0.66644164752E+02  0.00000000000E+00 0.  1.
         12    1    4    4    0    0 -0.52715900393E+02  0.40164558933E+02  0.29150084410E+02  0.72400865807E+02  0.00000000000E+00 0. -1.
         -5    1    5    5    0  502  0.10311087216E+02 -0.78977143217E+02  0.25066459699E+03  0.26305614963E+03  0.47000000000E+01 0.  1.
         13    1    6    6    0    0  0.33272923761E+02 -0.43531897800E+02  0.30883907128E+02  0.62896178749E+02  0.00000000000E+00 0. -1.
        -14    1    6    6    0    0 -0.73705472608E+01  0.29787956946E+02  0.26701351426E+02  0.40676891645E+02  0.00000000000E+00 0.  1.
</event>
<event>
12    1  0.1066489E+000  0.1912229E+03  0.7818608E-02  0.1160271E+00
         21   -1    0    0  501  502  0.00000000000E+00  0.00000000000E+00  0.42126423784E+03  0.42126423784E+03  0.00000000000E+00 0.  1.
         21   -1    0    0  502  503 -0.00000000000E+00 -0.00000000000E+00 -0.82530572515E+02  0.82530572515E+02  0.00000000000E+00 0.  1.
         -6    2    1    2    0  503  0.70672553195E+02  0.48540642482E+02  0.14307132514E+03  0.23882131001E+03  0.17092515991E+03 0.  0.
        -24    2    3    3    0    0  0.99605331681E+02  0.37474909354E+02  0.52593073986E+02  0.14307184498E+03  0.79861946290E+02 0.  0.
          6    2    1    2  501    0 -0.70672553195E+02 -0.48540642482E+02  0.19566234018E+03  0.26497350034E+03  0.15676862177E+03 0.  0.
         24    2    5    5    0    0  0.17839851583E+02 -0.30243780938E+02  0.96103059209E+02  0.13042476802E+03  0.80881861587E+02 0.  0.
          5    1    5    5  501    0 -0.88512404778E+02 -0.18296861544E+02  0.99559280973E+02  0.13454873232E+03  0.47000000000E+01 0. -1.
        -11    1    6    6    0    0  0.41904521805E+02  0.25531629540E+01  0.26020693888E+02  0.49392146129E+02  0.00000000000E+00 0.  1.
         12    1    6    6    0    0 -0.24064670222E+02 -0.32796943892E+02  0.70082365321E+02  0.81032621891E+02  0.00000000000E+00 0. -1.
         -5    1    3    3    0  503 -0.28932778487E+02  0.11065733128E+02  0.90478251153E+02  0.95749465024E+02  0.47000000000E+01 0.  1.
         11    1    4    4    0    0 -0.89100618998E+01  0.21622456010E+02  0.90248174948E+01  0.25067252298E+02  0.00000000000E+00 0. -1.
        -12    1    4    4    0    0  0.10851539358E+03  0.15852453344E+02  0.43568256491E+02  0.11800459268E+03  0.00000000000E+00 0.  1.
</event>
<event>
12    1  0.1066489E+000  0.1756050E+03  0.7818608E-02  0.1172316E+00
         21   -1    0    0  501  502  0.00000000000E+00  0.00000000000E+00  0.68164890093E+03  0.68164890093E+03  0.00000000000E+00 0. -1.
         21   -1    0    0  502  503 -0.00000000000E+00 -0.00000000000E+00 -0.58310189431E+02  0.58310189431E+02  0.00000000000E+00 0. -1.
         -6    2    1    2    0  503  0.30746028932E+02  0.10597288307E+02  0.48867011230E+03  0.51926447160E+03  0.17256735495E+03 0.  0.
        -24    2    3    3    0    0 -0.46088170238E+02 -0.85529703131E+01  0.20169769581E+03  0.22153055618E+03  0.78718194134E+02 0.  0.
          6    2    1    2  501    0 -0.30746028932E+02 -0.10597288307E+02  0.13466859920E+03  0.22069461877E+03  0.17179307997E+03 0.  0.
         24    2    5    5    0    0 -0.51399791647E+02 -0.48462614210E+02  0.13853649993E+03  0.17713533186E+03  0.84817453530E+02 0.  0.
          5    1    5    5  501    0  0.20653762715E+02  0.37865325903E+02 -0.38679007221E+01  0.43559286909E+02  0.47000000000E+01 0. -1.
        -13    1    6    6    0    0 -0.49124765661E+02  0.74404090675E+01  0.39847788026E+02  0.63690254348E+02  0.00000000000E+00 0.  1.
         14    1    6    6    0    0 -0.22750259862E+01 -0.55903023277E+02  0.98688711900E+02  0.11344507751E+03  0.00000000000E+00 0. -1.
         -5    1    3    3    0  503  0.76834199170E+02  0.19150258620E+02  0.28697241648E+03  0.29773391541E+03  0.47000000000E+01 0.  1.
         11    1    4    4    0    0 -0.30548632268E+02  0.22924192498E+02  0.16998586932E+03  0.17422380234E+03  0.00000000000E+00 0. -1.
        -12    1    4    4    0    0 -0.15539537970E+02 -0.31477162811E+02  0.31711826499E+02  0.47306753840E+02  0.00000000000E+00 0.  1.
</event>
<event>
12    1  0.1066489E+000  0.2365498E+03  0.7818608E-02  0.1122128E+00
         21   -1    0    0  501  502  0.00000000000E+00  0.00000000000E+00  0.31317173025E+03  0.31317173025E+03  0.00000000000E+00 0.  1.
         21   -1    0    0  502  503 -0.00000000000E+00 -0.00000000000E+00 -0.17928730509E+03  0.17928730509E+03  0.00000000000E+00 0.  1.
         -6    2    1    2    0  503 -0.16130304766E+03  0.20060284746E+02  0.82119097243E+02  0.25039839752E+03  0.17185669361E+03 0.  0.
        -24    2    3    3    0    0 -0.16292325430E+02  0.65610027196E+01 -0.39985380924E+01  0.81139196019E+02  0.79114437362E+02 0.  0.
          6    2    1    2  501    0  0.16130304766E+03 -0.20060284746E+02  0.51765327921E+02  0.24206063782E+03  0.17173414046E+03 0.  0.
         24    2    5    5    0    0  0.76306644070E+02 -0.76238653767E+02  0.23470996443E+02  0.13621614357E+03  0.79805474993E+02 0.  0.
          5    1    5    5  501    0  0.84996403591E+02  0.56178369021E+02  0.28294331478E+02  0.10584449425E+03  0.47000000000E+01 0. -1.
        -11    1    6    6    0    0 -0.15609431401E+02 -0.25808133285E+01 -0.12187140854E+01  0.15868213829E+02  0.00000000000E+00 0.  1.
         12    1    6    6    0    0  0.91916075471E+02 -0.73657840439E+02  0.24689710529E+02  0.12034792975E+03  0.00000000000E+00 0. -1.
         -5    1    3    3    0  503 -0.14501072223E+03  0.13499282027E+02  0.86117635336E+02  0.16925920150E+03  0.47000000000E+01 0.  1.
         13    1    4    4    0    0 -0.38032637280E+02  0.76098805513E+01  0.24048915785E+02  0.45637069701E+02  0.00000000000E+00 0. -1.
        -14    1    4    4    0    0  0.21740311850E+02 -0.10488778317E+01 -0.28047453878E+02  0.35502126317E+02  0.00000000000E+00 0.  1.
</event>
<event>
12    1  0.1066489E+000  0.2026997E+03  0.7818608E-02  0.1147564E+00
         21   -1    0    0  503  502  0.00000000000E+00  0.00000000000E+00  0.16957297497E+03  0.16957297497E+03  0.00000000000E+00 0. -1.
         21   -1    0    0  501  503 -0.00000000000E+00 -0.00000000000E+00 -0.24321908819E+03  0.24321908819E+03  0.00000000000E+00 0. -1.
          6    2    1    2  501    0  0.26663999166E+02  0.10432121491E+03 -0.21201858995E+02  0.20380554439E+03  0.17173612423E+03 0.  0.
         24    2    3    3    0    0  0.48738331267E+02  0.65222949719E+02 -0.73124903617E+02  0.13500116196E+03  0.79048112544E+02 0.  0.
         -6    2    1    2    0  502 -0.26663999166E+02 -0.10432121491E+03 -0.52444254218E+02  0.20898651877E+03  0.17126319072E+03 0.  0.
        -24    2    5    5    0    0 -0.71298960024E+01 -0.26778905756E+02 -0.85928350311E+02  0.12216678837E+03  0.82298830989E+02 0.  0.
          5    1    3    3  501    0 -0.22074332100E+02  0.39098265194E+02  0.51923044622E+02  0.68804382430E+02  0.47000000000E+01 0. -1.
        -13    1    4    4    0    0  0.35880896158E+02  0.74968806490E+02 -0.29012828194E+02  0.88031272031E+02  0.00000000000E+00 0.  1.
         14    1    4    4    0    0  0.12857435109E+02 -0.97458567712E+01 -0.44112075423E+02  0.46969889928E+02  0.00000000000E+00 0. -1.
         -5    1    5    5    0  502 -0.19534103164E+02 -0.77542309157E+02  0.33484096093E+02  0.86819730402E+02  0.47000000000E+01 0.  1.
         13    1    6    6    0    0  0.24598455145E+02  0.10003605279E+02 -0.39075253337E+01  0.26840731517E+02  0.00000000000E+00 0. -1.
        -14    1    6    6    0    0 -0.31728351148E+02 -0.36782511035E+02 -0.82020824977E+02  0.95326056850E+02  0.00000000000E+00 0.  1.
</event>
<event>
12    1  0.1066489E+000  0.2408169E+03  0.7818608E-02  0.1120795E+00
         21   -1    0    0  503  502  0.00000000000E+00  0.00000000000E+00  0.47741605226E+03  0.47741605226E+03  0.00000000000E+00 0. -1.
         21   -1    0    0  501  503 -0.00000000000E+00 -0.00000000000E+00 -0.11694559282E+03  0.11694559282E+03  0.00000000000E+00 0. -1.
          6    2    1    2  501    0  0.13001410970E+03  0.82783421701E+02  0.17165932182E+03  0.28835114163E+03  0.17298177499E+03 0.  0.
         24    2    3    3    0    0  0.15069532281E+03  0.30833311322E+02  0.11312829994E+03  0.20726786920E+03  0.80636120644E+02 0.  0.
         -6    2    1    2    0  502 -0.13001410970E+03 -0.82783421701E+02  0.18881113763E+03  0.30601050345E+03  0.18502977841E+03 0.  0.
        -24    2    5    5    0    0 -0.12200322064E+03 -0.70883560694E+02  0.50381284570E+02  0.16676002678E+03  0.73221360777E+02 0.  0.
          5    1    3    3  501    0 -0.20681213112E+02  0.51950110380E+02  0.58531021886E+02  0.81083272425E+02  0.47000000000E+01 0. -1.
        -11    1    4    4    0    0  0.11648027942E+03  0.44911715472E+02  0.11566131200E+03  0.17018300965E+03  0.00000000000E+00 0.  1.
         12    1    4    4    0    0  0.34215043391E+02 -0.14078404150E+02 -0.25330120651E+01  0.37084859549E+02  0.00000000000E+00 0. -1.
         -5    1    5    5    0  502 -0.80108890637E+01 -0.11899861008E+02  0.13842985306E+03  0.13925047667E+03  0.47000000000E+01 0.  1.
         11    1    6    6    0    0 -0.45043235284E+02 -0.62246181094E+02  0.49928738556E+01  0.76996161560E+02  0.00000000000E+00 0. -1.
        -12    1    6    6    0    0 -0.76959985355E+02 -0.86373795999E+01  0.45388410714E+02  0.89763865220E+02  0.00000000000E+00 0.  1.
</event>
<event>
12    1  0.1066489E+000  0.2345471E+03  0.7818608E-02  0.1123495E+00
         21   -1    0    0  503  502  0.00000000000E+00  0.00000000000E+00  0.49751938346E+03  0.49751938346E+03  0.00000000000E+00 0.  1.
         21   -1    0    0  501  503 -0.00000000000E+00 -0.00000000000E+00 -0.11133611055E+03  0.11133611055E+03  0.00000000000E+00 0.  1.
          6    2    1    2  501    0  0.15467674342E+03 -0.37464739656E+02  0.16717098488E+03  0.28795253056E+03  0.17216858016E+03 0.  0.
         24    2    3    3    0    0  0.13203841955E+03  0.90885297972E+01  0.17717067413E+03  0.23502064613E+03  0.79551937260E+02 0.  0.
         -6    2    1    2    0  502 -0.15467674342E+03  0.37464739656E+02  0.21901228803E+03  0.32090296345E+03  0.17228995319E+03 0.  0.
        -24    2    5    5    0    0 -0.15492232858E+03  0.80151042633E+02  0.18019528221E+03  0.26301487560E+03  0.79255078883E+02 0.  0.
          5    1    3    3  501    0  0.22638323869E+02 -0.46553269453E+02 -0.99996892472E+01  0.52931884431E+02  0.47000000000E+01 0. -1.
        -11    1    4    4    0    0  0.23551299816E+02 -0.30319584103E+02  0.35567298008E+02  0.52335204125E+02  0.00000000000E+00 0.  1.
         12    1    4    4    0    0  0.10848711974E+03  0.39408113900E+02  0.14160337612E+03  0.18268544200E+03  0.00000000000E+00 0. -1.
         -5    1    5    5    0  502  0.24558516026E+00 -0.42686302977E+02  0.38817005827E+02  0.57888087853E+02  0.47000000000E+01 0.  1.
         11    1    6    6    0    0 -0.25663958827E+02 -0.97990623366E+01  0.56295055794E+02  0.62640192466E+02  0.00000000000E+00 0. -1.
        -12    1    6    6    0    0 -0.12925836975E+03  0.89950104969E+02  0.12390022641E+03  0.20037468313E+03  0.00000000000E+00 0.  1.
</event>
<event>
12    1  0.1066489E+000  0.2385878E+03  0.7818608E-02  0.1120917E+00
         21   -1    0    0  501  502  0.00000000000E+00  0.00000000000E+00  0.80131984933E+03  0.80131984933E+03  0.00000000000E+00 0.  1.
         21   -1    0    0  502  503 -0.00000000000E+00 -0.00000000000E+00 -0.15012489852E+03  0.15012489852E+03  0.00000000000E+00 0.  1.
         -6    2    1    2    0  503  0.16209626432E+03  0.32591759272E+02  0.67123178597E+03  0.71201702637E+03  0.17052481835E+03 0.  0.
        -24    2    3    3    0    0  0.94597036031E+02  0.17102647393E+01  0.58636877572E+03  0.59917362589E+03  0.78925082159E+02 0.  0.
          6    2    1    2  501    0 -0.16209626432E+03 -0.32591759272E+02 -0.20036835154E+02  0.23942772148E+03  0.17200795729E+03 0.  0.
         24    2    5    5    0    0 -0.18781892928E+03 -0.37607596261E+02 -0.35238066894E+02  0.20876860277E+03  0.75181956962E+02 0.  0.
          5    1    5    5  501    0  0.25722664961E+02  0.50158369890E+01  0.15201231740E+02  0.30659118706E+02  0.47000000000E+01 0. -1.
        -13    1    6    6    0    0 -0.11515813760E+02  0.17586717696E+02 -0.29561030038E+01  0.21228404340E+02  0.00000000000E+00 0.  1.
         14    1    6    6    0    0 -0.17630311552E+03 -0.55194313957E+02 -0.32281963890E+02  0.18754019843E+03  0.00000000000E+00 0. -1.
         -5    1    3    3    0  503  0.67499228287E+02  0.30881494532E+02  0.84863010249E+02  0.11284340048E+03  0.47000000000E+01 0.  1.
         13    1    4    4    0    0  0.93755280473E+02 -0.67986702871E+01  0.34279957355E+03  0.35545438830E+03  0.00000000000E+00 0. -1.
        -14    1    4    4    0    0  0.84175555861E+00  0.85089350264E+01  0.24356920217E+03  0.24371923759E+03  0.00000000000E+00 0.  1.
</event>
<event>
12    1  0.1066489E+000  0.2733489E+03  0.7818608E-02  0.1099407E+00
         21   -1    0    0  501  502  0.00000000000E+00  0.00000000000E+00  0.13796411098E+04  0.13796411098E+04  0.00000000000E+00 0.  1.
         21   -1    0    0  502  503 -0.00000000000E+00 -0.00000000000E+00 -0.54193996620E+02  0.54193996620E+02  0.00000000000E+00 0.  1.
         -6    2    1    2    0  503 -0.67627226351E+02 -0.20153373596E+03  0.63571422325E+03  0.69191121514E+03  0.17152045802E+03 0.  0.
        -24    2    3    3    0    0  0.19956756575E+02 -0.11029736067E+03  0.41670970214E+03  0.43896833521E+03  0.80513623410E+02 0.  0.
          6    2    1    2  501    0  0.67627226351E+02  0.20153373596E+03  0.68973288997E+03  0.74192389132E+03  0.17184386092E+03 0.  0.
         24    2    5    5    0    0 -0.50139177901E+01  0.35351613020E+02  0.29085675517E+03  0.30372588275E+03  0.79855393730E+02 0.  0.
          5    1    5    5  501    0  0.72641144141E+02  0.16618212294E+03  0.39887613480E+03  0.43819800857E+03  0.47000000000E+01 0. -1.
        -13    1    6    6    0    0  0.53410781946E+01 -0.17027421548E+02  0.17782309678E+03  0.17871629458E+03  0.00000000000E+00 0.  1.
         14    1    6    6    0    0 -0.10354995985E+02  0.52379034568E+02  0.11303365839E+03  0.12500958817E+03  0.00000000000E+00 0. -1.
         -5    1    3    3    0  503 -0.87583982926E+02 -0.91236375282E+02  0.21900452111E+03  0.25294287993E+03  0.47000000000E+01 0.  1.
         13    1    4    4    0    0 -0.21293722176E+02 -0.84997059963E+02  0.23109642149E+03  0.24715072088E+03  0.00000000000E+00 0. -1.
        -14    1    4    4    0    0  0.41250478751E+02 -0.25300300711E+02  0.18561328065E+03  0.19181761432E+03  0.00000000000E+00 0.  1.
</event>
<event>
12    1  0.1066489E+000  0.2840413E+03  0.7818608E-02  0.1093631E+00
         21   -1    0    0  503  502  0.00000000000E+00  0.00000000000E+00  0.97046717598E+02  0.97046717598E+02  0.00000000000E+00 0. -1.
         21   -1    0    0  501  503 -0.00000000000E+00 -0.00000000000E+00 -0.83602320813E+03  0.83602320813E+03  0.00000000000E+00 0. -1.
          6    2    1    2  501    0  0.59238424852E+02  0.21689419435E+03 -0.41299164860E+03  0.50069788500E+03  0.17199996428E+03 0.  0.
         24    2    3    3    0    0  0.86393131965E+02  0.14576770348E+03 -0.36533484581E+03  0.41075558865E+03  0.80861656016E+02 0.  0.
         -6    2    1    2    0  502 -0.59238424852E+02 -0.21689419435E+03 -0.32598484193E+03  0.43237204072E+03  0.17357183501E+03 0.  0.
        -24    2    5    5    0    0 -0.10468734901E+03 -0.12697368194E+03 -0.18213676996E+03  0.25668578324E+03  0.75046861347E+02 0.  0.
          5    1    3    3  501    0 -0.27154707113E+02  0.71126490865E+02 -0.47656802792E+02  0.89942296355E+02  0.47000000000E+01 0. -1.
        -13    1    4    4    0    0  0.65310375220E+02  0.88700408462E+02 -0.14451189055E+03  0.18170551473E+03  0.00000000000E+00 0.  1.
         14    1    4    4    0    0  0.21082756745E+02  0.57067295022E+02 -0.22082295526E+03  0.22905007392E+03  0.00000000000E+00 0. -1.
         -5    1    5    5    0  502  0.45448924158E+02 -0.89920512411E+02 -0.14384807196E+03  0.17568625748E+03  0.47000000000E+01 0.  1.
         11    1    6    6    0    0 -0.56069126052E+02 -0.10309723084E+03 -0.83083195813E+02  0.14379013641E+03  0.00000000000E+00 0. -1.
        -12    1    6    6    0    0 -0.48618222958E+02 -0.23876451095E+02 -0.99053574150E+02  0.11289564683E+03  0.00000000000E+00 0.  1.
</event>
<event>
12    1  0.1066489E+000  0.2556885E+03  0.7818608E-02  0.1109778E+00
         21   -1    0    0  501  502  0.00000000000E+00  0.00000000000E+00  0.21454666561E+03  0.21454666561E+03  0.00000000000E+00 0.  1.
         21   -1    0    0  502  503 -0.00000000000E+00 -0.00000000000E+00 -0.37641240427E+03  0.37641240427E+03  0.00000000000E+00 0.  1.
         -6    2    1    2    0  503  0.12022966929E+03 -0.14561708194E+03  0.48119799199E+02  0.26017709415E+03  0.17238647660E+03 0.  0.
        -24    2    3    3    0    0  0.95089140734E+02 -0.35509644042E+02 -0.11316692162E+02  0.13246460234E+03  0.84355935460E+02 0.  0.
          6    2    1    2  501    0 -0.12022966929E+03  0.14561708194E+03 -0.20998553786E+03  0.33078197574E+03  0.17223031508E+03 0.  0.
         24    2    5    5    0    0 -0.55088568403E+02  0.15130971456E+03 -0.19192580916E+03  0.26278188095E+03  0.79305867674E+02 0.  0.
          5    1    5    5  501    0 -0.65141100882E+02 -0.56926326124E+01 -0.18059728703E+02  0.68000094787E+02  0.47000000000E+01 0. -1.
        -13    1    6    6    0    0 -0.75687291989E+02  0.11381749250E+03 -0.14827479199E+03  0.20166408135E+03  0.00000000000E+00 0.  1.
         14    1    6    6    0    0  0.20598723586E+02  0.37492222059E+02 -0.43651017166E+02  0.61117799600E+02  0.00000000000E+00 0. -1.
         -5    1    3    3    0  503  0.25140528551E+02 -0.11010743790E+03  0.59436491360E+02  0.12771249180E+03  0.47000000000E+01 0.  1.
         11    1    4    4    0    0  0.84755690563E+02 -0.43433374323E+02 -0.38185511364E+02  0.10260661950E+03  0.00000000000E+00 0. -1.
        -12    1    4    4    0    0  0.10333450172E+02  0.79237302814E+01  0.26868819202E+02  0.29857982841E+02  0.00000000000E+00 0.  1.
</event>
<event>
12    1  0.1066489E+000  0.3000615E+03  0.7818608E-02  0.1085263E+00
         21   -1    0    0  503  502  0.00000000000E+00  0.00000000000E+00  0.33143663651E+03  0.33143663651E+03  0.00000000000E+00 0.  1.
         21   -1    0    0  501  503 -0.00000000000E+00 -0.00000000000E+00 -0.38292408638E+03  0.38292408638E+03  0.00000000000E+00 0. -1.
          6    2    1    2  501    0  0.16088286036E+03  0.18478377320E+03 -0.21859822244E+03  0.37090345657E+03  0.17249885114E+03 0.  0.
         24    2    3    3    0    0  0.16979976250E+03  0.18614641423E+03 -0.23375530886E+03  0.35264982123E+03  0.78980409738E+02 0.  0.
         -6    2    1    2    0  502 -0.16088286036E+03 -0.18478377320E+03  0.16711077257E+03  0.34345726632E+03  0.17322974883E+03 0.  0.
        -24    2    5    5    0    0 -0.50819849934E+02 -0.16246787645E+03  0.11123791867E+03  0.21793543031E+03  0.78380540995E+02 0.  0.
          5    1    3    3  501    0 -0.89169021354E+01 -0.13626410324E+01  0.15157086416E+02  0.18253635334E+02  0.47000000000E+01 0. -1.
        -11    1    4    4    0    0  0.10298712025E+03  0.57439488447E+02 -0.88879012441E+02  0.14766557020E+03  0.00000000000E+00 0.  1.
         12    1    4    4    0    0  0.66812642253E+02  0.12870692578E+03 -0.14487629641E+03  0.20498425103E+03  0.00000000000E+00 0. -1.
         -5    1    5    5    0  502 -0.11006301043E+03 -0.22315896746E+02  0.55872853897E+02  0.12552183601E+03  0.47000000000E+01 0.  1.
         11    1    6    6    0    0 -0.32179739198E+02 -0.10665700424E+03  0.26065915550E+02  0.11441452758E+03  0.00000000000E+00 0. -1.
        -12    1    6    6    0    0 -0.18640110736E+02 -0.55810872210E+02  0.85172003119E+02  0.10352090272E+03  0.00000000000E+00 0.  1.
</event>
<event>
12    1  0.1066489E+000  0.1871416E+03  0.7818608E-02  0.1161364E+00
         21   -1    0    0  501  502  0.00000000000E+00  0.00000000000E+00  0.57891422055E+03  0.57891422055E+03  0.00000000000E+00 0. -1.
         21   -1    0    0  502  503 -0.00000000000E+00 -0.00000000000E+00 -0.66366524657E+02  0.66366524657E+02  0.00000000000E+00 0. -1.
         -6    2    1    2    0  503 -0.48937167694E+02 -0.51892956440E+02  0.35639561860E+03  0.40254170763E+03  0.17301521355E+03 0.  0.
        -24    2    3    3    0    0 -0.42443759717E+02  0.86767524597E+01  0.96027635729E+02  0.13510118997E+03  0.84582893874E+02 0.  0.
          6    2    1    2  501    0  0.48937167694E+02  0.51892956440E+02  0.15615207729E+03  0.24273903757E+03  0.17161306421E+03 0.  0.
         24    2    5    5    0    0  0.87934188029E+02  0.71314935208E+02  0.12140760226E+03  0.18681722251E+03  0.85689131939E+02 0.  0.
          5    1    5    5  501    0 -0.38997020335E+02 -0.19421978768E+02  0.34744475033E+02  0.55921815059E+02  0.47000000000E+01 0. -1.
        -13    1    6    6    0    0  0.38373273496E+02  0.82399280583E+02  0.83707179632E+02  0.12356796301E+03  0.00000000000E+00 0.  1.
         14    1    6    6    0    0  0.49560914533E+02 -0.11084345375E+02  0.37700422629E+02  0.63249259507E+02  0.00000000000E+00 0. -1.
         -5    1    3    3    0  503 -0.64934079773E+01 -0.60569708900E+02  0.26036798287E+03  0.26744051766E+03  0.47000000000E+01 0.  1.
         13    1    4    4    0    0  0.10013862856E+02 -0.21481302872E+02  0.60397790430E+02  0.64881560641E+02  0.00000000000E+00 0. -1.
        -14    1    4    4    0    0 -0.52457622573E+02  0.30158055332E+02  0.35629845298E+02  0.70219629331E+02  0.00000000000E+00 0.  1.
</event>
<event>
12    1  0.1066489E+000  0.2163290E+03  0.7818608E-02  0.1136805E+00
         21   -1    0    0  503  502  0.00000000000E+00  0.00000000000E+00  0.26610758684E+03  0.26610758684E+03  0.00000000000E+00 0. -1.
         21   -1    0    0  501  503 -0.00000000000E+00 -0.00000000000E+00 -0.24159613010E+03  0.24159613010E+03  0.00000000000E+00 0. -1.
          6    2    1    2  501    0 -0.19945566857E+02 -0.12712318302E+03  0.14531383834E+03  0.25993074022E+03  0.17288652001E+03 0.  0.
         24    2    3    3    0    0 -0.43534414859E+02 -0.12356520576E+03  0.58979434670E+02  0.17023786309E+03  0.91316761673E+02 0.  0.
         -6    2    1    2    0  502  0.19945566857E+02  0.12712318302E+03 -0.12080238159E+03  0.24777297672E+03  0.17389681796E+03 0.  0.
        -24    2    5    5    0    0 -0.40843454244E+02  0.85968735197E+02 -0.12692508678E+03  0.17395853924E+03  0.71363748037E+02 0.  0.
          5    1    3    3  501    0  0.23588848002E+02 -0.35579772575E+01  0.86334403665E+02  0.89692877133E+02  0.47000000000E+01 0. -1.
        -11    1    4    4    0    0 -0.53365656055E+02 -0.37147082368E+02 -0.22907073576E+00  0.65021930516E+02  0.00000000000E+00 0.  1.
         12    1    4    4    0    0  0.98312411963E+01 -0.86418123395E+02  0.59208505406E+02  0.10521593257E+03  0.00000000000E+00 0. -1.
         -5    1    5    5    0  502  0.60789021100E+02  0.41154447823E+02  0.61227051917E+01  0.73814437482E+02  0.47000000000E+01 0.  1.
         13    1    6    6    0    0 -0.22472833462E+02 -0.26623193571E+01 -0.51077677832E+02  0.55866316872E+02  0.00000000000E+00 0. -1.
        -14    1    6    6    0    0 -0.18370620782E+02  0.88631054554E+02 -0.75847408951E+02  0.11809222237E+03  0.00000000000E+00 0.  1.
</event>
<event>
12    1  0.1066489E+000  0.1919021E+03  0.7818608E-02  0.1157922E+00
         21   -1    0    0  503  502  0.00000000000E+00  0.00000000000E+00  0.55622703893E+03  0.55622703893E+03  0.00000000000E+00 0. -1.
         21   -1    0    0  501  503 -0.00000000000E+00 -0.00000000000E+00 -0.69506089753E+02  0.69506089753E+02  0.00000000000E+00 0. -1.
          6    2    1    2  501    0  0.67977044673E+02 -0.49623368188E+02  0.15583013792E+03  0.24322148151E+03  0.16670422884E+03 0.  0.
         24    2    3    3    0    0  0.28153868411E+02 -0.93843798528E+02  0.11767824622E+03  0.17237666048E+03  0.79159614802E+02 0.  0.
         -6    2    1    2    0  502 -0.67977044673E+02  0.49623368188E+02  0.33089081126E+03  0.38251164717E+03  0.17246180439E+03 0.  0.
        -24    2    5    5    0    0  0.29158662771E+02  0.19781336364E+02  0.18228332610E+03  0.20242231609E+03  0.80660115266E+02 0.  0.
          5    1    3    3  501    0  0.39823176262E+02  0.44220430340E+02  0.38151891696E+02  0.70844821032E+02  0.47000000000E+01 0. -1.
        -11    1    4    4    0    0  0.41654082473E+02 -0.65729544721E+02  0.11780846929E+03  0.14118877814E+03  0.00000000000E+00 0.  1.
         12    1    4    4    0    0 -0.13500214062E+02 -0.28114253807E+02 -0.13022306862E+00  0.31187882340E+02  0.00000000000E+00 0. -1.
         -5    1    5    5    0  502 -0.97135707444E+02  0.29842031824E+02  0.14860748517E+03  0.18008933109E+03  0.47000000000E+01 0.  1.
         11    1    6    6    0    0 -0.24429342752E+02 -0.10268759780E+02  0.50986572811E+02  0.57461907571E+02  0.00000000000E+00 0. -1.
        -12    1    6    6    0    0  0.53588005522E+02  0.30050096144E+02  0.13129675329E+03  0.14496040852E+03  0.00000000000E+00 0.  1.
</event>
<event>
12    1  0.1066489E+000  0.2909088E+03  0.7818608E-02  0.1091527E+00
         21   -1    0    0  501  502  0.00000000000E+00  0.00000000000E+00  0.17965860002E+03  0.17965860002E+03  0.00000000000E+00 0.  1.
         21   -1    0    0  502  503 -0.00000000000E+00 -0.00000000000E+00 -0.45614473231E+03  0.45614473231E+03  0.00000000000E+00 0.  1.
         -6    2    1    2    0  503  0.95213864419E+02 -0.19730816886E+03 -0.10206838548E+03  0.29661385162E+03  0.17194658525E+03 0.  0.
        -24    2    3    3    0    0  0.11560250419E+03 -0.96181665934E+02 -0.36546008947E+02  0.17431283751E+03  0.80215352106E+02 0.  0.
          6    2    1    2  501    0 -0.95213864419E+02  0.19730816886E+03 -0.17441774682E+03  0.33918948072E+03  0.19139425264E+03 0.  0.
         24    2    5    5    0    0 -0.32362210143E+02  0.16618196831E+03 -0.18615038159E+03  0.26792297017E+03  0.92016271078E+02 0.  0.
          5    1    5    5  501    0 -0.62851654277E+02  0.31126200557E+02  0.11732634774E+02  0.71266510544E+02  0.47000000000E+01 0. -1.
        -13    1    6    6    0    0 -0.49939144511E+02  0.67068761564E+02 -0.12420519538E+03  0.14972998194E+03  0.00000000000E+00 0.  1.
         14    1    6    6    0    0  0.17576934369E+02  0.99113206742E+02 -0.61945186215E+02  0.11819298823E+03  0.00000000000E+00 0. -1.
         -5    1    3    3    0  503 -0.20388639769E+02 -0.10112650293E+03 -0.65522376529E+02  0.12230101411E+03  0.47000000000E+01 0.  1.
         11    1    4    4    0    0  0.33080211631E+02 -0.53089567641E+02 -0.50220637065E+02  0.80217921820E+02  0.00000000000E+00 0. -1.
        -12    1    4    4    0    0  0.82522292557E+02 -0.43092098293E+02  0.13674628118E+02  0.94094915688E+02  0.00000000000E+00 0.  1.
</event>
<event>
12    1  0.1066489E+000  0.2412499E+03  0.7818608E-02  0.1119165E+00
         21   -1    0    0  503  502  0.00000000000E+00  0.00000000000E+00  0.44986323557E+03  0.44986323557E+03  0.00000000000E+00 0. -1.
         21   -1    0    0  501  503 -0.00000000000E+00 -0.00000000000E+00 -0.13805260278E+03  0.13805260278E+03  0.00000000000E+00 0. -1.
          6    2    1    2  501    0 -0.98733035554E+02  0.13693462337E+03  0.23194707494E+03  0.33379045355E+03  0.17063797327E+03 0.  0.
         24    2    3    3    0    0 -0.75472456354E+02 -0.46856624365E+01  0.12529971018E+03  0.15492427366E+03  0.50827808326E+02 0.  0.
         -6    2    1    2    0  502  0.98733035554E+02 -0.13693462337E+03  0.79863557840E+02  0.25412538480E+03  0.17234331998E+03 0.  0.
        -24    2    5    5    0    0  0.38596708918E+02 -0.11470376996E+03 -0.95399350794E+01  0.14400879581E+03  0.77465231726E+02 0.  0.
          5    1    3    3  501    0 -0.23260579200E+02  0.14162028581E+03  0.10664736477E+03  0.17886617989E+03  0.47000000000E+01 0. -1.
        -13    1    4    4    0    0 -0.15278088664E+02  0.20581691386E+02  0.40036658950E+02  0.47539037363E+02  0.00000000000E+00 0.  1.
         14    1    4    4    0    0 -0.60194367690E+02 -0.25267353822E+02  0.85263051227E+02  0.10738523630E+03  0.00000000000E+00 0. -1.
         -5    1    5    5    0  502  0.60136326636E+02 -0.22230853408E+02  0.89403492920E+02  0.11011658899E+03  0.47000000000E+01 0.  1.
         11    1    6    6    0    0 -0.21901243009E+02 -0.26769758906E+02 -0.13677381849E+02  0.37193483454E+02  0.00000000000E+00 0. -1.
        -12    1    6    6    0    0  0.60497951927E+02 -0.87934011055E+02  0.41374467697E+01  0.10681531235E+03  0.00000000000E+00 0.  1.
</event>
<event>
12    1  0.1066489E+000  0.8169131E+03  0.7818608E-02  0.9536179E-01
         21   -1    0    0  503  502  0.00000000000E+00  0.00000000000E+00  0.25176250832E+03  0.25176250832E+03  0.00000000000E+00 0.  1.
         21   -1    0    0  501  503 -0.00000000000E+00 -0.00000000000E+00 -0.26482004779E+04  0.26482004779E+04  0.00000000000E+00 0. -1.
          6    2    1    2  501    0  0.72397317838E+02 -0.79419680134E+03 -0.12172604899E+04  0.14654573211E+04  0.17277768605E+03 0.  0.
         24    2    3    3    0    0 -0.22371233543E+01 -0.53437183300E+03 -0.83003003493E+03  0.99317686496E+03  0.10905120631E+03 0.  0.
         -6    2    1    2    0  502 -0.72397317838E+02  0.79419680134E+03 -0.11791774797E+04  0.14345056651E+04  0.17707920195E+03 0.  0.
        -24    2    5    5    0    0 -0.36556105700E+02  0.70280912781E+03 -0.94893836011E+03  0.11841690087E+04  0.80592871252E+02 0.  0.
          5    1    3    3  501    0  0.74634441192E+02 -0.25982496834E+03 -0.38723045498E+03  0.47228045614E+03  0.47000000000E+01 0. -1.
        -13    1    4    4    0    0 -0.45968521792E+01 -0.34596122920E+03 -0.43761750157E+03  0.55787039789E+03  0.00000000000E+00 0.  1.
         14    1    4    4    0    0  0.23597288249E+01 -0.18841060380E+03 -0.39241253335E+03  0.43530646707E+03  0.00000000000E+00 0. -1.
         -5    1    5    5    0  502 -0.35841212138E+02  0.91387673530E+02 -0.23023911955E+03  0.25033665638E+03  0.47000000000E+01 0.  1.
         11    1    6    6    0    0 -0.18234939407E+02  0.10758466030E+03 -0.19453194220E+03  0.22304629269E+03  0.00000000000E+00 0. -1.
        -12    1    6    6    0    0 -0.18321166293E+02  0.59522446752E+03 -0.75440641791E+03  0.96112271602E+03  0.00000000000E+00 0.  1.
</event>
<event>
12    1  0.1066489E+000  0.3010540E+03  0.7818608E-02  0.1084761E+00
         21   -1    0    0  503  502  0.00000000000E+00  0.00000000000E+00  0.63083264628E+03  0.63083264628E+03  0.00000000000E+00 0.  1.
         21   -1    0    0  501  503 -0.00000000000E+00 -0.00000000000E+00 -0.15594928212E+03  0.15594928212E+03  0.00000000000E+00 0.  1.
          6    2    1    2  501    0 -0.21220910219E+03  0.12493467734E+03  0.34874372767E+03  0.46071218778E+03  0.17318243481E+03 0.  0.
         24    2    3    3    0    0 -0.16387564666E+03  0.14340507974E+03  0.33426253058E+03  0.40677635778E+03  0.79468996733E+02 0.  0.
         -6    2    1    2    0  502  0.21220910219E+03 -0.12493467734E+03  0.12613963650E+03  0.32606974062E+03  0.17253663726E+03 0.  0.
        -24    2    5    5    0    0  0.16496104850E+03 -0.14966327812E+03  0.66364307737E+02  0.24582597324E+03  0.80093342056E+02 0.  0.
          5    1    3    3  501    0 -0.48333455528E+02 -0.18470402400E+02  0.14481197094E+02  0.53935829996E+02  0.47000000000E+01 0. -1.
        -11    1    4    4    0    0 -0.70231960232E+02  0.15660405950E+02  0.84050088835E+02  0.11064444851E+03  0.00000000000E+00 0.  1.
         12    1    4    4    0    0 -0.93643686429E+02  0.12774467379E+03  0.25021244174E+03  0.29613190928E+03  0.00000000000E+00 0. -1.
         -5    1    5    5    0  502  0.47248053693E+02  0.24728600779E+02  0.59775328759E+02  0.80243767375E+02  0.47000000000E+01 0.  1.
         11    1    6    6    0    0  0.68327406098E+02 -0.10448347504E+03  0.61179189456E+02  0.13902634356E+03  0.00000000000E+00 0. -1.
        -12    1    6    6    0    0  0.96633642399E+02 -0.45179803076E+02  0.51851182816E+01  0.10679962968E+03  0.00000000000E+00 0.  1.
</event>
<event>
12    1  0.1066489E+000  0.2529950E+03  0.7818608E-02  0.1111571E+00
         21   -1    0    0  503  502  0.00000000000E+00  0.00000000000E+00  0.15942829107E+04  0.15942829107E+04  0.00000000000E+00 0.  1.
         21   -1    0    0  501  503 -0.00000000000E+00 -0.00000000000E+00 -0.11172822602E+03  0.11172822602E+03  0.00000000000E+00 0.  1.
          6    2    1    2  501    0  0.16179737634E+03 -0.90248742789E+02  0.57331232858E+02  0.25850696018E+03  0.17092615843E+03 0.  0.
         24    2    3    3    0    0  0.20148923228E+02 -0.46526433242E+02  0.55046959913E+02  0.11017209400E+03  0.80851928883E+02 0.  0.
         -6    2    1    2    0  502 -0.16179737634E+03  0.90248742789E+02  0.14252234518E+04  0.14475041765E+04  0.17228820880E+03 0.  0.
        -24    2    5    5    0    0 -0.72289934270E+02  0.14900828128E+02  0.38254585166E+03  0.39827228686E+03  0.82653593884E+02 0.  0.
          5    1    3    3  501    0  0.14164845311E+03 -0.43722309547E+02  0.22842729454E+01  0.14833486618E+03  0.47000000000E+01 0. -1.
        -13    1    4    4    0    0  0.12703084742E+02  0.20521713946E+02  0.29311912514E+02  0.37969689496E+02  0.00000000000E+00 0.  1.
         14    1    4    4    0    0  0.74458384866E+01 -0.67048147187E+02  0.25735047399E+02  0.72202404507E+02  0.00000000000E+00 0. -1.
         -5    1    5    5    0  502 -0.89507442068E+02  0.75347914661E+02  0.10426776001E+04  0.10492318896E+04  0.47000000000E+01 0.  1.
         13    1    6    6    0    0 -0.53359857848E+02 -0.30527847779E+02  0.20310916820E+03  0.21220876072E+03  0.00000000000E+00 0. -1.
        -14    1    6    6    0    0 -0.18930076422E+02  0.45428675907E+02  0.17943668346E+03  0.18606352614E+03  0.00000000000E+00 0.  1.
</event>
<event>
12    1  0.1066489E+000  0.2104566E+03  0.7818608E-02  0.1141494E+00
         21   -1    0    0  501  502  0.00000000000E+00  0.00000000000E+00  0.30197013113E+03  0.30197013113E+03  0.00000000000E+00 0. -1.
         21   -1    0    0  502  503 -0.00000000000E+00 -0.00000000000E+00 -0.15323895368E+03  0.15323895368E+03  0.00000000000E+00 0. -1.
         -6    2    1    2    0  503 -0.11051543386E+03  0.48310473620E+02  0.23997327166E+02  0.21182034365E+03  0.17246571628E+03 0.  0.
        -24    2    3    3    0    0 -0.13668644300E+03  0.45068828839E+02  0.51723392640E+02  0.17326836982E+03  0.81438538789E+02 0.  0.
          6    2    1    2  501    0  0.11051543386E+03 -0.48310473620E+02  0.12473385028E+03  0.24338874116E+03  0.17068093899E+03 0.  0.
         24    2    5    5    0    0  0.12881423132E+03  0.66286188234E+01  0.86880832270E+02  0.17404834284E+03  0.78150507694E+02 0.  0.
          5    1    5    5  501    0 -0.18298797453E+02 -0.54939092443E+02  0.37853018007E+02  0.69340398318E+02  0.47000000000E+01 0. -1.
        -13    1    6    6    0    0  0.49066937151E+02  0.21471641428E+02  0.74858213480E+02  0.92045357474E+02  0.00000000000E+00 0.  1.
         14    1    6    6    0    0  0.79747294165E+02 -0.14843022605E+02  0.12022618790E+02  0.82002985368E+02  0.00000000000E+00 0. -1.
         -5    1    3    3    0  503  0.26171009135E+02  0.32416447810E+01 -0.27726065475E+02  0.38551973837E+02  0.47000000000E+01 0.  1.
         13    1    4    4    0    0 -0.16241200826E+02 -0.54528137734E+01  0.38313924991E+02  0.41969830004E+02  0.00000000000E+00 0. -1.
        -14    1    4    4    0    0 -0.12044524217E+03  0.50521642612E+02  0.13409467649E+02  0.13129853981E+03  0.00000000000E+00 0.  1.
</event>
<event>
12    1  0.1066489E+000  0.2223949E+03  0.7818608E-02  0.1133054E+00
         21   -1    0    0  503  502  0.00000000000E+00  0.00000000000E+00  0.64357527484E+03  0.64357527484E+03  0.00000000000E+00 0.  1.
         21   -1    0    0  501  503 -0.00000000000E+00 -0.00000000000E+00 -0.80187598760E+02  0.80187598760E+02  0.00000000000E+00 0.  1.
          6    2    1    2  501    0  0.90741802371E+02  0.10788974662E+03  0.18756832205E+03  0.28707112173E+03  0.16538948387E+03 0.  0.
         24    2    3    3    0    0  0.12372715958E+03  0.10090030443E+03  0.13303788678E+03  0.22278625211E+03  0.80282958064E+02 0.  0.
         -6    2    1    2    0  502 -0.90741802371E+02 -0.10788974662E+03  0.37581935403E+03  0.43669175187E+03  0.17200356729E+03 0.  0.
        -24    2    5    5    0    0 -0.72175188116E+02 -0.14211748639E+03  0.33354586048E+03  0.37902550878E+03  0.83671127317E+02 0.  0.
          5    1    3    3  501    0 -0.32985357212E+02  0.69894421882E+01  0.54530435267E+02  0.64284869627E+02  0.47000000000E+01 0. -1.
        -13    1    4    4    0    0  0.84210674959E+00 -0.24896497390E+00  0.36762912463E+02  0.36773398811E+02  0.00000000000E+00 0.  1.
         14    1    4    4    0    0  0.12288505283E+03  0.10114926940E+03  0.96274974319E+02  0.18601285330E+03  0.00000000000E+00 0. -1.
         -5    1    5    5    0  502 -0.18566614255E+02  0.34227739768E+02  0.42273493548E+02  0.57666243083E+02  0.47000000000E+01 0.  1.
         13    1    6    6    0    0 -0.62899788792E+02 -0.68560371022E+02  0.25293313826E+03  0.26950339577E+03  0.00000000000E+00 0. -1.
        -14    1    6    6    0    0 -0.92753993240E+01 -0.73557115366E+02  0.80612722227E+02  0.10952211301E+03  0.00000000000E+00 0.  1.
</event>
<event>
12    1  0.1066489E+000  0.2065052E+03  0.7818608E-02  0.1144836E+00
         21   -1    0    0  503  502  0.00000000000E+00  0.00000000000E+00  0.64095755873E+03  0.64095755873E+03  0.00000000000E+00 0. -1.
         21   -1    0    0  501  503 -0.00000000000E+00 -0.00000000000E+00 -0.69147777217E+02  0.69147777217E+02  0.00000000000E+00 0. -1.
          6    2    1    2  501    0 -0.64355464706E+02 -0.91148236348E+02  0.20916699260E+03  0.29393065980E+03  0.17376643849E+03 0.  0.
         24    2    3    3    0    0  0.10810937235E+02  0.11918904729E+02  0.86484000279E+02  0.11688255855E+03  0.76961766706E+02 0.  0.
         -6    2    1    2    0  502  0.64355464706E+02  0.91148236348E+02  0.36264278891E+03  0.41617467615E+03  0.17100275405E+03 0.  0.
        -24    2    5    5    0    0  0.65241234253E+02  0.33170466601E+02  0.33417816306E+03  0.35140947487E+03  0.80354687840E+02 0.  0.
          5    1    3    3  501    0 -0.75166401940E+02 -0.10306714108E+03  0.12268299232E+03  0.17704810125E+03  0.47000000000E+01 0. -1.
        -13    1    4    4    0    0  0.12455268716E+02 -0.28968345513E+02  0.61021185282E+02  0.68686853283E+02  0.00000000000E+00 0.  1.
         14    1    4    4    0    0 -0.16443314818E+01  0.40887250242E+02  0.25462814996E+02  0.48195705264E+02  0.00000000000E+00 0. -1.
         -5    1    5    5    0  502 -0.88576954717E+00  0.57977769747E+02  0.28464625850E+02  0.64765201284E+02  0.47000000000E+01 0.  1.
         13    1    6    6    0    0 -0.79530047634E+01  0.30754656046E+02  0.63545428949E+02  0.71043090400E+02  0.00000000000E+00 0. -1.
        -14    1    6    6    0    0  0.73194239016E+02  0.24158105550E+01  0.27063273411E+03  0.28036638447E+03  0.00000000000E+00 0.  1.
</event>
<event>
12    1  0.1066489E+000  0.2063198E+03  0.7818608E-02  0.1145250E+00
         21   -1    0    0  501  502  0.00000000000E+00  0.00000000000E+00  0.81369441546E+03  0.81369441546E+03  0.00000000000E+00 0.  1.
         21   -1    0    0  502  503 -0.00000000000E+00 -0.00000000000E+00 -0.26686505229E+03  0.26686505229E+03  0.00000000000E+00 0.  1.
         -6    2    1    2    0  503  0.85685785206E+02  0.64719649148E+02 -0.21250793697E+03  0.29369162477E+03  0.17194318948E+03 0.  0.
        -24    2    3    3    0    0  0.12053053710E+03  0.23360958085E+02 -0.16811925645E+03  0.22356928154E+03  0.81521742651E+02 0.  0.
          6    2    1    2  501    0 -0.85685785206E+02 -0.64719649148E+02  0.75933730015E+03  0.78686784299E+03  0.17617372152E+03 0.  0.
         24    2    5    5    0    0 -0.51242216746E+02 -0.10656447778E+03  0.64011682496E+03  0.65582219905E+03  0.79821390996E+02 0.  0.
          5    1    5    5  501    0 -0.34443568460E+02  0.41844828631E+02  0.11922047519E+03  0.13104564394E+03  0.47000000000E+01 0. -1.
        -13    1    6    6    0    0 -0.28702683459E+02 -0.47226976196E+02  0.12326029706E+03  0.13508268634E+03  0.00000000000E+00 0.  1.
         14    1    6    6    0    0 -0.22539533286E+02 -0.59337501583E+02  0.51685652790E+03  0.52073951270E+03  0.00000000000E+00 0. -1.
         -5    1    3    3    0  503 -0.34844751890E+02  0.41358691063E+02 -0.44388680527E+02  0.70122343227E+02  0.47000000000E+01 0.  1.
         13    1    4    4    0    0  0.51784879322E+02  0.17903456016E+02 -0.13769137434E+03  0.14819285418E+03  0.00000000000E+00 0. -1.
        -14    1    4    4    0    0  0.68745657774E+02  0.54575020697E+01 -0.30427882109E+02  0.75376427357E+02  0.00000000000E+00 0.  1.
</event>
<event>
12    1  0.1066489E+000  0.2231331E+03  0.7818608E-02  0.1131624E+00
         21   -1    0    0  501  502  0.00000000000E+00  0.00000000000E+00  0.71913297854E+02  0.71913297854E+02  0.00000000000E+00 0.  1.
         21   -1    0    0  502  503 -0.00000000000E+00 -0.00000000000E+00 -0.71068152730E+03  0.71068152730E+03  0.00000000000E+00 0.  1.
         -6    2    1    2    0  503  0.13482063312E+03 -0.44279238107E+02 -0.25471989909E+03  0.33843101372E+03  0.17180241561E+03 0.  0.
        -24    2    3    3    0    0  0.12300008982E+03 -0.78946699335E+02 -0.13839710411E+03  0.21638741190E+03  0.79423863994E+02 0.  0.
          6    2    1    2  501    0 -0.13482063312E+03  0.44279238107E+02 -0.38404833036E+03  0.44416381144E+03  0.17219499790E+03 0.  0.
         24    2    5    5    0    0 -0.13425755998E+03 -0.16988340403E+02 -0.22501687631E+03  0.27367297120E+03  0.77140160892E+02 0.  0.
          5    1    5    5  501    0 -0.56307313830E+00  0.61267578510E+02 -0.15903145405E+03  0.17049084024E+03  0.47000000000E+01 0. -1.
        -11    1    6    6    0    0 -0.67287769242E+01 -0.26525476315E+02 -0.48678390083E+02  0.55843200067E+02  0.00000000000E+00 0.  1.
         12    1    6    6    0    0 -0.12752878306E+03  0.95371359123E+01 -0.17633848622E+03  0.21782977114E+03  0.00000000000E+00 0. -1.
         -5    1    3    3    0  503  0.11820543304E+02  0.34667461228E+02 -0.11632279498E+03  0.12204360181E+03  0.47000000000E+01 0.  1.
         13    1    4    4    0    0  0.11926532606E+03 -0.55806232081E+02 -0.81515577227E+02  0.15486556386E+03  0.00000000000E+00 0. -1.
        -14    1    4    4    0    0  0.37347637526E+01 -0.23140467254E+02 -0.56881526886E+02  0.61521848037E+02  0.00000000000E+00 0.  1.
</event>
<event>
12    1  0.1066489E+000  0.1934978E+03  0.7818608E-02  0.1155573E+00
         21   -1    0    0  501  502  0.00000000000E+00  0.00000000000E+00  0.22216631296E+03  0.22216631296E+03  0.00000000000E+00 0.  1.
         21   -1    0    0  502  503 -0.00000000000E+00 -0.00000000000E+00 -0.16870164832E+03  0.16870164832E+03  0.00000000000E+00 0.  1.
         -6    2    1    2    0  503 -0.86740639240E+02 -0.12585998671E+02  0.42410957097E+02  0.19809113299E+03  0.17250815004E+03 0.  0.
        -24    2    3    3    0    0 -0.12256305511E+03 -0.30903949893E+02  0.48281950544E+02  0.15716007657E+03  0.79946146386E+02 0.  0.
          6    2    1    2  501    0  0.86740639240E+02  0.12585998671E+02  0.11053707541E+02  0.19277682829E+03  0.17134285867E+03 0.  0.
         24    2    5    5    0    0  0.12642138358E+03  0.24179238604E+02  0.13000685195E+02  0.15112535286E+03  0.78120756895E+02 0.  0.
          5    1    5    5  501    0 -0.39680744337E+02 -0.11593239933E+02 -0.19469776539E+01  0.41651475427E+02  0.47000000000E+01 0. -1.
        -11    1    6    6    0    0  0.89984612191E+01 -0.16896987389E+02  0.18475241000E+02  0.26604793123E+02  0.00000000000E+00 0.  1.
         12    1    6    6    0    0  0.11742292236E+03  0.41076225993E+02 -0.54745558048E+01  0.12452055974E+03  0.00000000000E+00 0. -1.
         -5    1    3    3    0  503  0.35822415871E+02  0.18317951223E+02 -0.58709934472E+01  0.40931056423E+02  0.47000000000E+01 0.  1.
         11    1    4    4    0    0 -0.70364310805E+02 -0.33877170654E+02 -0.10150295537E+02  0.78751682052E+02  0.00000000000E+00 0. -1.
        -12    1    4    4    0    0 -0.52198744306E+02  0.29732207601E+01  0.58432246080E+02  0.78408394517E+02  0.00000000000E+00 0.  1.
</event>
<event>
12    1  0.1066489E+000  0.2398516E+03  0.7818608E-02  0.1119951E+00
         21   -1    0    0  501  502  0.00000000000E+00  0.00000000000E+00  0.10451377513E+03  0.10451377513E+03  0.00000000000E+00 0. -1.
         21   -1    0    0  502  503 -0.00000000000E+00 -0.00000000000E+00 -0.66852053282E+03  0.66852053282E+03  0.00000000000E+00 0. -1.
         -6    2    1    2    0  503 -0.14023797733E+03  0.83587868365E+02 -0.11882938252E+03  0.26735486866E+03  0.17522722854E+03 0.  0.
        -24    2    3    3    0    0 -0.16762822582E+03  0.45493511933E+02 -0.86809906174E+02  0.21035712686E+03  0.80902900375E+02 0.  0.
          6    2    1    2  501    0  0.14023797733E+03 -0.83587868365E+02 -0.44517737517E+03  0.50567943929E+03  0.17571334022E+03 0.  0.
         24    2    5    5    0    0  0.60113845958E+02 -0.10351778318E+03 -0.19531013545E+03  0.24248216457E+03  0.79510661008E+02 0.  0.
          5    1    5    5  501    0  0.80124131367E+02  0.19929914819E+02 -0.24986723972E+03  0.26319727472E+03  0.47000000000E+01 0. -1.
        -11    1    6    6    0    0  0.52707983317E+02 -0.56147145264E+02 -0.56187077205E+02  0.95329014846E+02  0.00000000000E+00 0.  1.
         12    1    6    6    0    0  0.74058626407E+01 -0.47370637920E+02 -0.13912305824E+03  0.14715314972E+03  0.00000000000E+00 0. -1.
         -5    1    3    3    0  503  0.27390248498E+02  0.38094356432E+02 -0.32019476343E+02  0.56997741798E+02  0.47000000000E+01 0.  1.
         11    1    4    4    0    0 -0.50120946747E+02 -0.19794498173E+02 -0.43096492505E+02  0.69001732782E+02  0.00000000000E+00 0. -1.
        -12    1    4    4    0    0 -0.11750727908E+03  0.65288010106E+02 -0.43713413670E+02  0.14135539408E+03  0.00000000000E+00 0.  1.
</event>
<event>
12    1  0.1066489E+000  0.2288054E+03  0.7818608E-02  0.1127749E+00
         21   -1    0    0  501  502  0.00000000000E+00  0.00000000000E+00  0.71438710343E+03  0.71438710343E+03  0.00000000000E+00 0. -1.
         21   -1    0    0  502  503 -0.00000000000E+00 -0.00000000000E+00 -0.86187218735E+02  0.86187218735E+02  0.00000000000E+00 0.  1.
         -6    2    1    2    0  503 -0.14347882184E+03  0.41414230521E+02  0.47269900480E+03  0.52516309243E+03  0.17335112838E+03 0.  0.
        -24    2    3    3    0    0 -0.16981483912E+03  0.16980754243E+02  0.42636424639E+03  0.46634489452E+03  0.81028787749E+02 0.  0.
          6    2    1    2  501    0  0.14347882184E+03 -0.41414230521E+02  0.15550087989E+03  0.27541122973E+03  0.17137535122E+03 0.  0.
         24    2    5    5    0    0  0.37625836651E+02  0.18916870035E+01  0.13004942055E+03  0.15815030807E+03  0.81727511239E+02 0.  0.
          5    1    5    5  501    0  0.10585298519E+03 -0.43305917524E+02  0.25451459344E+02  0.11726092166E+03  0.47000000000E+01 0. -1.
        -11    1    6    6    0    0 -0.21185776093E+02 -0.14523651104E+02  0.21032512554E+02  0.33198495966E+02  0.00000000000E+00 0.  1.
         12    1    6    6    0    0  0.58811612744E+02  0.16415338108E+02  0.10901690800E+03  0.12495181210E+03  0.00000000000E+00 0. -1.
         -5    1    3    3    0  503  0.26336017278E+02  0.24433476278E+02  0.46334758404E+02  0.58818197910E+02  0.47000000000E+01 0.  1.
         11    1    4    4    0    0 -0.91274313363E+02  0.38205117647E+02  0.16281626905E+03  0.19052498199E+03  0.00000000000E+00 0. -1.
        -12    1    4    4    0    0 -0.78540525756E+02 -0.21224363404E+02  0.26354797735E+03  0.27581991254E+03  0.00000000000E+00 0.  1.
</event>
<event>
12    1  0.1066489E+000  0.1756046E+03  0.7818608E-02  0.1172715E+00
         21   -1    0    0  503  502  0.00000000000E+00  0.00000000000E+00  0.60455056615E+03  0.60455056615E+03  0.00000000000E+00 0.  1.
         21   -1    0    0  501  503 -0.00000000000E+00 -0.00000000000E+00 -0.58794615576E+02  0.58794615576E+02  0.00000000000E+00 0.  1.
          6    2    1    2  501    0 -0.24459982098E+02 -0.81840285702E+01  0.40028089490E+03  0.43710613034E+03  0.17370004406E+03 0.  0.
         24    2    3    3    0    0  0.22004273690E+02 -0.59625270327E+02  0.18557511808E+03  0.21143870021E+03  0.78922991414E+02 0.  0.
         -6    2    1    2    0  502  0.24459982098E+02  0.81840285702E+01  0.14547505567E+03  0.22623905139E+03  0.17133548232E+03 0.  0.
        -24    2    5    5    0    0  0.64979377182E+02 -0.23300579360E+02  0.13702120454E+03  0.17402162601E+03  0.82118690730E+02 0.  0.
          5    1    3    3  501    0 -0.46464255788E+02  0.51441241757E+02  0.21470577682E+03  0.22566743013E+03  0.47000000000E+01 0. -1.
        -11    1    4    4    0    0 -0.28949783877E+02 -0.13128239836E+02  0.69284757910E+02  0.76228723893E+02  0.00000000000E+00 0.  1.
         12    1    4    4    0    0  0.50954057567E+02 -0.46497030491E+02  0.11629036017E+03  0.13520997632E+03  0.00000000000E+00 0. -1.
         -5    1    5    5    0  502 -0.40519395084E+02  0.31484607930E+02  0.84538511325E+01  0.52217425381E+02  0.47000000000E+01 0.  1.
         13    1    6    6    0    0 -0.15961133585E+01 -0.38566246832E+02  0.42612070879E+02  0.57495143770E+02  0.00000000000E+00 0. -1.
        -14    1    6    6    0    0  0.66575490541E+02  0.15265667471E+02  0.94409133659E+02  0.11652648224E+03  0.00000000000E+00 0.  1.
</event>
<event>
12    1  0.1066489E+000  0.2163630E+03  0.7818608E-02  0.1136672E+00
         21   -1    0    0  503  502  0.00000000000E+00  0.00000000000E+00  0.17176381637E+04  0.17176381637E+04  0.00000000000E+00 0.  1.
         21   -1    0    0  501  503 -0.00000000000E+00 -0.00000000000E+00 -0.31384611236E+02  0.31384611236E+02  0.00000000000E+00 0. -1.
          6    2    1    2  501    0  0.10546394230E+03 -0.77863886606E+02  0.52423772134E+03  0.56703557058E+03  0.17181013317E+03 0.  0.
         24    2    3    3    0    0  0.94322447367E+01 -0.79843321894E+02  0.21681877531E+03  0.24492611173E+03  0.80712425240E+02 0.  0.
         -6    2    1    2    0  502 -0.10546394230E+03  0.77863886606E+02  0.11620158311E+04  0.11819872044E+04  0.17212649860E+03 0.  0.
        -24    2    5    5    0    0 -0.74562184510E+02  0.11399278902E+03  0.70926222423E+03  0.72672010168E+03  0.80717582710E+02 0.  0.
          5    1    3    3  501    0  0.96031697567E+02  0.19794352885E+01  0.30741894603E+03  0.32210945885E+03  0.47000000000E+01 0. -1.
        -11    1    4    4    0    0 -0.12797307788E+02 -0.30221997189E+02  0.17010460078E+03  0.17324178309E+03  0.00000000000E+00 0.  1.
         12    1    4    4    0    0  0.22229552524E+02 -0.49621324705E+02  0.46714174532E+02  0.71684328644E+02  0.00000000000E+00 0. -1.
         -5    1    5    5    0  502 -0.30901757793E+02 -0.36128902417E+02  0.45275360690E+03  0.45526710269E+03  0.47000000000E+01 0.  1.
         11    1    6    6    0    0 -0.20976264750E+02  0.19505389278E+02  0.43037296603E+02  0.51697899306E+02  0.00000000000E+00 0. -1.
        -12    1    6    6    0    0 -0.53585919760E+02  0.94487399745E+02  0.66622492762E+03  0.67502220237E+03  0.00000000000E+00 0.  1.
</event>
<event>
12    1  0.1066489E+000  0.2165068E+03  0.7818608E-02  0.1138366E+00
         21   -1    0    0  501  502  0.00000000000E+00  0.00000000000E+00  0.42722860506E+03  0.42722860506E+03  0.00000000000E+00 0. -1.
         21   -1    0    0  502  503 -0.00000000000E+00 -0.00000000000E+00 -0.10552503634E+03  0.10552503634E+03  0.00000000000E+00 0. -1.
         -6    2    1    2    0  503  0.12548071293E+03  0.39042722574E+02  0.18396570866E+03  0.28411015734E+03  0.17206236089E+03 0.  0.
        -24    2    3    3    0    0  0.11926355729E+03  0.17867998301E+02  0.20634119883E+03  0.25233320764E+03  0.80946253050E+02 0.  0.
          6    2    1    2  501    0 -0.12548071293E+03 -0.39042722574E+02  0.13773786006E+03  0.24864348406E+03  0.15994411701E+03 0.  0.
         24    2    5    5    0    0 -0.56400601567E+01 -0.11534693586E+01  0.49478577185E+02  0.94990730812E+02  0.80882436720E+02 0.  0.
          5    1    5    5  501    0 -0.11984065277E+03 -0.37889253216E+02  0.88259282876E+02  0.15365275325E+03  0.47000000000E+01 0. -1.
        -11    1    6    6    0    0 -0.35385907739E+02  0.15703443366E+02  0.46740127106E+02  0.60691021428E+02  0.00000000000E+00 0.  1.
         12    1    6    6    0    0  0.29745847583E+02 -0.16856912724E+02  0.27384500792E+01  0.34299709384E+02  0.00000000000E+00 0. -1.
         -5    1    3    3    0  503  0.62171556380E+01  0.21174724273E+02 -0.22375490162E+02  0.31776949700E+02  0.47000000000E+01 0.  1.
         11    1    4    4    0    0 -0.64012518202E+01  0.13936097440E+02  0.46542882148E+02  0.49004394858E+02  0.00000000000E+00 0. -1.
        -12    1    4    4    0    0  0.12566480911E+03  0.39319008618E+01  0.15979831668E+03  0.20332881278E+03  0.00000000000E+00 0.  1.
</event>
<event>
12    1  0.1066489E+000  0.1736102E+03  0.7818608E-02  0.1174235E+00
         21   -1    0    0  503  502  0.00000000000E+00  0.00000000000E+00  0.30316201597E+03  0.30316201597E+03  0.00000000000E+00 0. -1.
         21   -1    0    0  501  503 -0.00000000000E+00 -0.00000000000E+00 -0.16932365381E+03  0.16932365381E+03  0.00000000000E+00 0. -1.
          6    2    1    2  501    0 -0.79936400240E+01 -0.18507080997E+02  0.21891224796E+03  0.27915160628E+03  0.17203673055E+03 0.  0.
         24    2    3    3    0    0  0.27682430460E+02  0.22649453582E+02  0.10306972838E+03  0.15105702526E+03  0.10447746777E+03 0.  0.
         -6    2    1    2    0  502  0.79936400240E+01  0.18507080997E+02 -0.85073885792E+02  0.19333406350E+03  0.17243573799E+03 0.  0.
        -24    2    5    5    0    0 -0.96950686209E+01 -0.54368618775E+02 -0.38473125109E+02  0.10491755527E+03  0.80483358433E+02 0.  0.
          5    1    3    3  501    0 -0.35676070484E+02 -0.41156534579E+02  0.11584251958E+03  0.12809458102E+03  0.47000000000E+01 0. -1.
        -11    1    4    4    0    0  0.53906535668E+02  0.12949682677E+02  0.13271578464E+02  0.57006522996E+02  0.00000000000E+00 0.  1.
         12    1    4    4    0    0 -0.26224105208E+02  0.96997709054E+01  0.89798149911E+02  0.94050502269E+02  0.00000000000E+00 0. -1.
         -5    1    5    5    0  502  0.17688708645E+02  0.72875699772E+02 -0.46600760683E+02  0.88416508227E+02  0.47000000000E+01 0.  1.
         11    1    6    6    0    0 -0.35647655654E+02 -0.30566343923E+02 -0.49291224362E+02  0.68078495383E+02  0.00000000000E+00 0. -1.
        -12    1    6    6    0    0  0.25952587033E+02 -0.23802274852E+02  0.10818099253E+02  0.36839059886E+02  0.00000000000E+00 0.  1.
</event>
<event>
12    1  0.1066489E+000  0.2249354E+03  0.7818608E-02  0.1130303E+00
         21   -1    0    0  501  502  0.00000000000E+00  0.00000000000E+00  0.12325085292E+04  0.12325085292E+04  0.00000000000E+00 0. -1.
         21   -1    0    0  502  503 -0.00000000000E+00 -0.00000000000E+00 -0.41291463438E+02  0.41291463438E+02  0.00000000000E+00 0. -1.
         -6    2    1    2    0  503  0.11849862717E+03  0.83568057243E+02  0.64842107980E+03  0.68624281369E+03  0.17162097125E+03 0.  0.
        -24    2    3    3    0    0  0.22863824710E+01  0.98035602876E+01  0.15843367145E+03  0.17726713925E+03  0.78873779345E+02 0.  0.
          6    2    1    2  501    0 -0.11849862717E+03 -0.83568057243E+02  0.54279598596E+03  0.58755717895E+03  0.17196049352E+03 0.  0.
         24    2    5    5    0    0 -0.24005580019E+02 -0.26216271480E+02  0.98115362476E+02  0.12932022039E+03  0.76377577115E+02 0.  0.
          5    1    5    5  501    0 -0.94493047146E+02 -0.57351785763E+02  0.44468062348E+03  0.45823695856E+03  0.47000000000E+01 0. -1.
        -13    1    6    6    0    0 -0.24417796146E+02 -0.16150174726E+02 -0.13877358872E+01  0.29308407040E+02  0.00000000000E+00 0.  1.
         14    1    6    6    0    0  0.41221612704E+00 -0.10066096754E+02  0.99503098363E+02  0.10001181335E+03  0.00000000000E+00 0. -1.
         -5    1    3    3    0  503  0.11621224469E+03  0.73764496956E+02  0.48998740835E+03  0.50897567444E+03  0.47000000000E+01 0.  1.
         11    1    4    4    0    0 -0.51510545153E+01 -0.27592566156E+02  0.11957951177E+03  0.12282973055E+03  0.00000000000E+00 0. -1.
        -12    1    4    4    0    0  0.74374369863E+01  0.37396126443E+02  0.38854159675E+02  0.54437408700E+02  0.00000000000E+00 0.  1.
</event>
<event>
12    1  0.1066489E+000  0.1939924E+03  0.7818608E-02  0.1155601E+00
         21   -1    0    0  503  502  0.00000000000E+00  0.00000000000E+00  0.21084243776E+03  0.21084243776E+03  0.00000000000E+00 0.  1.
         21   -1    0    0  501  503 -0.00000000000E+00 -0.00000000000E+00 -0.20087556420E+03  0.20087556420E+03  0.00000000000E+00 0.  1.
          6    2    1    2  501    0  0.19117894014E+02  0.88341310498E+02  0.77933209574E+02  0.20616390577E+03  0.16810797089E+03 0.  0.
         24    2    3    3    0    0  0.31546849607E+02  0.10841382396E+03  0.17688522844E+02  0.14128789315E+03  0.83069994377E+02 0.  0.
         -6    2    1    2    0  502 -0.19117894014E+02 -0.88341310498E+02 -0.67966336009E+02  0.20555409619E+03  0.17164900995E+03 0.  0.
        -24    2    5    5    0    0 -0.77739806646E+02 -0.66261582938E+02 -0.33228444378E+02  0.13377071284E+03  0.79727029219E+02 0.  0.
          5    1    3    3  501    0 -0.12428955593E+02 -0.20072513460E+02  0.60244686730E+02  0.64876012616E+02  0.47000000000E+01 0. -1.
        -13    1    4    4    0    0 -0.49257061140E+01 -0.14381842957E+01  0.24796014895E+02  0.25321400227E+02  0.00000000000E+00 0.  1.
         14    1    4    4    0    0  0.36472555721E+02  0.10985200825E+03 -0.71074920510E+01  0.11596649293E+03  0.00000000000E+00 0. -1.
         -5    1    5    5    0  502  0.58621912632E+02 -0.22079727560E+02 -0.34737891631E+02  0.71783383347E+02  0.47000000000E+01 0.  1.
         13    1    6    6    0    0 -0.29252616257E+02 -0.42941197656E+02  0.22218984361E+02  0.56509691912E+02  0.00000000000E+00 0. -1.
        -14    1    6    6    0    0 -0.48487190390E+02 -0.23320385282E+02 -0.55447428739E+02  0.77261020931E+02  0.00000000000E+00 0.  1.
</event>
<event>
12    1  0.1066489E+000  0.2810668E+03  0.7818608E-02  0.1095186E+00
         21   -1    0    0  501  502  0.00000000000E+00  0.00000000000E+00  0.44067316467E+03  0.44067316467E+03  0.00000000000E+00 0.  1.
         21   -1    0    0  502  503 -0.00000000000E+00 -0.00000000000E+00 -0.18076543227E+03  0.18076543227E+03  0.00000000000E+00 0.  1.
         -6    2    1    2    0  503  0.71745277385E+02  0.20999215019E+03  0.16162473858E+03  0.32422382919E+03  0.17249477477E+03 0.  0.
        -24    2    3    3    0    0  0.11357351920E+03  0.12736151216E+03  0.10211822302E+03  0.21403971260E+03  0.79151551177E+02 0.  0.
          6    2    1    2  501    0 -0.71745277385E+02 -0.20999215019E+03  0.98282993820E+02  0.29721476775E+03  0.17156043636E+03 0.  0.
         24    2    5    5    0    0 -0.10422811474E+03 -0.17346495277E+03  0.11292740874E+03  0.24597103875E+03  0.82435201919E+02 0.  0.
          5    1    5    5  501    0  0.32482837351E+02 -0.36527197417E+02 -0.14644414922E+02  0.51243729000E+02  0.47000000000E+01 0. -1.
        -11    1    6    6    0    0 -0.21777017850E+02 -0.23441763219E+02 -0.11865882443E+02  0.34125561320E+02  0.00000000000E+00 0.  1.
         12    1    6    6    0    0 -0.82451096885E+02 -0.15002318955E+03  0.12479329118E+03  0.21184547743E+03  0.00000000000E+00 0. -1.
         -5    1    3    3    0  503 -0.41828241812E+02  0.82630638026E+02  0.59506515561E+02  0.11018411659E+03  0.47000000000E+01 0.  1.
         11    1    4    4    0    0  0.56706383986E+02  0.75774864947E+02  0.99344043330E+02  0.13721036072E+03  0.00000000000E+00 0. -1.
        -12    1    4    4    0    0  0.56867135211E+02  0.51586647217E+02  0.27741796920E+01  0.76829351886E+02  0.00000000000E+00 0.  1.
</event>
<event>
12    1  0.1066489E+000  0.1780836E+03  0.7818608E-02  0.1170245E+00
         21   -1    0    0  503  502  0.00000000000E+00  0.00000000000E+00  0.20993937443E+03  0.20993937443E+03  0.00000000000E+00 0.  1.
         21   -1    0    0  501  503 -0.00000000000E+00 -0.00000000000E+00 -0.17531602684E+03  0.17531602684E+03  0.00000000000E+00 0.  1.
          6    2    1    2  501    0 -0.44332683772E+02  0.21509593715E+01 -0.57085638210E+02  0.18700945789E+03  0.17246377525E+03 0.  0.
         24    2    3    3    0    0  0.11684673201E+02 -0.11134181411E+02  0.26994647081E+02  0.84999538654E+02  0.78966505665E+02 0.  0.
         -6    2    1    2    0  502  0.44332683772E+02 -0.21509593715E+01  0.91708985807E+02  0.19824594338E+03  0.17006146686E+03 0.  0.
        -24    2    5    5    0    0 -0.14929104068E+02  0.37771627029E+02  0.10598052563E+02  0.90047764581E+02  0.79666223905E+02 0.  0.
          5    1    3    3  501    0 -0.56017356973E+02  0.13285140782E+02 -0.84080285291E+02  0.10200991924E+03  0.47000000000E+01 0. -1.
        -13    1    4    4    0    0  0.15449004825E+02  0.30073525585E+02 -0.29259628817E+01  0.33935968382E+02  0.00000000000E+00 0.  1.
         14    1    4    4    0    0 -0.37643316244E+01 -0.41207706996E+02  0.29920609963E+02  0.51063570273E+02  0.00000000000E+00 0. -1.
         -5    1    5    5    0  502  0.59261787840E+02 -0.39922586401E+02  0.81110933244E+02  0.10819817880E+03  0.47000000000E+01 0.  1.
         13    1    6    6    0    0  0.85310872153E+01  0.46075594092E+02  0.32394142426E+02  0.56965957233E+02  0.00000000000E+00 0. -1.
        -14    1    6    6    0    0 -0.23460191284E+02 -0.83039670625E+01 -0.21796089864E+02  0.33081807348E+02  0.00000000000E+00 0.  1.
</event>
<event>
12    1  0.1066489E+000  0.2469364E+03  0.7818608E-02  0.1115261E+00
         21   -1    0    0  501  502  0.00000000000E+00  0.00000000000E+00  0.58246923502E+03  0.58246923502E+03  0.00000000000E+00 0. -1.
         21   -1    0    0  502  503 -0.00000000000E+00 -0.00000000000E+00 -0.11294809621E+03  0.11294809621E+03  0.00000000000E+00 0.  1.
         -6    2    1    2    0  503 -0.15274947625E+03 -0.89723203587E+02  0.14065121530E+03  0.28415947112E+03  0.17199181639E+03 0.  0.
        -24    2    3    3    0    0 -0.15279812192E+03 -0.10000637866E+03  0.16438738732E+03  0.25786799117E+03  0.78256922570E+02 0.  0.
          6    2    1    2  501    0  0.15274947625E+03  0.89723203587E+02  0.32886992350E+03  0.41125786011E+03  0.17203181439E+03 0.  0.
         24    2    5    5    0    0  0.16464459857E+03  0.11885388787E+03  0.27185409668E+03  0.34596632000E+03  0.67482991884E+02 0.  0.
          5    1    5    5  501    0 -0.11895122317E+02 -0.29130684286E+02  0.57015826817E+02  0.65291540107E+02  0.47000000000E+01 0. -1.
        -11    1    6    6    0    0  0.14747382034E+02 -0.57018673598E+01  0.74043562277E+01  0.17459125390E+02  0.00000000000E+00 0.  1.
         12    1    6    6    0    0  0.14989721653E+03  0.12455575523E+03  0.26444974046E+03  0.32850719461E+03  0.00000000000E+00 0. -1.
         -5    1    3    3    0  503  0.48645668672E-01  0.10283175071E+02 -0.23736172011E+02  0.26291479945E+02  0.47000000000E+01 0.  1.
         13    1    4    4    0    0 -0.43126883706E+02 -0.35623589275E+01  0.75145964799E+02  0.86715249667E+02  0.00000000000E+00 0. -1.
        -14    1    4    4    0    0 -0.10967123821E+03 -0.96444019730E+02  0.89241422517E+02  0.17115274151E+03  0.00000000000E+00 0.  1.
</event>
<event>
12    1  0.1066489E+000  0.1951413E+03  0.7818608E-02  0.1154191E+00
         21   -1    0    0  501  502  0.00000000000E+00  0.00000000000E+00  0.27070159203E+03  0.27070159203E+03  0.00000000000E+00 0.  1.
         21   -1    0    0  502  503 -0.00000000000E+00 -0.00000000000E+00 -0.14644249275E+03  0.14644249275E+03  0.00000000000E+00 0.  1.
         -6    2    1    2    0  503 -0.45269371584E+01  0.92035170353E+02  0.17673483558E+02  0.19593995027E+03  0.17201495966E+03 0.  0.
        -24    2    3    3    0    0  0.19558639440E+00  0.89362149229E+02 -0.48251079107E+02  0.12962565895E+03  0.80554409276E+02 0.  0.
          6    2    1    2  501    0  0.45269371584E+01 -0.92035170353E+02  0.10658561572E+03  0.22120413452E+03  0.17052803262E+03 0.  0.
         24    2    5    5    0    0 -0.10750291385E+02  0.15913790173E+02  0.38341418704E+02  0.92496200743E+02  0.81955263901E+02 0.  0.
          5    1    5    5  501    0  0.15277228543E+02 -0.10794896053E+03  0.68244197016E+02  0.12870793378E+03  0.47000000000E+01 0. -1.
        -11    1    6    6    0    0  0.33843008303E+02  0.16453166119E+02  0.77622948560E+01  0.38422768091E+02  0.00000000000E+00 0.  1.
         12    1    6    6    0    0 -0.44593299688E+02 -0.53937594586E+00  0.30579123848E+02  0.54073432652E+02  0.00000000000E+00 0. -1.
         -5    1    3    3    0  503 -0.47225235528E+01  0.26730211248E+01  0.65924562665E+02  0.66314291319E+02  0.47000000000E+01 0.  1.
         13    1    4    4    0    0  0.12872564602E+02  0.15958141070E+02  0.19966234872E+02  0.28618450706E+02  0.00000000000E+00 0. -1.
        -14    1    4    4    0    0 -0.12676978208E+02  0.73404008159E+02 -0.68217313979E+02  0.10100720824E+03  0.00000000000E+00 0.  1.
</event>
<event>
12    1  0.1066489E+000  0.3287463E+03  0.7818608E-02  0.1072140E+00
         21   -1    0    0  501  502  0.00000000000E+00  0.00000000000E+00  0.61203109640E+03  0.61203109640E+03  0.00000000000E+00 0. -1.
         21   -1    0    0  502  503 -0.00000000000E+00 -0.00000000000E+00 -0.18656189094E+03  0.18656189094E+03  0.00000000000E+00 0.  1.
         -6    2    1    2    0  503  0.15884277039E+03 -0.23022729298E+03  0.10975886542E+03  0.34280011282E+03  0.16501295911E+03 0.  0.
        -24    2    3    3    0    0  0.15828811587E+03 -0.16751066888E+03  0.13106694796E+03  0.27639373540E+03  0.78102498750E+02 0.  0.
          6    2    1    2  501    0 -0.15884277039E+03  0.23022729298E+03  0.31571034004E+03  0.45579287452E+03  0.17273822253E+03 0.  0.
         24    2    5    5    0    0 -0.15841878989E+03  0.22564425043E+03  0.22461795350E+03  0.36446326857E+03  0.79802307988E+02 0.  0.
          5    1    5    5  501    0 -0.42398049913E+00  0.45830425476E+01  0.91092386541E+02  0.91329605957E+02  0.47000000000E+01 0. -1.
        -11    1    6    6    0    0 -0.12492175908E+03  0.11462724403E+03  0.11478811071E+03  0.20474657831E+03  0.00000000000E+00 0.  1.
         12    1    6    6    0    0 -0.33497030805E+02  0.11101700640E+03  0.10982984278E+03  0.15971669026E+03  0.00000000000E+00 0. -1.
         -5    1    3    3    0  503  0.55465451550E+00 -0.62716624099E+02 -0.21308082532E+02  0.66406377414E+02  0.47000000000E+01 0.  1.
         11    1    4    4    0    0  0.38151047308E+02 -0.34800305715E+01  0.33434470749E+02  0.50847584582E+02  0.00000000000E+00 0. -1.
        -12    1    4    4    0    0  0.12013706856E+03 -0.16403063831E+03  0.97632477206E+02  0.22554615082E+03  0.00000000000E+00 0.  1.
</event>
<event>
12    1  0.1066489E+000  0.2346522E+03  0.7818608E-02  0.1123595E+00
         21   -1    0    0  503  502  0.00000000000E+00  0.00000000000E+00  0.18303326989E+03  0.18303326989E+03  0.00000000000E+00 0.  1.
         21   -1    0    0  501  503 -0.00000000000E+00 -0.00000000000E+00 -0.51895836850E+03  0.51895836850E+03  0.00000000000E+00 0.  1.
          6    2    1    2  501    0 -0.36453814973E+02 -0.15558300222E+03 -0.39647410621E+03  0.46070961882E+03  0.17183330519E+03 0.  0.
         24    2    3    3    0    0 -0.10342088446E+01 -0.80466927422E+02 -0.97381898997E+02  0.15026604648E+03  0.81367404256E+02 0.  0.
         -6    2    1    2    0  502  0.36453814973E+02  0.15558300222E+03  0.60549007609E+02  0.24128201957E+03  0.17034048092E+03 0.  0.
        -24    2    5    5    0    0 -0.31023951130E+01  0.63825593481E+02 -0.22483597259E+02  0.11127963772E+03  0.88285414355E+02 0.  0.
          5    1    3    3  501    0 -0.35419606128E+02 -0.75116074797E+02 -0.29909220722E+03  0.31044357234E+03  0.47000000000E+01 0. -1.
        -11    1    4    4    0    0 -0.38930893120E+02 -0.22422543955E+02 -0.42600146963E+02  0.61912498236E+02  0.00000000000E+00 0.  1.
         12    1    4    4    0    0  0.37896684276E+02 -0.58044383467E+02 -0.54781752034E+02  0.88353548242E+02  0.00000000000E+00 0. -1.
         -5    1    5    5    0  502  0.39556210086E+02  0.91757408738E+02  0.83032604868E+02  0.13000238185E+03  0.47000000000E+01 0.  1.
         13    1    6    6    0    0 -0.19006581786E+01  0.66424367509E+02  0.19456947540E+02  0.69241475346E+02  0.00000000000E+00 0. -1.
        -14    1    6    6    0    0 -0.12017369343E+01 -0.25987740278E+01 -0.41940544800E+02  0.42038162379E+02  0.00000000000E+00 0.  1.
</event>
<event>
12    1  0.1066489E+000  0.2003436E+03  0.7818608E-02  0.1149590E+00
         21   -1    0    0  503  502  0.00000000000E+00  0.00000000000E+00  0.54152730299E+03  0.54152730299E+03  0.00000000000E+00 0.  1.
         21   -1    0    0  501  503 -0.00000000000E+00 -0.00000000000E+00 -0.94432624967E+02  0.94432624967E+02  0.00000000000E+00 0.  1.
          6    2    1    2  501    0  0.87313092849E+02 -0.51684210753E+02  0.74882028165E+02  0.21325456018E+03  0.17197486872E+03 0.  0.
         24    2    3    3    0    0  0.79469096551E+02  0.64733686281E+01 -0.64856163354E+01  0.11282241449E+03  0.79558734172E+02 0.  0.
         -6    2    1    2    0  502 -0.87313092849E+02  0.51684210753E+02  0.37221264986E+03  0.42270536778E+03  0.17275050625E+03 0.  0.
        -24    2    5    5    0    0  0.89667049555E+01  0.84840865644E+01  0.24110032969E+03  0.25433500015E+03  0.80028381225E+02 0.  0.
          5    1    3    3  501    0  0.78439962979E+01 -0.58157579381E+02  0.81367644501E+02  0.10043214570E+03  0.47000000000E+01 0. -1.
        -11    1    4    4    0    0  0.64703198752E+02 -0.30923710932E+02  0.19530239555E+01  0.71739766720E+02  0.00000000000E+00 0.  1.
         12    1    4    4    0    0  0.14765897799E+02  0.37397079560E+02 -0.84386402909E+01  0.41082647765E+02  0.00000000000E+00 0. -1.
         -5    1    5    5    0  502 -0.96279797804E+02  0.43200124189E+02  0.13111232017E+03  0.16837036763E+03  0.47000000000E+01 0.  1.
         13    1    6    6    0    0  0.11352418171E+02  0.39843235959E+02  0.78917242826E+02  0.89130758245E+02  0.00000000000E+00 0. -1.
        -14    1    6    6    0    0 -0.23857132158E+01 -0.31359149395E+02  0.16218308686E+03  0.16520424190E+03  0.00000000000E+00 0.  1.
</event>
<event>
12    1  0.1066489E+000  0.2793613E+03  0.7818608E-02  0.1096089E+00
         21   -1    0    0  501  502  0.00000000000E+00  0.00000000000E+00  0.17581500484E+03  0.17581500484E+03  0.00000000000E+00 0. -1.
         21   -1    0    0  502  503 -0.00000000000E+00 -0.00000000000E+00 -0.56009918592E+03  0.56009918592E+03  0.00000000000E+00 0.  1.
         -6    2    1    2    0  503  0.10836570159E+03  0.19221569421E+03 -0.24219011258E+02  0.28040913900E+03  0.17132637377E+03 0.  0.
        -24    2    3    3    0    0  0.16726197212E+02  0.46698951431E+02  0.15926992640E+02  0.10375492077E+03  0.89726566584E+02 0.  0.
          6    2    1    2  501    0 -0.10836570159E+03 -0.19221569421E+03 -0.36006516982E+03  0.45550505177E+03  0.17072764066E+03 0.  0.
         24    2    5    5    0    0 -0.75448585454E+02 -0.45483687222E+02 -0.21717100393E+03  0.24800890469E+03  0.81141339669E+02 0.  0.
          5    1    5    5  501    0 -0.32917116140E+02 -0.14673200698E+03 -0.14289416589E+03  0.20749614708E+03  0.47000000000E+01 0. -1.
        -11    1    6    6    0    0 -0.18292392594E+01  0.14448000866E+02 -0.79242956795E+02  0.80570075381E+02  0.00000000000E+00 0.  1.
         12    1    6    6    0    0 -0.73619346194E+02 -0.59931688088E+02 -0.13792804714E+03  0.16743882930E+03  0.00000000000E+00 0. -1.
         -5    1    3    3    0  503  0.91639504382E+02  0.14551674277E+03 -0.40146003899E+02  0.17665421823E+03  0.47000000000E+01 0.  1.
         11    1    4    4    0    0  0.33926467498E+02  0.46871591447E+01  0.39764595295E+02  0.52480450615E+02  0.00000000000E+00 0. -1.
        -12    1    4    4    0    0 -0.17200270287E+02  0.42011792287E+02 -0.23837602655E+02  0.51274470152E+02  0.00000000000E+00 0.  1.
</event>
<event>
12    1  0.1066489E+000  0.1774258E+03  0.7818608E-02  0.1170382E+00
         21   -1    0    0  503  502  0.00000000000E+00  0.00000000000E+00  0.32795947534E+03  0.32795947534E+03  0.00000000000E+00 0. -1.
         21   -1    0    0  501  503 -0.00000000000E+00 -0.00000000000E+00 -0.10044831014E+03  0.10044831014E+03  0.00000000000E+00 0. -1.
          6    2    1    2  501    0 -0.42563559389E+02  0.12953769201E+02  0.15968481280E+03  0.23870305813E+03  0.17175696142E+03 0.  0.
         24    2    3    3    0    0 -0.10105348852E+02 -0.22095519987E+02  0.11540518139E+02  0.82976341905E+02  0.78495602922E+02 0.  0.
         -6    2    1    2    0  502  0.42563559389E+02 -0.12953769201E+02  0.67826352393E+02  0.18970472735E+03  0.17148764613E+03 0.  0.
        -24    2    5    5    0    0 -0.18715777697E+02 -0.48202885353E+02  0.57911216360E+01  0.95534046148E+02  0.80121273032E+02 0.  0.
          5    1    3    3  501    0 -0.32458210536E+02  0.35049289187E+02  0.14814429466E+03  0.15572671622E+03  0.47000000000E+01 0. -1.
        -11    1    4    4    0    0 -0.33916360144E+02 -0.33937938391E+02 -0.96885998055E+01  0.48948668151E+02  0.00000000000E+00 0.  1.
         12    1    4    4    0    0  0.23811011291E+02  0.11842418404E+02  0.21229117944E+02  0.34027673753E+02  0.00000000000E+00 0. -1.
         -5    1    5    5    0  502  0.61279337086E+02  0.35249116153E+02  0.62035230757E+02  0.94170681203E+02  0.47000000000E+01 0.  1.
         13    1    6    6    0    0 -0.43484975010E+02 -0.27476669019E+01  0.36441236016E+01  0.43723819159E+02  0.00000000000E+00 0. -1.
        -14    1    6    6    0    0  0.24769197313E+02 -0.45455218451E+02  0.21469980345E+01  0.51810226988E+02  0.00000000000E+00 0.  1.
</event>
<event>
12    1  0.1066489E+000  0.4100554E+03  0.7818608E-02  0.1040382E+00
         21   -1    0    0  503  502  0.00000000000E+00  0.00000000000E+00  0.33319658784E+03  0.33319658784E+03  0.00000000000E+00 0.  1.
         21   -1    0    0  501  503 -0.00000000000E+00 -0.00000000000E+00 -0.60786220660E+03  0.60786220660E+03  0.00000000000E+00 0.  1.
          6    2    1    2  501    0 -0.36987391061E+03  0.38337808133E+02 -0.33158413082E+03  0.52707189052E+03  0.17198908302E+03 0.  0.
         24    2    3    3    0    0 -0.17121926935E+03  0.80914983397E+02 -0.17314974729E+03  0.26938986508E+03  0.82017020717E+02 0.  0.
         -6    2    1    2    0  502  0.36987391061E+03 -0.38337808133E+02  0.56918512058E+02  0.41398690393E+03  0.17282633574E+03 0.  0.
        -24    2    5    5    0    0  0.30668357905E+03 -0.79465948137E+02  0.13805978188E+02  0.32700804167E+03  0.79837332818E+02 0.  0.
          5    1    3    3  501    0 -0.19865464126E+03 -0.42577175264E+02 -0.15843438353E+03  0.25768202543E+03  0.47000000000E+01 0. -1.
        -13    1    4    4    0    0 -0.28668266370E+02  0.11993424535E+02 -0.79670587692E+02  0.85516748488E+02  0.00000000000E+00 0.  1.
         14    1    4    4    0    0 -0.14255100298E+03  0.68921558862E+02 -0.93479159597E+02  0.18387311659E+03  0.00000000000E+00 0. -1.
         -5    1    5    5    0  502  0.63190331568E+02  0.41128140003E+02  0.43112533870E+02  0.86978862262E+02  0.47000000000E+01 0.  1.
         11    1    6    6    0    0  0.19862812311E+03 -0.32265172631E+02 -0.25213184862E+02  0.20280502298E+03  0.00000000000E+00 0. -1.
        -12    1    6    6    0    0  0.10805545594E+03 -0.47200775506E+02  0.39019163050E+02  0.12420301869E+03  0.00000000000E+00 0.  1.
</event>
<event>
12    1  0.1066489E+000  0.2372657E+03  0.7818608E-02  0.1121718E+00
         21   -1    0    0  501  502  0.00000000000E+00  0.00000000000E+00  0.81920059818E+03  0.81920059818E+03  0.00000000000E+00 0. -1.
         21   -1    0    0  502  503 -0.00000000000E+00 -0.00000000000E+00 -0.11261836805E+03  0.11261836805E+03  0.00000000000E+00 0. -1.
         -6    2    1    2    0  503  0.14293000093E+03  0.79127726370E+02  0.64492818135E+03  0.68718800121E+03  0.17206047676E+03 0.  0.
        -24    2    3    3    0    0  0.74104904831E+02  0.11602362658E+03  0.43336760514E+03  0.46162610569E+03  0.79612570760E+02 0.  0.
          6    2    1    2  501    0 -0.14293000093E+03 -0.79127726370E+02  0.61654048774E+02  0.24463096501E+03  0.17132689534E+03 0.  0.
         24    2    5    5    0    0 -0.71879495519E+02 -0.10887283848E+03  0.70176632881E+02  0.16699289153E+03  0.77083780296E+02 0.  0.
          5    1    5    5  501    0 -0.71050505412E+02  0.29745112110E+02 -0.85225841066E+01  0.77638073480E+02  0.47000000000E+01 0. -1.
        -13    1    6    6    0    0 -0.61760093375E+02 -0.37049857351E+02  0.60022126650E+02  0.93753169285E+02  0.00000000000E+00 0.  1.
         14    1    6    6    0    0 -0.10119402144E+02 -0.71822981129E+02  0.10154506231E+02  0.73239722247E+02  0.00000000000E+00 0. -1.
         -5    1    3    3    0  503  0.68825096100E+02 -0.36895900211E+02  0.21156057621E+03  0.22556189552E+03  0.47000000000E+01 0.  1.
         11    1    4    4    0    0  0.77528260010E+02  0.71391078433E+02  0.36497318623E+03  0.37988517192E+03  0.00000000000E+00 0. -1.
        -12    1    4    4    0    0 -0.34233551791E+01  0.44632548148E+02  0.68394418915E+02  0.81740933770E+02  0.00000000000E+00 0.  1.
</event>
<event>
12    1  0.1066489E+000  0.1953763E+03  0.7818608E-02  0.1154006E+00
         21   -1    0    0  501  502  0.00000000000E+00  0.00000000000E+00  0.17381414674E+02  0.17381414674E+02  0.00000000000E+00 0.  1.
         21   -1    0    0  502  503 -0.00000000000E+00 -0.00000000000E+00 -0.25922956652E+04  0.25922956652E+04  0.00000000000E+00 0.  1.
         -6    2    1    2    0  503  0.85118531462E+02  0.12418812345E+02 -0.18114724689E+04  0.18219781521E+04  0.17542089320E+03 0.  0.
        -24    2    3    3    0    0  0.94465425181E+02 -0.44851752144E+02 -0.14277543438E+04  0.14338686681E+04  0.81003055873E+02 0.  0.
          6    2    1    2  501    0 -0.85118531462E+02 -0.12418812345E+02 -0.76344178163E+03  0.78769892780E+03  0.17385872316E+03 0.  0.
         24    2    5    5    0    0 -0.37982201841E+02 -0.70097416343E+02 -0.52897629212E+03  0.54164037644E+03  0.84865094845E+02 0.  0.
          5    1    5    5  501    0 -0.47136329621E+02  0.57678603997E+02 -0.23446548950E+03  0.24605855136E+03  0.47000000000E+01 0. -1.
        -11    1    6    6    0    0  0.23612944189E+02 -0.34106393779E+02 -0.26352577158E+03  0.26677078085E+03  0.00000000000E+00 0.  1.
         12    1    6    6    0    0 -0.61595146030E+02 -0.35991022563E+02 -0.26545052054E+03  0.27486959558E+03  0.00000000000E+00 0. -1.
         -5    1    3    3    0  503 -0.93468937187E+01  0.57270564489E+02 -0.38371812516E+03  0.38810948398E+03  0.47000000000E+01 0.  1.
         13    1    4    4    0    0  0.98980713476E+02 -0.26918611541E+02 -0.90626903414E+03  0.91205556603E+03  0.00000000000E+00 0. -1.
        -14    1    4    4    0    0 -0.45152882948E+01 -0.17933140603E+02 -0.52148530962E+03  0.52181310209E+03  0.00000000000E+00 0.  1.
</event>
<event>
12    1  0.1066489E+000  0.3056014E+03  0.7818608E-02  0.1082817E+00
         21   -1    0    0  503  502  0.00000000000E+00  0.00000000000E+00  0.45281984598E+03  0.45281984598E+03  0.00000000000E+00 0.  1.
         21   -1    0    0  501  503 -0.00000000000E+00 -0.00000000000E+00 -0.30927215800E+03  0.30927215800E+03  0.00000000000E+00 0.  1.
          6    2    1    2  501    0 -0.12840647351E+03  0.21293967403E+03  0.29392379888E+03  0.42400871567E+03  0.17765321332E+03 0.  0.
         24    2    3    3    0    0 -0.10087982944E+03  0.65481174803E+02  0.87547919275E+02  0.16883266113E+03  0.79845507416E+02 0.  0.
         -6    2    1    2    0  502  0.12840647351E+03 -0.21293967403E+03 -0.15037611090E+03  0.33808328831E+03  0.17278833262E+03 0.  0.
        -24    2    5    5    0    0  0.12062565534E+03 -0.92457422437E+02 -0.12884107787E+03  0.21535447455E+03  0.81722718200E+02 0.  0.
          5    1    3    3  501    0 -0.27526644070E+02  0.14745849922E+03  0.20637587960E+03  0.25517605454E+03  0.47000000000E+01 0. -1.
        -13    1    4    4    0    0 -0.60811131407E+02  0.52332225493E+02  0.10385195604E+02  0.80898132338E+02  0.00000000000E+00 0.  1.
         14    1    4    4    0    0 -0.40068698031E+02  0.13148949310E+02  0.77162723671E+02  0.87934528794E+02  0.00000000000E+00 0. -1.
         -5    1    5    5    0  502  0.77808181641E+01 -0.12048225159E+03 -0.21535033026E+02  0.12272881376E+03  0.47000000000E+01 0.  1.
         13    1    6    6    0    0  0.20529282593E+02 -0.63581155219E+02 -0.36450001747E+02  0.76109246286E+02  0.00000000000E+00 0. -1.
        -14    1    6    6    0    0  0.10009637275E+03 -0.28876267217E+02 -0.92391076127E+02  0.13924522826E+03  0.00000000000E+00 0.  1.
</event>
<event>
12    1  0.1066489E+000  0.2457987E+03  0.7818608E-02  0.1116307E+00
         21   -1    0    0  503  502  0.00000000000E+00  0.00000000000E+00  0.36534470520E+03  0.36534470520E+03  0.00000000000E+00 0.  1.
         21   -1    0    0  501  503 -0.00000000000E+00 -0.00000000000E+00 -0.16414525462E+03  0.16414525462E+03  0.00000000000E+00 0.  1.
          6    2    1    2  501    0 -0.54427853915E+02 -0.16414310714E+03  0.10641723349E+03  0.26604991965E+03  0.17190864218E+03 0.  0.
         24    2    3    3    0    0  0.18647925935E+02 -0.96743183209E+02  0.10923541851E+03  0.16648661560E+03  0.77964273077E+02 0.  0.
         -6    2    1    2    0  502  0.54427853915E+02  0.16414310714E+03  0.94782217092E+02  0.26344004018E+03  0.17467580024E+03 0.  0.
        -24    2    5    5    0    0  0.24138911943E+02  0.14864151888E+03  0.83988704129E+01  0.17047826401E+03  0.79468920163E+02 0.  0.
          5    1    3    3  501    0 -0.73075779850E+02 -0.67399923933E+02 -0.28181850225E+01  0.99563304052E+02  0.47000000000E+01 0. -1.
        -13    1    4    4    0    0  0.16737855152E+02 -0.28597661079E+02 -0.49452872668E+01  0.33502804068E+02  0.00000000000E+00 0.  1.
         14    1    4    4    0    0  0.19100707822E+01 -0.68145522130E+02  0.11418070578E+03  0.13298381153E+03  0.00000000000E+00 0. -1.
         -5    1    5    5    0  502  0.30288941972E+02  0.15501588263E+02  0.86383346679E+02  0.92961776166E+02  0.47000000000E+01 0.  1.
         13    1    6    6    0    0  0.33798917604E+02  0.18357899606E+02  0.10319106418E+02  0.39822898770E+02  0.00000000000E+00 0. -1.
        -14    1    6    6    0    0 -0.96600056610E+01  0.13028361927E+03 -0.19202360051E+01  0.13065536524E+03  0.00000000000E+00 0.  1.
</event>
<event>
12    1  0.1066489E+000  0.2640084E+03  0.7818608E-02  0.1105024E+00
         21   -1    0    0  501  502  0.00000000000E+00  0.00000000000E+00  0.76262773629E+03  0.76262773629E+03  0.00000000000E+00 0.  1.
         21   -1    0    0  502  503 -0.00000000000E+00 -0.00000000000E+00 -0.10638879833E+03  0.10638879833E+03  0.00000000000E+00 0.  1.
         -6    2    1    2    0  503  0.14755425648E+03  0.13208792916E+03  0.49553855261E+03  0.56147920600E+03  0.17458797787E+03 0.  0.
        -24    2    3    3    0    0  0.85851295076E+02  0.11856333230E+03  0.45852191211E+03  0.48811373838E+03  0.81147822368E+02 0.  0.
          6    2    1    2  501    0 -0.14755425648E+03 -0.13208792916E+03  0.16070038535E+03  0.30753732861E+03  0.17185783370E+03 0.  0.
         24    2    5    5    0    0 -0.15145980755E+03 -0.11224493035E+03  0.72968552041E+02  0.21738211519E+03  0.79947337195E+02 0.  0.
          5    1    5    5  501    0  0.39055510716E+01 -0.19842998806E+02  0.87731833311E+02  0.90155213421E+02  0.47000000000E+01 0. -1.
        -11    1    6    6    0    0 -0.61327423724E+02 -0.42394499954E+01  0.38543286572E+02  0.72557637618E+02  0.00000000000E+00 0.  1.
         12    1    6    6    0    0 -0.90132383825E+02 -0.10800548036E+03  0.34425265469E+02  0.14482447757E+03  0.00000000000E+00 0. -1.
         -5    1    3    3    0  503  0.61702961400E+02  0.13524596857E+02  0.37016640497E+02  0.73365467622E+02  0.47000000000E+01 0.  1.
         13    1    4    4    0    0  0.77182415288E+02  0.44241724751E+02  0.19817539582E+03  0.21722785951E+03  0.00000000000E+00 0. -1.
        -14    1    4    4    0    0  0.86688797886E+01  0.74321607552E+02  0.26034651630E+03  0.27088587887E+03  0.00000000000E+00 0.  1.
</event>
<event>
12    1  0.1066489E+000  0.2759971E+03  0.7818608E-02  0.1097974E+00
         21   -1    0    0  501  502  0.00000000000E+00  0.00000000000E+00  0.76359004197E+03  0.76359004197E+03  0.00000000000E+00 0. -1.
         21   -1    0    0  502  503 -0.00000000000E+00 -0.00000000000E+00 -0.10342854893E+03  0.10342854893E+03  0.00000000000E+00 0. -1.
         -6    2    1    2    0  503 -0.21165575361E+03  0.32184215405E+02  0.41431807037E+03  0.49782917777E+03  0.17418508847E+03 0.  0.
        -24    2    3    3    0    0 -0.10654018164E+03  0.51611115267E+01  0.34333739474E+03  0.36806062253E+03  0.78807409925E+02 0.  0.
          6    2    1    2  501    0  0.21165575361E+03 -0.32184215405E+02  0.24584342267E+03  0.36918941313E+03  0.17328546547E+03 0.  0.
         24    2    5    5    0    0  0.21624025602E+03 -0.63248300015E+02  0.24324170946E+03  0.33733264107E+03  0.62181876187E+02 0.  0.
          5    1    5    5  501    0 -0.45845024109E+01  0.31064084611E+02  0.26017132067E+01  0.31856772069E+02  0.47000000000E+01 0. -1.
        -13    1    6    6    0    0  0.10246626127E+03 -0.16085967287E+02  0.71432951429E+02  0.12593950767E+03  0.00000000000E+00 0.  1.
         14    1    6    6    0    0  0.11377399476E+03 -0.47162332728E+02  0.17180875803E+03  0.21139313340E+03  0.00000000000E+00 0. -1.
         -5    1    3    3    0  503 -0.10511557197E+03  0.27023103878E+02  0.70980675634E+02  0.12976855524E+03  0.47000000000E+01 0.  1.
         11    1    4    4    0    0 -0.60029359312E+02  0.56499108901E+01  0.29453339220E+03  0.30064158826E+03  0.00000000000E+00 0. -1.
        -12    1    4    4    0    0 -0.46510822328E+02 -0.48879936342E+00  0.48804002539E+02  0.67419034272E+02  0.00000000000E+00 0.  1.
</event>
<event>
12    1  0.1066489E+000  0.1903685E+03  0.7818608E-02  0.1158697E+00
         21   -1    0    0  503  502  0.00000000000E+00  0.00000000000E+00  0.22193902067E+04  0.22193902067E+04  0.00000000000E+00 0. -1.
         21   -1    0    0  501  503 -0.00000000000E+00 -0.00000000000E+00 -0.20612699335E+02  0.20612699335E+02  0.00000000000E+00 0. -1.
          6    2    1    2  501    0 -0.68133807825E+02 -0.40451107718E+02  0.16282753306E+04  0.16393659447E+04  0.17309431148E+03 0.  0.
         24    2    3    3    0    0 -0.10487808292E+03 -0.63363354741E+01  0.13638525372E+04  0.13701904200E+04  0.79299952629E+02 0.  0.
         -6    2    1    2    0  502  0.68133807825E+02  0.40451107718E+02  0.57050217677E+03  0.60063696130E+03  0.17033354834E+03 0.  0.
        -24    2    5    5    0    0  0.23165122402E+01  0.69801590868E+02  0.24633797897E+03  0.26852570826E+03  0.80907526196E+02 0.  0.
          5    1    3    3  501    0  0.36744275096E+02 -0.34114772244E+02  0.26442279344E+03  0.26917552476E+03  0.47000000000E+01 0. -1.
        -11    1    4    4    0    0 -0.66213764085E+02 -0.13005564289E+02  0.40876115813E+03  0.41429348493E+03  0.00000000000E+00 0.  1.
         12    1    4    4    0    0 -0.38664318835E+02  0.66692288147E+01  0.95509137903E+03  0.95589693506E+03  0.00000000000E+00 0. -1.
         -5    1    5    5    0  502  0.65817295584E+02 -0.29350483150E+02  0.32416419780E+03  0.33211125304E+03  0.47000000000E+01 0.  1.
         11    1    6    6    0    0 -0.28694687476E+02  0.11687398593E+02  0.14040497422E+03  0.14378295156E+03  0.00000000000E+00 0. -1.
        -12    1    6    6    0    0  0.31011199716E+02  0.58114192275E+02  0.10593300475E+03  0.12474275669E+03  0.00000000000E+00 0.  1.
</event>
<event>
12    1  0.1066489E+000  0.2122771E+03  0.7818608E-02  0.1140173E+00
         21   -1    0    0  503  502  0.00000000000E+00  0.00000000000E+00  0.10457699253E+04  0.10457699253E+04  0.00000000000E+00 0.  1.
         21   -1    0    0  501  503 -0.00000000000E+00 -0.00000000000E+00 -0.10099327001E+03  0.10099327001E+03  0.00000000000E+00 0.  1.
          6    2    1    2  501    0 -0.81517398162E+02 -0.90155751481E+02  0.90903927813E+03  0.93349557321E+03  0.17403571554E+03 0.  0.
         24    2    3    3    0    0 -0.37836925371E+02 -0.13048073933E+03  0.58878563128E+03  0.60773710951E+03  0.64953971528E+02 0.  0.
         -6    2    1    2    0  502  0.81517398162E+02  0.90155751481E+02  0.35737377158E+02  0.21326762211E+03  0.17155982276E+03 0.  0.
        -24    2    5    5    0    0 -0.47952149093E+01 -0.49350628742E+01  0.23367690024E+02  0.84165998150E+02  0.80563747280E+02 0.  0.
          5    1    3    3  501    0 -0.43680472791E+02  0.40324987847E+02  0.32025364685E+03  0.32575846370E+03  0.47000000000E+01 0. -1.
        -11    1    4    4    0    0  0.14781962725E+02 -0.37967924007E+02  0.11101636987E+03  0.11825694083E+03  0.00000000000E+00 0.  1.
         12    1    4    4    0    0 -0.52618888095E+02 -0.92512815321E+02  0.47776926141E+03  0.48948016868E+03  0.00000000000E+00 0. -1.
         -5    1    5    5    0  502  0.86312613071E+02  0.95090814355E+02  0.12369687134E+02  0.12910162396E+03  0.47000000000E+01 0.  1.
         13    1    6    6    0    0  0.21647550144E+02  0.23091324292E+02 -0.10000699352E+02  0.33193970421E+02  0.00000000000E+00 0. -1.
        -14    1    6    6    0    0 -0.26442765053E+02 -0.28026387166E+02  0.33368389376E+02  0.50972027729E+02  0.00000000000E+00 0.  1.
</event>
<event>
12    1  0.1066489E+000  0.1793854E+03  0.7818608E-02  0.1169065E+00
         21   -1    0    0  503  502  0.00000000000E+00  0.00000000000E+00  0.29577786386E+03  0.29577786386E+03  0.00000000000E+00 0. -1.
         21   -1    0    0  501  503 -0.00000000000E+00 -0.00000000000E+00 -0.15693314534E+03  0.15693314534E+03  0.00000000000E+00 0. -1.
          6    2    1    2  501    0  0.40672584907E+02  0.13052645071E+02 -0.57698900784E+02  0.18843644755E+03  0.17422543129E+03 0.  0.
         24    2    3    3    0    0  0.47613759924E+02 -0.14334286301E+02 -0.10039678479E+03  0.13702221587E+03  0.78886192382E+02 0.  0.
         -6    2    1    2    0  502 -0.40672584907E+02 -0.13052645071E+02  0.19654361930E+03  0.26427456165E+03  0.17142642427E+03 0.  0.
        -24    2    5    5    0    0  0.39583612137E+02 -0.12587833117E+02  0.72199482807E+02  0.11620421521E+03  0.81026775957E+02 0.  0.
          5    1    3    3  501    0 -0.69411750171E+01  0.27386931372E+02  0.42697884005E+02  0.51414231679E+02  0.47000000000E+01 0. -1.
        -11    1    4    4    0    0  0.33399061067E+02 -0.94336231317E+01  0.79954161907E+00  0.34714979365E+02  0.00000000000E+00 0.  1.
         12    1    4    4    0    0  0.14214698858E+02 -0.49006631690E+01 -0.10119632641E+03  0.10230723651E+03  0.00000000000E+00 0. -1.
         -5    1    5    5    0  502 -0.80256197044E+02 -0.46481195469E+00  0.12434413650E+03  0.14807034644E+03  0.47000000000E+01 0.  1.
         11    1    6    6    0    0 -0.19409075618E+01 -0.29943014664E+01  0.73480064488E+02  0.73566655766E+02  0.00000000000E+00 0. -1.
        -12    1    6    6    0    0  0.41524519698E+02 -0.95935316502E+01 -0.12805816809E+01  0.42637559442E+02  0.00000000000E+00 0.  1.
</event>
<event>
12    1  0.1066489E+000  0.2037364E+03  0.7818608E-02  0.1146839E+00
         21   -1    0    0  501  502  0.00000000000E+00  0.00000000000E+00  0.50071791126E+02  0.50071791126E+02  0.00000000000E+00 0. -1.
         21   -1    0    0  502  503 -0.00000000000E+00 -0.00000000000E+00 -0.12401487705E+04  0.12401487705E+04  0.00000000000E+00 0. -1.
         -6    2    1    2    0  503 -0.42866785374E+02  0.10107262669E+03 -0.96738297414E+03  0.98839090870E+03  0.17039229030E+03 0.  0.
        -24    2    3    3    0    0  0.41347962900E+02  0.44951503151E+02 -0.53879335949E+03  0.54799012292E+03  0.79149219278E+02 0.  0.
          6    2    1    2  501    0  0.42866785374E+02 -0.10107262669E+03 -0.22269400520E+03  0.30182965289E+03  0.17162541262E+03 0.  0.
         24    2    5    5    0    0  0.91722621892E+02 -0.83121557868E+02 -0.18852980704E+03  0.23939235579E+03  0.80268170017E+02 0.  0.
          5    1    5    5  501    0 -0.48855836518E+02 -0.17951068818E+02 -0.34164198161E+02  0.62437297103E+02  0.47000000000E+01 0. -1.
        -11    1    6    6    0    0  0.20282818433E+02 -0.56174379501E+02 -0.13041041651E+03  0.14343580575E+03  0.00000000000E+00 0.  1.
         12    1    6    6    0    0  0.71439803459E+02 -0.26947178368E+02 -0.58119390532E+02  0.95956550043E+02  0.00000000000E+00 0. -1.
         -5    1    3    3    0  503 -0.84214748274E+02  0.56121123535E+02 -0.42858961465E+03  0.44040078579E+03  0.47000000000E+01 0.  1.
         11    1    4    4    0    0 -0.73707492467E+00 -0.15411157390E+02 -0.28407861406E+02  0.32327289419E+02  0.00000000000E+00 0. -1.
        -12    1    4    4    0    0  0.42085037824E+02  0.60362660540E+02 -0.51038549809E+03  0.51566283350E+03  0.00000000000E+00 0.  1.
</event>
<event>
12    1  0.1066489E+000  0.2242951E+03  0.7818608E-02  0.1131170E+00
         21   -1    0    0  501  502  0.00000000000E+00  0.00000000000E+00  0.69094981241E+03  0.69094981241E+03  0.00000000000E+00 0. -1.
         21   -1    0    0  502  503 -0.00000000000E+00 -0.00000000000E+00 -0.74195607727E+02  0.74195607727E+02  0.00000000000E+00 0. -1.
         -6    2    1    2    0  503  0.12665153928E+03 -0.64539178483E+02  0.37230634405E+03  0.43338789987E+03  0.17031482603E+03 0.  0.
        -24    2    3    3    0    0  0.87284230489E+02 -0.71751236671E+02  0.36758744322E+03  0.39281504182E+03  0.80102133607E+02 0.  0.
          6    2    1    2  501    0 -0.12665153928E+03  0.64539178483E+02  0.24444786063E+03  0.33175752027E+03  0.17350036810E+03 0.  0.
         24    2    5    5    0    0 -0.13239681538E+03  0.94438502345E+02  0.17025466122E+03  0.25142260506E+03  0.88199371970E+02 0.  0.
          5    1    5    5  501    0  0.57452761014E+01 -0.29899323862E+02  0.74193199405E+02  0.80334915217E+02  0.47000000000E+01 0. -1.
        -13    1    6    6    0    0 -0.64027856322E+02  0.95257925701E+02  0.89078864685E+02  0.14528827526E+03  0.00000000000E+00 0.  1.
         14    1    6    6    0    0 -0.68368959062E+02 -0.81942335608E+00  0.81175796539E+02  0.10613432980E+03  0.00000000000E+00 0. -1.
         -5    1    3    3    0  503  0.39367308793E+02  0.72120581876E+01  0.47189008307E+01  0.40572858045E+02  0.47000000000E+01 0.  1.
         13    1    4    4    0    0  0.18689327330E+02  0.17582670387E+02  0.60109789513E+02  0.65357693115E+02  0.00000000000E+00 0. -1.
        -14    1    4    4    0    0  0.68594903159E+02 -0.89333907058E+02  0.30747765371E+03  0.32745734871E+03  0.00000000000E+00 0.  1.
</event>
<event>
12    1  0.1066489E+000  0.2668320E+03  0.7818608E-02  0.1103469E+00
         21   -1    0    0  503  502  0.00000000000E+00  0.00000000000E+00  0.46267904231E+03  0.46267904231E+03  0.00000000000E+00 0. -1.
         21   -1    0    0  501  503 -0.00000000000E+00 -0.00000000000E+00 -0.20452693515E+03  0.20452693515E+03  0.00000000000E+00 0. -1.
          6    2    1    2  501    0 -0.10679823104E+03 -0.17108058675E+03  0.29784633886E+03  0.39988966008E+03  0.17471367820E+03 0.  0.
         24    2    3    3    0    0 -0.13445273790E+03 -0.15185109601E+03  0.19588121273E+03  0.29240234915E+03  0.77416989081E+02 0.  0.
         -6    2    1    2    0  502  0.10679823104E+03  0.17108058675E+03 -0.39694231699E+02  0.26731631738E+03  0.17090334166E+03 0.  0.
        -24    2    5    5    0    0  0.14410790035E+03  0.14181774048E+03 -0.26810940377E+02  0.21795646739E+03  0.76855947694E+02 0.  0.
          5    1    3    3  501    0  0.27654506866E+02 -0.19229490739E+02  0.10196512613E+03  0.10748731093E+03  0.47000000000E+01 0. -1.
        -13    1    4    4    0    0 -0.86216428453E+02 -0.13711043032E+03  0.12123399464E+03  0.20231219462E+03  0.00000000000E+00 0.  1.
         14    1    4    4    0    0 -0.48236309450E+02 -0.14740665699E+02  0.74647218088E+02  0.90090154528E+02  0.00000000000E+00 0. -1.
         -5    1    5    5    0  502 -0.37309669308E+02  0.29262846277E+02 -0.12883291321E+02  0.49359849993E+02  0.47000000000E+01 0.  1.
         11    1    6    6    0    0  0.15034571983E+02  0.49136820363E+01  0.18582110497E+02  0.24402406774E+02  0.00000000000E+00 0. -1.
        -12    1    6    6    0    0  0.12907332836E+03  0.13690405844E+03 -0.45393050874E+02  0.19355406061E+03  0.00000000000E+00 0.  1.
</event>
<event>
12    1  0.1066489E+000  0.1888908E+03  0.7818608E-02  0.1162966E+00
         21   -1    0    0  501  502  0.00000000000E+00  0.00000000000E+00  0.12644891406E+03  0.12644891406E+03  0.00000000000E+00 0.  1.
         21   -1    0    0  502  503 -0.00000000000E+00 -0.00000000000E+00 -0.26203729403E+03  0.26203729403E+03  0.00000000000E+00 0.  1.
         -6    2    1    2    0  503 -0.23115220779E+02 -0.90827631487E+01 -0.79626353034E+02  0.19147990882E+03  0.17235831679E+03 0.  0.
        -24    2    3    3    0    0 -0.58832755810E+02 -0.56897882535E+02 -0.48137423678E+02  0.12383620533E+03  0.79495484140E+02 0.  0.
          6    2    1    2  501    0  0.23115220779E+02  0.90827631487E+01 -0.55962026931E+02  0.19700629927E+03  0.18725096388E+03 0.  0.
         24    2    5    5    0    0 -0.28458233194E+02 -0.44859049318E+02  0.11645236029E+02  0.96197706915E+02  0.79348484240E+02 0.  0.
          5    1    5    5  501    0  0.51573453973E+02  0.53941812467E+02 -0.67607262960E+02  0.10080859235E+03  0.47000000000E+01 0. -1.
        -13    1    6    6    0    0  0.17866076784E+02  0.94383460825E+01  0.14333908650E+02  0.24773776733E+02  0.00000000000E+00 0.  1.
         14    1    6    6    0    0 -0.46324309978E+02 -0.54297395401E+02 -0.26886726205E+01  0.71423930182E+02  0.00000000000E+00 0. -1.
         -5    1    3    3    0  503  0.35717535031E+02  0.47815119387E+02 -0.31488929356E+02  0.67643703496E+02  0.47000000000E+01 0.  1.
         11    1    4    4    0    0 -0.76167224311E+02 -0.29951530724E+02 -0.37951701764E+02  0.90215696632E+02  0.00000000000E+00 0. -1.
        -12    1    4    4    0    0  0.17334468501E+02 -0.26946351811E+02 -0.10185721913E+02  0.33620508697E+02  0.00000000000E+00 0.  1.
</event>
<event>
12    1  0.1066489E+000  0.3026186E+03  0.7818608E-02  0.1083965E+00
         21   -1    0    0  503  502  0.00000000000E+00  0.00000000000E+00  0.71467048612E+03  0.71467048612E+03  0.00000000000E+00 0. -1.
         21   -1    0    0  501  503 -0.00000000000E+00 -0.00000000000E+00 -0.13591177818E+03  0.13591177818E+03  0.00000000000E+00 0. -1.
          6    2    1    2  501    0  0.14780008818E+03  0.19985049351E+03  0.39156154219E+03  0.49474414099E+03  0.17223889775E+03 0.  0.
         24    2    3    3    0    0  0.16562544012E+03  0.10505046500E+03  0.26223760168E+03  0.33333918392E+03  0.62282141814E+02 0.  0.
         -6    2    1    2    0  502 -0.14780008818E+03 -0.19985049351E+03  0.18719716576E+03  0.35583812332E+03  0.17260621460E+03 0.  0.
        -24    2    5    5    0    0 -0.13656615047E+03 -0.14358786696E+03  0.70270992829E+02  0.22550967509E+03  0.81540248551E+02 0.  0.
          5    1    3    3  501    0 -0.17825351946E+02  0.94800028505E+02  0.12932394051E+03  0.16140495707E+03  0.47000000000E+01 0. -1.
        -11    1    4    4    0    0  0.10884181505E+03  0.98133578440E+02  0.20852169807E+03  0.25486866910E+03  0.00000000000E+00 0.  1.
         12    1    4    4    0    0  0.56783625073E+02  0.69168865619E+01  0.53715903608E+02  0.78470514823E+02  0.00000000000E+00 0. -1.
         -5    1    5    5    0  502 -0.11233937711E+02 -0.56262626547E+02  0.11692617293E+03  0.13032844823E+03  0.47000000000E+01 0.  1.
         11    1    6    6    0    0 -0.59482098644E+02 -0.10522694559E+02  0.16796001501E+02  0.62697311156E+02  0.00000000000E+00 0. -1.
        -12    1    6    6    0    0 -0.77084051824E+02 -0.13306517240E+03  0.53474991328E+02  0.16281236393E+03  0.00000000000E+00 0.  1.
</event>
<event>
12    1  0.1066489E+000  0.2341353E+03  0.7818608E-02  0.1124006E+00
         21   -1    0    0  501  502  0.00000000000E+00  0.00000000000E+00  0.68176257881E+02  0.68176257881E+02  0.00000000000E+00 0. -1.
         21   -1    0    0  502  503 -0.00000000000E+00 -0.00000000000E+00 -0.14035442310E+04  0.14035442310E+04  0.00000000000E+00 0. -1.
         -6    2    1    2    0  503  0.48968601298E+02 -0.15084883385E+03 -0.18369040995E+03  0.29648410886E+03  0.17031548817E+03 0.  0.
        -24    2    3    3    0    0  0.92335493625E+02 -0.13431143031E+03 -0.16491038458E+03  0.24619541809E+03  0.82772853360E+02 0.  0.
          6    2    1    2  501    0 -0.48968601298E+02  0.15084883385E+03 -0.11516775631E+04  0.11752363800E+04  0.17223833733E+03 0.  0.
         24    2    5    5    0    0 -0.91293379878E+02  0.13698755418E+03 -0.10182618888E+04  0.10345048835E+04  0.79012711175E+02 0.  0.
          5    1    5    5  501    0  0.42324778579E+02  0.13861279669E+02 -0.13341567430E+03  0.14073149649E+03  0.47000000000E+01 0. -1.
        -11    1    6    6    0    0 -0.49852108533E+02  0.46121855902E+02 -0.22631468183E+03  0.23628540693E+03  0.00000000000E+00 0.  1.
         12    1    6    6    0    0 -0.41441271345E+02  0.90865698276E+02 -0.79194720700E+03  0.79821947656E+03  0.00000000000E+00 0. -1.
         -5    1    3    3    0  503 -0.43366892326E+02 -0.16537403541E+02 -0.18780025376E+02  0.50288690767E+02  0.47000000000E+01 0.  1.
         13    1    4    4    0    0 -0.11438845961E+02 -0.32505787583E+02 -0.15674621963E+02  0.37857194785E+02  0.00000000000E+00 0. -1.
        -14    1    4    4    0    0  0.10377433959E+03 -0.10180564272E+03 -0.14923576262E+03  0.20833822331E+03  0.00000000000E+00 0.  1.
</event>
<event>
12    1  0.1066489E+000  0.1803300E+03  0.7818608E-02  0.1167855E+00
         21   -1    0    0  503  502  0.00000000000E+00  0.00000000000E+00  0.16498952040E+03  0.16498952040E+03  0.00000000000E+00 0. -1.
         21   -1    0    0  501  503 -0.00000000000E+00 -0.00000000000E+00 -0.27736647979E+03  0.27736647979E+03  0.00000000000E+00 0. -1.
          6    2    1    2  501    0  0.46640321441E+02 -0.85801905509E+01  0.63855996959E+02  0.19130207812E+03  0.17398263561E+03 0.  0.
         24    2    3    3    0    0  0.58990249077E+02  0.41425291868E+02 -0.32903046353E+01  0.10654486721E+03  0.78390550009E+02 0.  0.
         -6    2    1    2    0  502 -0.46640321441E+02  0.85801905509E+01 -0.17623295636E+03  0.25105392207E+03  0.17239802094E+03 0.  0.
        -24    2    5    5    0    0 -0.64971612906E+02  0.32168552674E+02 -0.45253319367E+02  0.11662846919E+03  0.79361266672E+02 0.  0.
          5    1    3    3  501    0 -0.12349927636E+02 -0.50005482419E+02  0.67146301594E+02  0.84757210916E+02  0.47000000000E+01 0. -1.
        -11    1    4    4    0    0  0.16012532512E+02 -0.33187337406E+01  0.31444122172E+02  0.35442178407E+02  0.00000000000E+00 0.  1.
         12    1    4    4    0    0  0.42977716564E+02  0.44744025609E+02 -0.34734426807E+02  0.71102688798E+02  0.00000000000E+00 0. -1.
         -5    1    5    5    0  502  0.18331291465E+02 -0.23588362123E+02 -0.13097963699E+03  0.13442545288E+03  0.47000000000E+01 0.  1.
         13    1    6    6    0    0 -0.32082399977E+02 -0.17757114997E+02 -0.43396820242E+02  0.56814430636E+02  0.00000000000E+00 0. -1.
        -14    1    6    6    0    0 -0.32889212928E+02  0.49925667671E+02 -0.18564991243E+01  0.59814038557E+02  0.00000000000E+00 0.  1.
</event>
<event>
12    1  0.1066489E+000  0.1831266E+03  0.7818608E-02  0.1165604E+00
         21   -1    0    0  501  502  0.00000000000E+00  0.00000000000E+00  0.36816749691E+03  0.36816749691E+03  0.00000000000E+00 0. -1.
         21   -1    0    0  502  503 -0.00000000000E+00 -0.00000000000E+00 -0.90591115010E+02  0.90591115010E+02  0.00000000000E+00 0. -1.
         -6    2    1    2    0  503  0.50833698105E+02  0.21641904024E+02  0.11423363599E+03  0.21583481794E+03  0.17459355135E+03 0.  0.
        -24    2    3    3    0    0  0.70676055390E+02 -0.25474455418E+02  0.34325151780E+02  0.12085520793E+03  0.88225350979E+02 0.  0.
          6    2    1    2  501    0 -0.50833698105E+02 -0.21641904024E+02  0.16334274592E+03  0.24292379398E+03  0.17111014045E+03 0.  0.
         24    2    5    5    0    0  0.93433688107E+01 -0.61459387553E+01  0.16177085080E+03  0.18058628379E+03  0.79476579069E+02 0.  0.
          5    1    5    5  501    0 -0.60177066916E+02 -0.15495965269E+02  0.15718951143E+01  0.62337510188E+02  0.47000000000E+01 0. -1.
        -11    1    6    6    0    0 -0.12864869628E+02 -0.34878104854E+02  0.45385726628E+02  0.58667292850E+02  0.00000000000E+00 0.  1.
         12    1    6    6    0    0  0.22208238438E+02  0.28732166099E+02  0.11638512417E+03  0.12191899094E+03  0.00000000000E+00 0. -1.
         -5    1    3    3    0  503 -0.19842357284E+02  0.47116359442E+02  0.79908484208E+02  0.94979610012E+02  0.47000000000E+01 0.  1.
         11    1    4    4    0    0  0.88836722135E+02 -0.34248117364E+02  0.32499673640E+02  0.10060380475E+03  0.00000000000E+00 0. -1.
        -12    1    4    4    0    0 -0.18160666745E+02  0.87736619460E+01  0.18254781395E+01  0.20251403186E+02  0.00000000000E+00 0.  1.
</event>
<event>
12    1  0.1066489E+000  0.1783036E+03  0.7818608E-02  0.1169966E+00
         21   -1    0    0  503  502  0.00000000000E+00  0.00000000000E+00  0.43933615836E+03  0.43933615836E+03  0.00000000000E+00 0. -1.
         21   -1    0    0  501  503 -0.00000000000E+00 -0.00000000000E+00 -0.13648025393E+03  0.13648025393E+03  0.00000000000E+00 0. -1.
          6    2    1    2  501    0  0.26053975759E+02 -0.44136147542E+02  0.35051235081E+03  0.39325703077E+03  0.17077873114E+03 0.  0.
         24    2    3    3    0    0  0.25253507364E+02  0.21889911624E+02  0.90072495098E+02  0.12453581895E+03  0.79241453574E+02 0.  0.
         -6    2    1    2    0  502 -0.26053975759E+02  0.44136147542E+02 -0.47656446378E+02  0.18255938151E+03  0.16861192640E+03 0.  0.
        -24    2    5    5    0    0  0.15070613935E+01  0.80692712643E+02  0.26204344839E+01  0.11439892399E+03  0.81034943235E+02 0.  0.
          5    1    3    3  501    0  0.80046839478E+00 -0.66026059167E+02  0.26043985571E+03  0.26872121182E+03  0.47000000000E+01 0. -1.
        -11    1    4    4    0    0  0.41056699845E+02 -0.15711574845E+02  0.57256810491E+02  0.72186207366E+02  0.00000000000E+00 0.  1.
         12    1    4    4    0    0 -0.15803192481E+02  0.37601486469E+02  0.32815684607E+02  0.52349611589E+02  0.00000000000E+00 0. -1.
         -5    1    5    5    0  502 -0.27561037152E+02 -0.36556565100E+02 -0.50276880862E+02  0.68160457525E+02  0.47000000000E+01 0.  1.
         13    1    6    6    0    0  0.69483967001E+00 -0.19458442880E+01 -0.26646980239E+02  0.26726965185E+02  0.00000000000E+00 0. -1.
        -14    1    6    6    0    0  0.81222172349E+00  0.82638556931E+02  0.29267414723E+02  0.87671958803E+02  0.00000000000E+00 0.  1.
</event>
<event>
12    1  0.1066489E+000  0.2019779E+03  0.7818608E-02  0.1148469E+00
         21   -1    0    0  501  502  0.00000000000E+00  0.00000000000E+00  0.19676019828E+03  0.19676019828E+03  0.00000000000E+00 0. -1.
         21   -1    0    0  502  503 -0.00000000000E+00 -0.00000000000E+00 -0.41372822402E+03  0.41372822402E+03  0.00000000000E+00 0. -1.
         -6    2    1    2    0  503 -0.99130156473E+02 -0.26614204794E+02 -0.32481997824E+03  0.38151876924E+03  0.17179478804E+03 0.  0.
        -24    2    3    3    0    0  0.51622911864E+01  0.26306377425E+02 -0.11644691667E+03  0.14252310934E+03  0.77680612450E+02 0.  0.
          6    2    1    2  501    0  0.99130156473E+02  0.26614204794E+02  0.10785195251E+03  0.22896965306E+03  0.17395388625E+03 0.  0.
         24    2    5    5    0    0 -0.80878160062E+01  0.44675211001E+02  0.60498816294E+02  0.11028392065E+03  0.80256770027E+02 0.  0.
          5    1    5    5  501    0  0.10721797248E+03 -0.18061006207E+02  0.47353136219E+02  0.11868573241E+03  0.47000000000E+01 0. -1.
        -13    1    6    6    0    0  0.77380738805E+01  0.18739823497E+02 -0.17369901873E+02  0.26697795099E+02  0.00000000000E+00 0.  1.
         14    1    6    6    0    0 -0.15825889887E+02  0.25935387504E+02  0.77868718166E+02  0.83586125551E+02  0.00000000000E+00 0. -1.
         -5    1    3    3    0  503 -0.10429244766E+03 -0.52920582220E+02 -0.20837306158E+03  0.23899565990E+03  0.47000000000E+01 0.  1.
         11    1    4    4    0    0  0.16091394099E+02 -0.36893136715E+01  0.47607461451E+01  0.17181638551E+02  0.00000000000E+00 0. -1.
        -12    1    4    4    0    0 -0.10929102913E+02  0.29995691097E+02 -0.12120766281E+03  0.12534147079E+03  0.00000000000E+00 0.  1.
</event>
<event>
12    1  0.1066489E+000  0.3351072E+03  0.7818608E-02  0.1069013E+00
         21   -1    0    0  501  502  0.00000000000E+00  0.00000000000E+00  0.75566479719E+02  0.75566479719E+02  0.00000000000E+00 0. -1.
         21   -1    0    0  502  503 -0.00000000000E+00 -0.00000000000E+00 -0.14973413747E+04  0.14973413747E+04  0.00000000000E+00 0. -1.
         -6    2    1    2    0  503  0.21282463637E+03  0.19323915587E+03 -0.63094891249E+03  0.71441818972E+03  0.17222404721E+03 0.  0.
        -24    2    3    3    0    0  0.20695989406E+03  0.11676131292E+03 -0.54030966279E+03  0.59558713633E+03  0.79522973539E+02 0.  0.
          6    2    1    2  501    0 -0.21282463637E+03 -0.19323915587E+03 -0.79082598248E+03  0.85848966468E+03  0.17018540652E+03 0.  0.
         24    2    5    5    0    0 -0.22243537853E+03 -0.13296742659E+03 -0.60590573300E+03  0.66370096793E+03  0.78863067332E+02 0.  0.
          5    1    5    5  501    0  0.96107421614E+01 -0.60271729279E+02 -0.18492024948E+03  0.19478869675E+03  0.47000000000E+01 0. -1.
        -13    1    6    6    0    0 -0.15858338699E+03 -0.13303026756E+03 -0.45828961656E+03  0.50286689627E+03  0.00000000000E+00 0.  1.
         14    1    6    6    0    0 -0.63851991543E+02  0.62840977874E-01 -0.14761611643E+03  0.16083407165E+03  0.00000000000E+00 0. -1.
         -5    1    3    3    0  503  0.58647423127E+01  0.76477842948E+02 -0.90639249699E+02  0.11883105339E+03  0.47000000000E+01 0.  1.
         13    1    4    4    0    0  0.43303785928E+02 -0.41940130929E+01 -0.13865784899E+03  0.14532311140E+03  0.00000000000E+00 0. -1.
        -14    1    4    4    0    0  0.16365610813E+03  0.12095532601E+03 -0.40165181380E+03  0.45026402493E+03  0.00000000000E+00 0.  1.
</event>
<event>
12    1  0.1066489E+000  0.3244860E+03  0.7818608E-02  0.1073650E+00
         21   -1    0    0  503  502  0.00000000000E+00  0.00000000000E+00  0.11659192391E+04  0.11659192391E+04  0.00000000000E+00 0. -1.
         21   -1    0    0  501  503 -0.00000000000E+00 -0.00000000000E+00 -0.90377495226E+02  0.90377495226E+02  0.00000000000E+00 0.  1.
          6    2    1    2  501    0 -0.14341447646E+03 -0.23499444815E+03  0.56666515029E+03  0.65299351273E+03  0.17175864576E+03 0.  0.
         24    2    3    3    0    0 -0.77454247569E+01 -0.48026301669E+02  0.17157573397E+03  0.19530266043E+03  0.79613939906E+02 0.  0.
         -6    2    1    2    0  502  0.14341447646E+03  0.23499444815E+03  0.50887659362E+03  0.60330322163E+03  0.17096574797E+03 0.  0.
        -24    2    5    5    0    0  0.25524602065E+02  0.63752705633E+02  0.24928941304E+03  0.27069331321E+03  0.80085863745E+02 0.  0.
          5    1    3    3  501    0 -0.13566905171E+03 -0.18696814648E+03  0.39508941633E+03  0.45769085230E+03  0.47000000000E+01 0. -1.
        -11    1    4    4    0    0  0.27910659540E+02 -0.14397552901E+02  0.23211175935E+02  0.39051928682E+02  0.00000000000E+00 0.  1.
         12    1    4    4    0    0 -0.35656084297E+02 -0.33628748767E+02  0.14836455803E+03  0.15625073175E+03  0.00000000000E+00 0. -1.
         -5    1    5    5    0  502  0.11788987440E+03  0.17124174251E+03  0.25958718057E+03  0.33260990843E+03  0.47000000000E+01 0.  1.
         11    1    6    6    0    0  0.28959721890E+02  0.62593277869E+02  0.10066504596E+03  0.12202473275E+03  0.00000000000E+00 0. -1.
        -12    1    6    6    0    0 -0.34351198251E+01  0.11594277643E+01  0.14862436709E+03  0.14866858045E+03  0.00000000000E+00 0.  1.
</event>
<event>
12    1  0.1066489E+000  0.2277046E+03  0.7818608E-02  0.1128520E+00
         21   -1    0    0  501  502  0.00000000000E+00  0.00000000000E+00  0.63945772344E+02  0.63945772344E+02  0.00000000000E+00 0.  1.
         21   -1    0    0  502  503 -0.00000000000E+00 -0.00000000000E+00 -0.81019704648E+03  0.81019704648E+03  0.00000000000E+00 0.  1.
         -6    2    1    2    0  503 -0.87715953325E+02 -0.11775060928E+03 -0.40426186161E+03  0.46328254519E+03  0.17217366082E+03 0.  0.
        -24    2    3    3    0    0 -0.84938584259E+02 -0.14676312590E+03 -0.38230045376E+03  0.42648807096E+03  0.83573078821E+02 0.  0.
          6    2    1    2  501    0  0.87715953325E+02  0.11775060928E+03 -0.34198941254E+03  0.41086027363E+03  0.17404054617E+03 0.  0.
         24    2    5    5    0    0 -0.96992360149E+01  0.42406074204E+01 -0.10452577870E+03  0.13017306867E+03  0.76859166425E+02 0.  0.
          5    1    5    5  501    0  0.97415189340E+02  0.11351000186E+03 -0.23746363383E+03  0.28068720496E+03  0.47000000000E+01 0. -1.
        -11    1    6    6    0    0  0.82573029771E+01  0.18014524176E+02  0.32195850243E+01  0.20076649657E+02  0.00000000000E+00 0.  1.
         12    1    6    6    0    0 -0.17956538992E+02 -0.13773916755E+02 -0.10774536373E+03  0.11009641901E+03  0.00000000000E+00 0. -1.
         -5    1    3    3    0  503 -0.27773690663E+01  0.29012516624E+02 -0.21961407846E+02  0.36794474236E+02  0.47000000000E+01 0.  1.
         13    1    4    4    0    0  0.41392434462E+01 -0.72823790590E+02 -0.13550605593E+03  0.15389063976E+03  0.00000000000E+00 0. -1.
        -14    1    4    4    0    0 -0.89077827705E+02 -0.73939335314E+02 -0.24679439783E+03  0.27259743120E+03  0.00000000000E+00 0.  1.
</event>
<event>
12    1  0.1066489E+000  0.1920350E+03  0.7818608E-02  0.1156739E+00
         21   -1    0    0  501  502  0.00000000000E+00  0.00000000000E+00  0.31980184916E+02  0.31980184916E+02  0.00000000000E+00 0. -1.
         21   -1    0    0  502  503 -0.00000000000E+00 -0.00000000000E+00 -0.11929445851E+04  0.11929445851E+04  0.00000000000E+00 0. -1.
         -6    2    1    2    0  503  0.71628395954E+02  0.44076490701E+02 -0.46550958221E+03  0.50356392462E+03  0.17263861363E+03 0.  0.
        -24    2    3    3    0    0  0.18964012127E+02 -0.39865021812E+02 -0.17209650240E+03  0.19383333161E+03  0.77493874495E+02 0.  0.
          6    2    1    2  501    0 -0.71628395954E+02 -0.44076490701E+02 -0.69545481794E+03  0.72136084536E+03  0.17213570600E+03 0.  0.
         24    2    5    5    0    0  0.77522873247E+01  0.23101568844E+02 -0.38650422806E+03  0.39534437100E+03  0.79485048499E+02 0.  0.
          5    1    5    5  501    0 -0.79380683279E+02 -0.67178059545E+02 -0.30895058989E+03  0.32601647436E+03  0.47000000000E+01 0. -1.
        -13    1    6    6    0    0  0.32432647326E+02 -0.14720493377E+02 -0.12526565524E+03  0.13023077179E+03  0.00000000000E+00 0.  1.
         14    1    6    6    0    0 -0.24680360001E+02  0.37822062221E+02 -0.26123857282E+03  0.26511359921E+03  0.00000000000E+00 0. -1.
         -5    1    3    3    0  503  0.52664383828E+02  0.83941512513E+02 -0.29341307980E+03  0.30973059301E+03  0.47000000000E+01 0.  1.
         13    1    4    4    0    0 -0.11945698235E+02 -0.27641102212E+02 -0.15208040509E+03  0.15503283475E+03  0.00000000000E+00 0. -1.
        -14    1    4    4    0    0  0.30909710362E+02 -0.12223919600E+02 -0.20016097310E+02  0.38800496859E+02  0.00000000000E+00 0.  1.
</event>
<event>
12    1  0.1066489E+000  0.2960905E+03  0.7818608E-02  0.1087231E+00
         21   -1    0    0  503  502  0.00000000000E+00  0.00000000000E+00  0.34894137180E+03  0.34894137180E+03  0.00000000000E+00 0. -1.
         21   -1    0    0  501  503 -0.00000000000E+00 -0.00000000000E+00 -0.25170315098E+03  0.25170315098E+03  0.00000000000E+00 0.  1.
          6    2    1    2  501    0  0.23122663035E+03  0.68314270429E+02  0.63148304500E+02  0.30259799789E+03  0.17159617081E+03 0.  0.
         24    2    3    3    0    0  0.22343432084E+03  0.99648037343E+02  0.75377508851E+02  0.26775307752E+03  0.78468558070E+02 0.  0.
         -6    2    1    2    0  502 -0.23122663035E+03 -0.68314270429E+02  0.34089916321E+02  0.29804652489E+03  0.17186335990E+03 0.  0.
        -24    2    5    5    0    0 -0.10642732604E+03 -0.86394447399E+02  0.59123458466E+02  0.16939767185E+03  0.80057551913E+02 0.  0.
          5    1    3    3  501    0  0.77923095122E+01 -0.31333766913E+02 -0.12229204351E+02  0.34844920370E+02  0.47000000000E+01 0. -1.
        -11    1    4    4    0    0  0.55685216287E+02 -0.94681100185E+01  0.22222038754E+02  0.60698496082E+02  0.00000000000E+00 0.  1.
         12    1    4    4    0    0  0.16774910455E+03  0.10911614736E+03  0.53155470098E+02  0.20705458144E+03  0.00000000000E+00 0. -1.
         -5    1    5    5    0  502 -0.12479930431E+03  0.18080176969E+02 -0.25033542145E+02  0.12864885304E+03  0.47000000000E+01 0.  1.
         13    1    6    6    0    0 -0.79376088676E+01 -0.31630076687E+02  0.45364293497E+02  0.55869370055E+02  0.00000000000E+00 0. -1.
        -14    1    6    6    0    0 -0.98489717173E+02 -0.54764370711E+02  0.13759164968E+02  0.11352830180E+03  0.00000000000E+00 0.  1.
</event>
<event>
12    1  0.1066489E+000  0.2024536E+03  0.7818608E-02  0.1147797E+00
         21   -1    0    0  503  502  0.00000000000E+00  0.00000000000E+00  0.78821580457E+02  0.78821580457E+02  0.00000000000E+00 0.  1.
         21   -1    0    0  501  503 -0.00000000000E+00 -0.00000000000E+00 -0.78391597704E+03  0.78391597704E+03  0.00000000000E+00 0.  1.
          6    2    1    2  501    0 -0.16472156841E+02 -0.10480423247E+03 -0.60317949991E+03  0.63607903428E+03  0.17180154143E+03 0.  0.
         24    2    3    3    0    0  0.50505099718E+02 -0.81956137200E+02 -0.30622935519E+03  0.33077677945E+03  0.79807808640E+02 0.  0.
         -6    2    1    2    0  502  0.16472156841E+02  0.10480423247E+03 -0.10191489667E+03  0.22665852322E+03  0.17243022035E+03 0.  0.
        -24    2    5    5    0    0 -0.32733177662E+02  0.77389168821E+02 -0.12002062538E+03  0.16730653867E+03  0.80783556451E+02 0.  0.
          5    1    3    3  501    0 -0.66977256558E+02 -0.22848095270E+02 -0.29695014472E+03  0.30530225483E+03  0.47000000000E+01 0. -1.
        -11    1    4    4    0    0  0.58250000732E+02 -0.18536033141E+02 -0.14623008068E+03  0.15849253485E+03  0.00000000000E+00 0.  1.
         12    1    4    4    0    0 -0.77449010142E+01 -0.63420104059E+02 -0.15999927452E+03  0.17228424460E+03  0.00000000000E+00 0. -1.
         -5    1    5    5    0  502  0.49205334502E+02  0.27415063649E+02  0.18105728710E+02  0.59351984554E+02  0.47000000000E+01 0.  1.
         11    1    6    6    0    0 -0.29099284512E+01  0.49613982171E+02 -0.10978368783E+02  0.50897342677E+02  0.00000000000E+00 0. -1.
        -12    1    6    6    0    0 -0.29823249210E+02  0.27775186650E+02 -0.10904225660E+03  0.11640919599E+03  0.00000000000E+00 0.  1.
</event>
<event>
12    1  0.1066489E+000  0.3923052E+03  0.7818608E-02  0.1046614E+00
         21   -1    0    0  501  502  0.00000000000E+00  0.00000000000E+00  0.14319743828E+03  0.14319743828E+03  0.00000000000E+00 0.  1.
         21   -1    0    0  502  503 -0.00000000000E+00 -0.00000000000E+00 -0.10719114714E+04  0.10719114714E+04  0.00000000000E+00 0.  1.
         -6    2    1    2    0  503 -0.34050520942E+03  0.89583921397E+02 -0.44360829319E+03  0.59219229079E+03  0.17301536023E+03 0.  0.
        -24    2    3    3    0    0 -0.35072794241E+03  0.10254559807E+03 -0.43312474902E+03  0.57208000524E+03  0.78439753377E+02 0.  0.
          6    2    1    2  501    0  0.34050520942E+03 -0.89583921397E+02 -0.48510573991E+03  0.62291661886E+03  0.16949471536E+03 0.  0.
         24    2    5    5    0    0  0.17023985757E+03  0.18150651207E+02 -0.24708601525E+03  0.31103121121E+03  0.79861506181E+02 0.  0.
          5    1    5    5  501    0  0.17026535186E+03 -0.10773457260E+03 -0.23801972466E+03  0.31188540765E+03  0.47000000000E+01 0. -1.
        -13    1    6    6    0    0  0.97499396185E+02 -0.20180686083E+02 -0.17659175793E+03  0.20272651853E+03  0.00000000000E+00 0.  1.
         14    1    6    6    0    0  0.72740461382E+02  0.38331337290E+02 -0.70494257319E+02  0.10830469268E+03  0.00000000000E+00 0. -1.
         -5    1    3    3    0  503  0.10222732988E+02 -0.12961676675E+02 -0.10483544168E+02  0.20112285556E+02  0.47000000000E+01 0.  1.
         13    1    4    4    0    0 -0.10395463477E+03  0.67093653609E+02 -0.12741465945E+03  0.17760242083E+03  0.00000000000E+00 0. -1.
        -14    1    4    4    0    0 -0.24677330765E+03  0.35451944463E+02 -0.30571008957E+03  0.39447758441E+03  0.00000000000E+00 0.  1.
</event>
<event>
12    1  0.1066489E+000  0.1729349E+03  0.7818608E-02  0.1174919E+00
         21   -1    0    0  501  502  0.00000000000E+00  0.00000000000E+00  0.22655604103E+03  0.22655604103E+03  0.00000000000E+00 0. -1.
         21   -1    0    0  502  503 -0.00000000000E+00 -0.00000000000E+00 -0.17495707602E+03  0.17495707602E+03  0.00000000000E+00 0. -1.
         -6    2    1    2    0  503 -0.45164424506E+01 -0.94488768998E+01  0.12562907206E+03  0.21375018595E+03  0.17261749250E+03 0.  0.
        -24    2    3    3    0    0 -0.65211995579E+02 -0.11886699139E+02  0.10838113687E+03  0.15042977521E+03  0.80552768164E+02 0.  0.
          6    2    1    2  501    0  0.45164424506E+01  0.94488768998E+01 -0.74030107058E+02  0.18776293110E+03  0.17223467136E+03 0.  0.
         24    2    5    5    0    0 -0.44484788178E+02 -0.14441857934E+02 -0.91821764260E+02  0.13022580500E+03  0.79624495334E+02 0.  0.
          5    1    5    5  501    0  0.49001230629E+02  0.23890734833E+02  0.17791657202E+02  0.57537126101E+02  0.47000000000E+01 0. -1.
        -11    1    6    6    0    0 -0.30086463236E+02 -0.37352199356E+02 -0.17372521528E+02  0.51011631723E+02  0.00000000000E+00 0.  1.
         12    1    6    6    0    0 -0.14398324942E+02  0.22910341422E+02 -0.74449242732E+02  0.79214173281E+02  0.00000000000E+00 0. -1.
         -5    1    3    3    0  503  0.60695553128E+02  0.24378222389E+01  0.17247935199E+02  0.63320410733E+02  0.47000000000E+01 0.  1.
         11    1    4    4    0    0 -0.32135150670E+01 -0.31238959873E+02  0.65394736472E+02  0.72544268217E+02  0.00000000000E+00 0. -1.
        -12    1    4    4    0    0 -0.61998480512E+02  0.19352260734E+02  0.42986400394E+02  0.77885506997E+02  0.00000000000E+00 0.  1.
</event>
<event>
12    1  0.1066489E+000  0.1813747E+03  0.7818608E-02  0.1166690E+00
         21   -1    0    0  503  502  0.00000000000E+00  0.00000000000E+00  0.72765205181E+03  0.72765205181E+03  0.00000000000E+00 0. -1.
         21   -1    0    0  501  503 -0.00000000000E+00 -0.00000000000E+00 -0.47977549895E+02  0.47977549895E+02  0.00000000000E+00 0. -1.
          6    2    1    2  501    0 -0.35876103471E+02 -0.43364207088E+02  0.24231314827E+03  0.30215126287E+03  0.17149978009E+03 0.  0.
         24    2    3    3    0    0 -0.49710409440E+02 -0.78506825712E+02  0.23252477310E+03  0.26285375718E+03  0.79936731639E+02 0.  0.
         -6    2    1    2    0  502  0.35876103471E+02  0.43364207088E+02  0.43736135364E+03  0.47347833883E+03  0.17242167622E+03 0.  0.
        -24    2    5    5    0    0  0.51467438047E+02 -0.34271736707E+02  0.19838541355E+03  0.22168076254E+03  0.77214888828E+02 0.  0.
          5    1    3    3  501    0  0.13834305969E+02  0.35142618624E+02  0.97883751718E+01  0.39297505696E+02  0.47000000000E+01 0. -1.
        -13    1    4    4    0    0 -0.35725972633E+02 -0.24765952282E+02  0.18413809592E+03  0.18919972484E+03  0.00000000000E+00 0.  1.
         14    1    4    4    0    0 -0.13984436808E+02 -0.53740873430E+02  0.48386677187E+02  0.73654032334E+02  0.00000000000E+00 0. -1.
         -5    1    5    5    0  502 -0.15591334576E+02  0.77635943795E+02  0.23897594009E+03  0.25179757629E+03  0.47000000000E+01 0.  1.
         11    1    6    6    0    0 -0.60948323560E+01 -0.22300327980E+02  0.12753227821E+03  0.12961070015E+03  0.00000000000E+00 0. -1.
        -12    1    6    6    0    0  0.57562270403E+02 -0.11971408727E+02  0.70853135345E+02  0.92070062393E+02  0.00000000000E+00 0.  1.
</event>
<event>
12    1  0.1066489E+000  0.2101262E+03  0.7818608E-02  0.1141709E+00
         21   -1    0    0  503  502  0.00000000000E+00  0.00000000000E+00  0.18218692119E+03  0.18218692119E+03  0.00000000000E+00 0. -1.
         21   -1    0    0  501  503 -0.00000000000E+00 -0.00000000000E+00 -0.24820753144E+03  0.24820753144E+03  0.00000000000E+00 0. -1.
          6    2    1    2  501    0 -0.65628825569E+02  0.10245164456E+03  0.37119304314E+01  0.21015894363E+03  0.17131701883E+03 0.  0.
         24    2    3    3    0    0 -0.44947003596E+02  0.96067008445E+02 -0.57914120172E+02  0.14467336162E+03  0.79543906129E+02 0.  0.
         -6    2    1    2    0  502  0.65628825569E+02 -0.10245164456E+03 -0.69732540690E+02  0.22023550900E+03  0.16981628301E+03 0.  0.
        -24    2    5    5    0    0  0.77217764389E+02 -0.69567891640E+02  0.10549842081E+02  0.13258280972E+03  0.81637170332E+02 0.  0.
          5    1    3    3  501    0 -0.20681821972E+02  0.63846361136E+01  0.61626050603E+02  0.65485582011E+02  0.47000000000E+01 0. -1.
        -11    1    4    4    0    0 -0.80534853163E+01  0.54443276317E+02  0.10989138975E+02  0.56122100258E+02  0.00000000000E+00 0.  1.
         12    1    4    4    0    0 -0.36893518280E+02  0.41623732128E+02 -0.68903259146E+02  0.88551261359E+02  0.00000000000E+00 0. -1.
         -5    1    5    5    0  502 -0.11588938820E+02 -0.32883752918E+02 -0.80282382770E+02  0.87652699287E+02  0.47000000000E+01 0.  1.
         13    1    6    6    0    0 -0.14230914255E+02 -0.20141419711E+00 -0.79789867498E+01  0.16316363497E+02  0.00000000000E+00 0. -1.
        -14    1    6    6    0    0  0.91448678644E+02 -0.69366477443E+02  0.18528828831E+02  0.11626644622E+03  0.00000000000E+00 0.  1.
</event>
<event>
12    1  0.1066489E+000  0.1894713E+03  0.7818608E-02  0.1158947E+00
         21   -1    0    0  501  502  0.00000000000E+00  0.00000000000E+00  0.24696657536E+03  0.24696657536E+03  0.00000000000E+00 0.  1.
         21   -1    0    0  502  503 -0.00000000000E+00 -0.00000000000E+00 -0.14902333638E+03  0.14902333638E+03  0.00000000000E+00 0.  1.
         -6    2    1    2    0  503 -0.75268894256E+02 -0.22891296302E+02  0.17826434343E+02  0.19030800572E+03  0.17236570828E+03 0.  0.
        -24    2    3    3    0    0 -0.14076508110E+02 -0.22776646049E+02  0.70240069390E+02  0.10959988713E+03  0.79759289278E+02 0.  0.
          6    2    1    2  501    0  0.75268894256E+02  0.22891296302E+02  0.80116804633E+02  0.20568190602E+03  0.17232796114E+03 0.  0.
         24    2    5    5    0    0  0.73836151850E+02  0.78015036022E+02  0.59281836660E+02  0.14654760699E+03  0.80148248831E+02 0.  0.
          5    1    5    5  501    0  0.14327424053E+01 -0.55123739720E+02  0.20834967973E+02  0.59134299031E+02  0.47000000000E+01 0. -1.
        -11    1    6    6    0    0 -0.18741941589E+01  0.37924973629E+02 -0.65158901117E+01  0.38526264450E+02  0.00000000000E+00 0.  1.
         12    1    6    6    0    0  0.75710346009E+02  0.40090062393E+02  0.65797726771E+02  0.10802134254E+03  0.00000000000E+00 0. -1.
         -5    1    3    3    0  503 -0.61192386145E+02 -0.11465025336E+00 -0.52413635047E+02  0.80708118586E+02  0.47000000000E+01 0.  1.
         11    1    4    4    0    0  0.74050286411E+01 -0.34882803873E+01 -0.16371252662E+02  0.18303564215E+02  0.00000000000E+00 0. -1.
        -12    1    4    4    0    0 -0.21481536751E+02 -0.19288365662E+02  0.86611322052E+02  0.91296322920E+02  0.00000000000E+00 0.  1.
</event>
<event>
12    1  0.1066489E+000  0.4254607E+03  0.7818608E-02  0.1035432E+00
         21   -1    0    0  501  502  0.00000000000E+00  0.00000000000E+00  0.77957985068E+03  0.77957985068E+03  0.00000000000E+00 0. -1.
         21   -1    0    0  502  503 -0.00000000000E+00 -0.00000000000E+00 -0.24945861867E+03  0.24945861867E+03  0.00000000000E+00 0. -1.
         -6    2    1    2    0  503 -0.35660465757E+03 -0.15345746334E+03  0.40331485227E+03  0.58508278856E+03  0.17012620184E+03 0.  0.
        -24    2    3    3    0    0 -0.18845133757E+03 -0.52097750956E+02  0.28501100985E+03  0.35580736586E+03  0.84495701541E+02 0.  0.
          6    2    1    2  501    0  0.35660465757E+03  0.15345746334E+03  0.12680637975E+03  0.44395568079E+03  0.17407100191E+03 0.  0.
         24    2    5    5    0    0  0.30387380749E+03  0.63053917874E+02  0.98272857230E+02  0.33537577708E+03  0.80649054199E+02 0.  0.
          5    1    5    5  501    0  0.52730850078E+02  0.90403545469E+02  0.28533522518E+02  0.10857990371E+03  0.47000000000E+01 0. -1.
        -11    1    6    6    0    0  0.35305767866E+02  0.35540638353E+02  0.22871673618E+02  0.55070388352E+02  0.00000000000E+00 0.  1.
         12    1    6    6    0    0  0.26856803963E+03  0.27513279521E+02  0.75401183612E+02  0.28030538873E+03  0.00000000000E+00 0. -1.
         -5    1    3    3    0  503 -0.16815332000E+03 -0.10135971239E+03  0.11830384242E+03  0.22927542270E+03  0.47000000000E+01 0.  1.
         11    1    4    4    0    0 -0.75182611666E+02  0.13075733516E+02  0.66598996433E+02  0.10128586392E+03  0.00000000000E+00 0. -1.
        -12    1    4    4    0    0 -0.11326872590E+03 -0.65173484472E+02  0.21841201342E+03  0.25452150194E+03  0.00000000000E+00 0.  1.
</event>
<event>
12    1  0.1066489E+000  0.2265779E+03  0.7818608E-02  0.1129166E+00
         21   -1    0    0  501  502  0.00000000000E+00  0.00000000000E+00  0.72722647920E+02  0.72722647920E+02  0.00000000000E+00 0.  1.
         21   -1    0    0  502  503 -0.00000000000E+00 -0.00000000000E+00 -0.70435163032E+03  0.70435163032E+03  0.00000000000E+00 0.  1.
         -6    2    1    2    0  503 -0.14175516265E+03  0.40621929339E+02 -0.31859130297E+03  0.39064171719E+03  0.17133553513E+03 0.  0.
        -24    2    3    3    0    0 -0.13643288448E+00  0.17003869054E+02 -0.12806936514E+03  0.15203246299E+03  0.80143354937E+02 0.  0.
          6    2    1    2  501    0  0.14175516265E+03 -0.40621929339E+02 -0.31303767943E+03  0.38643256105E+03  0.17202577777E+03 0.  0.
         24    2    5    5    0    0  0.86126590069E+01  0.14859523628E+02 -0.97665772888E+02  0.12717927558E+03  0.79630280714E+02 0.  0.
          5    1    5    5  501    0  0.13314250364E+03 -0.55481452966E+02 -0.21537190654E+03  0.25925328547E+03  0.47000000000E+01 0. -1.
        -13    1    6    6    0    0  0.79603008655E+01 -0.62569767577E+01 -0.10448882186E+03  0.10497823604E+03  0.00000000000E+00 0.  1.
         14    1    6    6    0    0  0.65235814134E+00  0.21116500386E+02  0.68230489714E+01  0.22201039547E+02  0.00000000000E+00 0. -1.
         -5    1    3    3    0  503 -0.14161872976E+03  0.23618060285E+02 -0.19052193783E+03  0.23860925420E+03  0.47000000000E+01 0.  1.
         11    1    4    4    0    0 -0.15732304611E+02  0.41297392875E+01 -0.13063817567E+03  0.13164684994E+03  0.00000000000E+00 0. -1.
        -12    1    4    4    0    0  0.15595871727E+02  0.12874129766E+02  0.25688105357E+01  0.20385613057E+02  0.00000000000E+00 0.  1.
</event>
<event>
12    1  0.1066489E+000  0.1927899E+03  0.7818608E-02  0.1156661E+00
         21   -1    0    0  501  502  0.00000000000E+00  0.00000000000E+00  0.89821406458E+02  0.89821406458E+02  0.00000000000E+00 0.  1.
         21   -1    0    0  502  503 -0.00000000000E+00 -0.00000000000E+00 -0.42264289686E+03  0.42264289686E+03  0.00000000000E+00 0.  1.
         -6    2    1    2    0  503  0.10064099735E+02 -0.79867411421E+02 -0.11868896905E+03  0.22639570097E+03  0.17517948661E+03 0.  0.
        -24    2    3    3    0    0  0.12601621331E+02  0.61807223051E+01 -0.11437140286E+03  0.14007390933E+03  0.79642200465E+02 0.  0.
          6    2    1    2  501    0 -0.10064099735E+02  0.79867411421E+02 -0.21413252135E+03  0.28606860236E+03  0.17176268234E+03 0.  0.
         24    2    5    5    0    0 -0.69824545639E+02  0.63360661808E+02 -0.11599983048E+03  0.16989675252E+03  0.80739737466E+02 0.  0.
          5    1    5    5  501    0  0.59760445904E+02  0.16506749613E+02 -0.98132690872E+02  0.11617184984E+03  0.47000000000E+01 0. -1.
        -11    1    6    6    0    0 -0.57371590758E+02  0.48803744938E+02 -0.12711055873E+03  0.14775113904E+03  0.00000000000E+00 0.  1.
         12    1    6    6    0    0 -0.12452954881E+02  0.14556916869E+02  0.11110728253E+02  0.22145613478E+02  0.00000000000E+00 0. -1.
         -5    1    3    3    0  503 -0.25375215960E+01 -0.86048133726E+02 -0.43175661969E+01  0.86321791637E+02  0.47000000000E+01 0.  1.
         11    1    4    4    0    0  0.71221983494E+01 -0.20520209601E+02  0.78532731051E+00  0.21735258231E+02  0.00000000000E+00 0. -1.
        -12    1    4    4    0    0  0.54794229816E+01  0.26700931906E+02 -0.11515673017E+03  0.11833865110E+03  0.00000000000E+00 0.  1.
</event>
<event>
12    1  0.1066489E+000  0.2192826E+03  0.7818608E-02  0.1134951E+00
         21   -1    0    0  501  502  0.00000000000E+00  0.00000000000E+00  0.51925028157E+02  0.51925028157E+02  0.00000000000E+00 0.  1.
         21   -1    0    0  502  503 -0.00000000000E+00 -0.00000000000E+00 -0.96272128144E+03  0.96272128144E+03  0.00000000000E+00 0.  1.
         -6    2    1    2    0  503 -0.12395505626E+03  0.47545843227E+02 -0.33866498856E+03  0.40193180548E+03  0.17096706875E+03 0.  0.
        -24    2    3    3    0    0 -0.24531681675E+01  0.56184068299E+01 -0.18464508541E+03  0.20127079955E+03  0.79865779010E+02 0.  0.
          6    2    1    2  501    0  0.12395505626E+03 -0.47545843227E+02 -0.57213126472E+03  0.61271450411E+03  0.17452626251E+03 0.  0.
         24    2    5    5    0    0  0.12984884047E+03  0.16386197248E+02 -0.44549470412E+03  0.47065483013E+03  0.76949391788E+02 0.  0.
          5    1    5    5  501    0 -0.58937842129E+01 -0.63932040475E+02 -0.12663656060E+03  0.14205967398E+03  0.47000000000E+01 0. -1.
        -13    1    6    6    0    0  0.57106429952E+02  0.37864542329E+02 -0.13976150691E+03  0.15565393256E+03  0.00000000000E+00 0.  1.
         14    1    6    6    0    0  0.72742410520E+02 -0.21478345081E+02 -0.30573319721E+03  0.31500089757E+03  0.00000000000E+00 0. -1.
         -5    1    3    3    0  503 -0.12150188809E+03  0.41927436397E+02 -0.15401990315E+03  0.20066100592E+03  0.47000000000E+01 0.  1.
         13    1    4    4    0    0 -0.32062500440E+02 -0.22504108293E+02 -0.85567465267E+02  0.94107544526E+02  0.00000000000E+00 0. -1.
        -14    1    4    4    0    0  0.29609332273E+02  0.28122515123E+02 -0.99077620144E+02  0.10716325503E+03  0.00000000000E+00 0.  1.
</event>
<event>
12    1  0.1066489E+000  0.1780104E+03  0.7818608E-02  0.1169973E+00
         21   -1    0    0  503  502  0.00000000000E+00  0.00000000000E+00  0.20104603284E+02  0.20104603284E+02  0.00000000000E+00 0.  1.
         21   -1    0    0  501  503 -0.00000000000E+00 -0.00000000000E+00 -0.16630624279E+04  0.16630624279E+04  0.00000000000E+00 0.  1.
          6    2    1    2  501    0  0.35700242373E+02 -0.18321913471E+02 -0.10207891486E+04  0.10360336963E+04  0.17246777724E+03 0.  0.
         24    2    3    3    0    0  0.85124510415E+02  0.10718340776E+02 -0.76825412267E+03  0.77703152652E+03  0.78756149620E+02 0.  0.
         -6    2    1    2    0  502 -0.35700242373E+02  0.18321913471E+02 -0.62216867608E+03  0.64713333493E+03  0.17342863623E+03 0.  0.
        -24    2    5    5    0    0 -0.76870586039E+02  0.49642514380E+02 -0.36325883400E+03  0.38306445459E+03  0.80049545027E+02 0.  0.
          5    1    3    3  501    0 -0.49424268043E+02 -0.29040254247E+02 -0.25253502589E+03  0.25900216976E+03  0.47000000000E+01 0. -1.
        -13    1    4    4    0    0  0.94385606725E+02  0.54629639581E+01 -0.51840689069E+03  0.52695748505E+03  0.00000000000E+00 0.  1.
         14    1    4    4    0    0 -0.92610963091E+01  0.52553768178E+01 -0.24984723198E+03  0.25007404147E+03  0.00000000000E+00 0. -1.
         -5    1    5    5    0  502  0.41170343666E+02 -0.31320600909E+02 -0.25890984208E+03  0.26406888034E+03  0.47000000000E+01 0.  1.
         13    1    6    6    0    0 -0.27399452547E+02  0.40576718255E+02 -0.29060509541E+03  0.29470073218E+03  0.00000000000E+00 0. -1.
        -14    1    6    6    0    0 -0.49471133492E+02  0.90657961256E+01 -0.72653738586E+02  0.88363722414E+02  0.00000000000E+00 0.  1.
</event>
<event>
12    1  0.1066489E+000  0.1811548E+03  0.7818608E-02  0.1166731E+00
         21   -1    0    0  503  502  0.00000000000E+00  0.00000000000E+00  0.58717682915E+03  0.58717682915E+03  0.00000000000E+00 0. -1.
         21   -1    0    0  501  503 -0.00000000000E+00 -0.00000000000E+00 -0.63590888238E+02  0.63590888238E+02  0.00000000000E+00 0. -1.
          6    2    1    2  501    0 -0.48443103436E+02 -0.30007885598E+02  0.37530380943E+03  0.41666380428E+03  0.17178058375E+03 0.  0.
         24    2    3    3    0    0 -0.51528217684E+02 -0.38085515368E+02  0.38757777251E+03  0.40093147443E+03  0.80148947268E+02 0.  0.
         -6    2    1    2    0  502  0.48443103436E+02  0.30007885598E+02  0.14828213149E+03  0.23410391312E+03  0.17195884435E+03 0.  0.
        -24    2    5    5    0    0  0.24423788659E+02  0.69358037375E+02  0.15321228535E+03  0.18750178501E+03  0.79220301667E+02 0.  0.
          5    1    3    3  501    0  0.30851142477E+01  0.80776297698E+01 -0.12273963081E+02  0.15732329844E+02  0.47000000000E+01 0. -1.
        -13    1    4    4    0    0 -0.39870978209E+01 -0.39814846651E+02  0.28576305982E+03  0.28855094060E+03  0.00000000000E+00 0.  1.
         14    1    4    4    0    0 -0.47541119863E+02  0.17293312831E+01  0.10181471269E+03  0.11238053383E+03  0.00000000000E+00 0. -1.
         -5    1    5    5    0  502  0.24019314777E+02 -0.39350151777E+02 -0.49301538673E+01  0.46602128110E+02  0.47000000000E+01 0.  1.
         13    1    6    6    0    0  0.37882301656E+02  0.38605658131E+02  0.34545214586E+02  0.64178169725E+02  0.00000000000E+00 0. -1.
        -14    1    6    6    0    0 -0.13458512997E+02  0.30752379243E+02  0.11866707077E+03  0.12332361528E+03  0.00000000000E+00 0.  1.
</event>
<event>
12    1  0.1066489E+000  0.1868948E+03  0.7818608E-02  0.1161315E+00
         21   -1    0    0  501  502  0.00000000000E+00  0.00000000000E+00  0.15895191751E+03  0.15895191751E+03  0.00000000000E+00 0. -1.
         21   -1    0    0  502  503 -0.00000000000E+00 -0.00000000000E+00 -0.30154011514E+03  0.30154011514E+03  0.00000000000E+00 0. -1.
         -6    2    1    2    0  503 -0.71531843812E+02  0.25086866978E+02  0.48718613599E+02  0.19304492089E+03  0.17072399538E+03 0.  0.
        -24    2    3    3    0    0 -0.11609245008E+03  0.34364096451E+02  0.44072732277E+02  0.14705156452E+03  0.70876010096E+02 0.  0.
          6    2    1    2  501    0  0.71531843812E+02 -0.25086866978E+02 -0.19130681123E+03  0.26744711176E+03  0.17083180615E+03 0.  0.
         24    2    5    5    0    0  0.86280120293E+02 -0.65739000864E+02 -0.17673127551E+03  0.22157071380E+03  0.78062552323E+02 0.  0.
          5    1    5    5  501    0 -0.14748276481E+02  0.40652133886E+02 -0.14575535716E+02  0.45876397962E+02  0.47000000000E+01 0. -1.
        -13    1    6    6    0    0  0.13949834512E+02  0.10905068297E+02 -0.67524401838E+02  0.69807329422E+02  0.00000000000E+00 0.  1.
         14    1    6    6    0    0  0.72330285781E+02 -0.76644069161E+02 -0.10920687368E+03  0.15176338437E+03  0.00000000000E+00 0. -1.
         -5    1    3    3    0  503  0.44560606265E+02 -0.92772294724E+01  0.46458813215E+01  0.45993356375E+02  0.47000000000E+01 0.  1.
         11    1    4    4    0    0 -0.16772030455E+01  0.12602563510E+01 -0.14269064928E+02  0.14422464077E+02  0.00000000000E+00 0. -1.
        -12    1    4    4    0    0 -0.11441524703E+03  0.33103840100E+02  0.58341797206E+02  0.13262910044E+03  0.00000000000E+00 0.  1.
</event>
<event>
12    1  0.1066489E+000  0.1755770E+03  0.7818608E-02  0.1172566E+00
         21   -1    0    0  501  502  0.00000000000E+00  0.00000000000E+00  0.12085117928E+03  0.12085117928E+03  0.00000000000E+00 0. -1.
         21   -1    0    0  502  503 -0.00000000000E+00 -0.00000000000E+00 -0.47843291567E+03  0.47843291567E+03  0.00000000000E+00 0. -1.
         -6    2    1    2    0  503  0.20467284810E+02  0.26817665013E+02 -0.38505137260E+03  0.42319244273E+03  0.17230550525E+03 0.  0.
        -24    2    3    3    0    0 -0.47250908326E+02  0.17652789357E+02 -0.23008371431E+03  0.25376159033E+03  0.94404236287E+02 0.  0.
          6    2    1    2  501    0 -0.20467284810E+02 -0.26817665013E+02  0.27469636213E+02  0.17609165223E+03  0.17063291642E+03 0.  0.
         24    2    5    5    0    0 -0.75961388948E+02 -0.38855716557E+02  0.16447314655E+02  0.11805638836E+03  0.79918066505E+02 0.  0.
          5    1    5    5  501    0  0.55494104138E+02  0.12038051544E+02  0.11022321558E+02  0.58035263863E+02  0.47000000000E+01 0. -1.
        -13    1    6    6    0    0 -0.16563366326E+02 -0.51008825329E+02 -0.47224398757E+01  0.53838153794E+02  0.00000000000E+00 0.  1.
         14    1    6    6    0    0 -0.59398022623E+02  0.12153108772E+02  0.21169754531E+02  0.64218234570E+02  0.00000000000E+00 0. -1.
         -5    1    3    3    0  503  0.67718193136E+02  0.91648756556E+01 -0.15496765829E+03  0.16943085239E+03  0.47000000000E+01 0.  1.
         11    1    4    4    0    0 -0.59956449560E+02  0.45881095848E+02 -0.15064594763E+03  0.16850534810E+03  0.00000000000E+00 0. -1.
        -12    1    4    4    0    0  0.12705541234E+02 -0.28228306491E+02 -0.79437766677E+02  0.85256242235E+02  0.00000000000E+00 0.  1.
</event>
<event>
12    1  0.1066489E+000  0.2806681E+03  0.7818608E-02  0.1095462E+00
         21   -1    0    0  503  502  0.00000000000E+00  0.00000000000E+00  0.24023913387E+03  0.24023913387E+03  0.00000000000E+00 0. -1.
         21   -1    0    0  501  503 -0.00000000000E+00 -0.00000000000E+00 -0.35947047247E+03  0.35947047247E+03  0.00000000000E+00 0. -1.
          6    2    1    2  501    0 -0.12349306448E+03  0.18362811898E+03  0.30980558939E+02  0.28137296918E+03  0.17100037924E+03 0.  0.
         24    2    3    3    0    0 -0.15685016601E+03  0.14252782800E+03  0.27689003042E+02  0.22812961766E+03  0.79751396429E+02 0.  0.
         -6    2    1    2    0  502  0.12349306448E+03 -0.18362811898E+03 -0.15021189753E+03  0.31833663716E+03  0.17264060167E+03 0.  0.
        -24    2    5    5    0    0  0.51478460479E+02 -0.97182085374E+01 -0.38675449282E+02  0.99491419195E+02  0.75221517173E+02 0.  0.
          5    1    3    3  501    0  0.33357101533E+02  0.41100290981E+02  0.32915558976E+01  0.53243351525E+02  0.47000000000E+01 0. -1.
        -13    1    4    4    0    0 -0.11812484149E+03  0.54650960769E+02  0.10554852954E+02  0.13058181577E+03  0.00000000000E+00 0.  1.
         14    1    4    4    0    0 -0.38725324518E+02  0.87876867227E+02  0.17134150087E+02  0.97547801882E+02  0.00000000000E+00 0. -1.
         -5    1    5    5    0  502  0.72014603996E+02 -0.17390991044E+03 -0.11153644825E+03  0.21884521796E+03  0.47000000000E+01 0.  1.
         11    1    6    6    0    0 -0.70486064436E+01 -0.21400253079E+02  0.78057012218E+01  0.23844971298E+02  0.00000000000E+00 0. -1.
        -12    1    6    6    0    0  0.58527066923E+02  0.11682044542E+02 -0.46481150504E+02  0.75646447897E+02  0.00000000000E+00 0.  1.
</event>
<event>
12    1  0.1066489E+000  0.2424325E+03  0.7818608E-02  0.1118313E+00
         21   -1    0    0  503  502  0.00000000000E+00  0.00000000000E+00  0.35664232283E+02  0.35664232283E+02  0.00000000000E+00 0.  1.
         21   -1    0    0  501  503 -0.00000000000E+00 -0.00000000000E+00 -0.20504657988E+04  0.20504657988E+04  0.00000000000E+00 0.  1.
          6    2    1    2  501    0 -0.16487373677E+03 -0.32099124393E+02 -0.14712821315E+04  0.14909939903E+04  0.17371892686E+03 0.  0.
         24    2    3    3    0    0 -0.49971076913E+01 -0.19047402774E+02 -0.50948971793E+03  0.51590547077E+03  0.78682319869E+02 0.  0.
         -6    2    1    2    0  502  0.16487373677E+03  0.32099124393E+02 -0.54351943496E+03  0.59513604080E+03  0.17481369518E+03 0.  0.
        -24    2    5    5    0    0  0.16368097310E+03  0.75256941627E+02 -0.46247291389E+03  0.50318687848E+03  0.82829767466E+02 0.  0.
          5    1    3    3  501    0 -0.15987662908E+03 -0.13051721619E+02 -0.96179241362E+03  0.97508851949E+03  0.47000000000E+01 0. -1.
        -11    1    4    4    0    0  0.23132261947E+02 -0.30362715419E+02 -0.41309570926E+03  0.41485547006E+03  0.00000000000E+00 0.  1.
         12    1    4    4    0    0 -0.28129369639E+02  0.11315312645E+02 -0.96394008662E+02  0.10105000070E+03  0.00000000000E+00 0. -1.
         -5    1    5    5    0  502  0.11927636666E+01 -0.43157817234E+02 -0.81046521072E+02  0.91949162320E+02  0.47000000000E+01 0.  1.
         11    1    6    6    0    0  0.10030197641E+03  0.35716918976E+02 -0.36600646960E+03  0.38117833171E+03  0.00000000000E+00 0. -1.
        -12    1    6    6    0    0  0.63378996690E+02  0.39540022651E+02 -0.96466444282E+02  0.12200854677E+03  0.00000000000E+00 0.  1.
</event>
<event>
12    1  0.1066489E+000  0.2795387E+03  0.7818608E-02  0.1095996E+00
         21   -1    0    0  503  502  0.00000000000E+00  0.00000000000E+00  0.36552463553E+03  0.36552463553E+03  0.00000000000E+00 0.  1.
         21   -1    0    0  501  503 -0.00000000000E+00 -0.00000000000E+00 -0.23538258333E+03  0.23538258333E+03  0.00000000000E+00 0.  1.
          6    2    1    2  501    0 -0.10741781814E+03 -0.19252995979E+03  0.15677433119E+03  0.32049972959E+03  0.17185899068E+03 0.  0.
         24    2    3    3    0    0 -0.13578777405E+03 -0.12073838801E+03  0.87700303694E+02  0.21680693596E+03  0.79358845073E+02 0.  0.
         -6    2    1    2    0  502  0.10741781814E+03  0.19252995979E+03 -0.26632278991E+02  0.28040748927E+03  0.17120954612E+03 0.  0.
        -24    2    5    5    0    0  0.13688214940E+03  0.18470145205E+03 -0.39543044304E+02  0.24696783899E+03  0.81105560405E+02 0.  0.
          5    1    3    3  501    0  0.28369955905E+02 -0.71791571782E+02  0.69074027493E+02  0.10369279363E+03  0.47000000000E+01 0. -1.
        -13    1    4    4    0    0 -0.27529866353E+02 -0.29721113432E+02 -0.13713734294E+02  0.42770370975E+02  0.00000000000E+00 0.  1.
         14    1    4    4    0    0 -0.10825790770E+03 -0.91017274573E+02  0.10141403799E+03  0.17403656498E+03  0.00000000000E+00 0. -1.
         -5    1    5    5    0  502 -0.29464331258E+02  0.78285077366E+01  0.12910765313E+02  0.33439650279E+02  0.47000000000E+01 0.  1.
         11    1    6    6    0    0 -0.75715613895E+00  0.29610172540E+02 -0.25584026836E+02  0.39139213487E+02  0.00000000000E+00 0. -1.
        -12    1    6    6    0    0  0.13763930554E+03  0.15509127951E+03 -0.13959017468E+02  0.20782862550E+03  0.00000000000E+00 0.  1.
</event>
<event>
12    1  0.1066489E+000  0.2072419E+03  0.7818608E-02  0.1143825E+00
         21   -1    0    0  501  502  0.00000000000E+00  0.00000000000E+00  0.82962523303E+03  0.82962523303E+03  0.00000000000E+00 0. -1.
         21   -1    0    0  502  503 -0.00000000000E+00 -0.00000000000E+00 -0.52339587704E+02  0.52339587704E+02  0.00000000000E+00 0. -1.
         -6    2    1    2    0  503 -0.52389355450E+02  0.10122527041E+03  0.33963913780E+03  0.39772969180E+03  0.17275116173E+03 0.  0.
        -24    2    3    3    0    0 -0.20578068962E+02  0.13660642028E+03  0.26942100002E+03  0.31277993849E+03  0.78478300730E+02 0.  0.
          6    2    1    2  501    0  0.52389355450E+02 -0.10122527041E+03  0.43764650752E+03  0.48423512893E+03  0.17308377916E+03 0.  0.
         24    2    5    5    0    0  0.18717337956E+02 -0.11499200459E+03  0.20159770207E+03  0.24535345051E+03  0.77351033181E+02 0.  0.
          5    1    5    5  501    0  0.33672017494E+02  0.13766734182E+02  0.23604880545E+03  0.23888167843E+03  0.47000000000E+01 0. -1.
        -13    1    6    6    0    0  0.28034558113E+02 -0.57569825265E+02  0.44901068007E+02  0.78206950700E+02  0.00000000000E+00 0.  1.
         14    1    6    6    0    0 -0.93172201566E+01 -0.57422179329E+02  0.15669663407E+03  0.16714649981E+03  0.00000000000E+00 0. -1.
         -5    1    3    3    0  503 -0.31811286488E+02 -0.35381149871E+02  0.70218137783E+02  0.84949753313E+02  0.47000000000E+01 0.  1.
         11    1    4    4    0    0  0.11942720856E+02  0.39257205642E+01  0.23363651541E+01  0.12786651849E+02  0.00000000000E+00 0. -1.
        -12    1    4    4    0    0 -0.32520789818E+02  0.13268069972E+03  0.26708463487E+03  0.29999328664E+03  0.00000000000E+00 0.  1.
</event>
<event>
12    1  0.1066489E+000  0.1781129E+03  0.7818608E-02  0.1170130E+00
         21   -1    0    0  501  502  0.00000000000E+00  0.00000000000E+00  0.93628412820E+03  0.93628412820E+03  0.00000000000E+00 0.  1.
         21   -1    0    0  502  503 -0.00000000000E+00 -0.00000000000E+00 -0.46156313736E+02  0.46156313736E+02  0.00000000000E+00 0.  1.
         -6    2    1    2    0  503  0.20158346613E+02 -0.35655805608E+02  0.18612169097E+03  0.25625256959E+03  0.17130791039E+03 0.  0.
        -24    2    3    3    0    0 -0.52740346802E+02 -0.37628440725E+02  0.11588848312E+03  0.15489723291E+03  0.79784512967E+02 0.  0.
          6    2    1    2  501    0 -0.20158346613E+02  0.35655805608E+02  0.70400612349E+03  0.72618787234E+03  0.17333928754E+03 0.  0.
         24    2    5    5    0    0 -0.66674170094E+01  0.75870225034E+02  0.29628155705E+03  0.31623590346E+03  0.80135136425E+02 0.  0.
          5    1    5    5  501    0 -0.13490929603E+02 -0.40214419426E+02  0.40772456644E+03  0.40995196888E+03  0.47000000000E+01 0. -1.
        -11    1    6    6    0    0  0.29582113460E+01  0.10658135242E+02 -0.15747178192E+01  0.11172582396E+02  0.00000000000E+00 0.  1.
         12    1    6    6    0    0 -0.96256283554E+01  0.65212089793E+02  0.29785627487E+03  0.30506332106E+03  0.00000000000E+00 0. -1.
         -5    1    3    3    0  503  0.72898693415E+02  0.19726351163E+01  0.70233207846E+02  0.10135533669E+03  0.47000000000E+01 0.  1.
         13    1    4    4    0    0 -0.56410005347E+02 -0.24964496962E+02  0.31088363719E+02  0.69078225010E+02  0.00000000000E+00 0. -1.
        -14    1    4    4    0    0  0.36696585451E+01 -0.12663943763E+02  0.84800119403E+02  0.85819007896E+02  0.00000000000E+00 0.  1.
</event>
<event>
12    1  0.1066489E+000  0.2664799E+03  0.7818608E-02  0.1104147E+00
         21   -1    0    0  501  502  0.00000000000E+00  0.00000000000E+00  0.28190685885E+02  0.28190685885E+02  0.00000000000E+00 0. -1.
         21   -1    0    0  502  503 -0.00000000000E+00 -0.00000000000E+00 -0.27587402948E+04  0.27587402948E+04  0.00000000000E+00 0. -1.
         -6    2    1    2    0  503 -0.18986785529E+02  0.19581390148E+03 -0.92420910906E+03  0.96185965852E+03  0.17974410529E+03 0.  0.
        -24    2    3    3    0    0  0.37390024988E+02  0.16933599907E+03 -0.80522393202E+03  0.82747593021E+03  0.79108405546E+02 0.  0.
          6    2    1    2  501    0  0.18986785529E+02 -0.19581390148E+03 -0.18063404998E+04  0.18250713221E+04  0.17121842053E+03 0.  0.
         24    2    5    5    0    0  0.75010949560E+02 -0.15496075910E+03 -0.14129038465E+04  0.14255438808E+04  0.78984791070E+02 0.  0.
          5    1    5    5  501    0 -0.56024164031E+02 -0.40853142372E+02 -0.39343665331E+03  0.39952744131E+03  0.47000000000E+01 0. -1.
        -13    1    6    6    0    0  0.87972892752E+01 -0.10492211703E+03 -0.71190530175E+03  0.71964936018E+03  0.00000000000E+00 0.  1.
         14    1    6    6    0    0  0.66213660285E+02 -0.50038642074E+02 -0.70099854476E+03  0.70589452063E+03  0.00000000000E+00 0. -1.
         -5    1    3    3    0  503 -0.56376810517E+02  0.26477902401E+02 -0.11898517703E+03  0.13438372830E+03  0.47000000000E+01 0.  1.
         13    1    4    4    0    0  0.97642690240E+01 -0.20898523108E+01 -0.12648911022E+03  0.12688263646E+03  0.00000000000E+00 0. -1.
        -14    1    4    4    0    0  0.27625755964E+02  0.17142585139E+03 -0.67873482181E+03  0.70059329375E+03  0.00000000000E+00 0.  1.
</event>
<event>
12    1  0.1066489E+000  0.1751854E+03  0.7818608E-02  0.1173642E+00
         21   -1    0    0  501  502  0.00000000000E+00  0.00000000000E+00  0.82246278063E+03  0.82246278063E+03  0.00000000000E+00 0. -1.
         21   -1    0    0  502  503 -0.00000000000E+00 -0.00000000000E+00 -0.38198079154E+02  0.38198079154E+02  0.00000000000E+00 0. -1.
         -6    2    1    2    0  503 -0.19203056243E+01 -0.10610690430E+02  0.29413758709E+03  0.34016638471E+03  0.17052851617E+03 0.  0.
        -24    2    3    3    0    0  0.41776812876E+02  0.46663359812E+02  0.18393328992E+03  0.20842105421E+03  0.75399664807E+02 0.  0.
          6    2    1    2  501    0  0.19203056243E+01  0.10610690430E+02  0.49012711439E+03  0.52049447507E+03  0.17485318411E+03 0.  0.
         24    2    5    5    0    0  0.38901552433E+02  0.56637475116E+02  0.39516149760E+03  0.40857202024E+03  0.77828993087E+02 0.  0.
          5    1    5    5  501    0 -0.36981246808E+02 -0.46026784686E+02  0.94965616794E+02  0.11192245484E+03  0.47000000000E+01 0. -1.
        -11    1    6    6    0    0  0.35080425722E+02  0.53331193972E+02  0.14582999688E+03  0.15918932285E+03  0.00000000000E+00 0.  1.
         12    1    6    6    0    0  0.38211267110E+01  0.33062811439E+01  0.24933150072E+03  0.24938269738E+03  0.00000000000E+00 0. -1.
         -5    1    3    3    0  503 -0.43697118500E+02 -0.57274050242E+02  0.11020429716E+03  0.13174533050E+03  0.47000000000E+01 0.  1.
         13    1    4    4    0    0  0.60362414955E+02  0.16916243877E+02  0.12502759613E+03  0.13986307676E+03  0.00000000000E+00 0. -1.
        -14    1    4    4    0    0 -0.18585602079E+02  0.29747115935E+02  0.58905693795E+02  0.68557977454E+02  0.00000000000E+00 0.  1.
</event>
<event>
12    1  0.1066489E+000  0.1876545E+03  0.7818608E-02  0.1162269E+00
         21   -1    0    0  503  502  0.00000000000E+00  0.00000000000E+00  0.82597620120E+02  0.82597620120E+02  0.00000000000E+00 0.  1.
         21   -1    0    0  501  503 -0.00000000000E+00 -0.00000000000E+00 -0.17471624577E+04  0.17471624577E+04  0.00000000000E+00 0.  1.
          6    2    1    2  501    0 -0.31457383197E+02  0.69817925972E+02 -0.28218172357E+02  0.18268855358E+03  0.16344642123E+03 0.  0.
         24    2    3    3    0    0  0.23023112609E+01  0.10426044508E+03 -0.14619396976E+02  0.13235942897E+03  0.80185725810E+02 0.  0.
         -6    2    1    2    0  502  0.31457383197E+02 -0.69817925972E+02 -0.16363466652E+04  0.16470715242E+04  0.17131867217E+03 0.  0.
        -24    2    5    5    0    0  0.17410087440E+02 -0.79422894539E+02 -0.16193991339E+04  0.16225992796E+04  0.61349490678E+02 0.  0.
          5    1    3    3  501    0 -0.33759694458E+02 -0.34442519107E+02 -0.13598775382E+02  0.50329124612E+02  0.47000000000E+01 0. -1.
        -11    1    4    4    0    0 -0.12334186600E+02  0.29621443773E+02 -0.40812134714E+02  0.51915242754E+02  0.00000000000E+00 0.  1.
         12    1    4    4    0    0  0.14636497860E+02  0.74639001305E+02  0.26192737738E+02  0.80444186214E+02  0.00000000000E+00 0. -1.
         -5    1    5    5    0  502  0.14047295757E+02  0.96049685672E+01 -0.16947531331E+02  0.24472244635E+02  0.47000000000E+01 0.  1.
         11    1    6    6    0    0  0.52525367594E+01 -0.75908289262E+02 -0.93750923808E+03  0.94059195670E+03  0.00000000000E+00 0. -1.
        -12    1    6    6    0    0  0.12157550681E+02 -0.35146052769E+01 -0.68188989577E+03  0.68200732286E+03  0.00000000000E+00 0.  1.
</event>
<event>
12    1  0.1066489E+000  0.2027058E+03  0.7818608E-02  0.1147736E+00
         21   -1    0    0  503  502  0.00000000000E+00  0.00000000000E+00  0.73707093806E+02  0.73707093806E+02  0.00000000000E+00 0. -1.
         21   -1    0    0  501  503 -0.00000000000E+00 -0.00000000000E+00 -0.87525854680E+03  0.87525854680E+03  0.00000000000E+00 0. -1.
          6    2    1    2  501    0 -0.82914768103E+02  0.72674289397E+02 -0.11254966445E+03  0.23076433266E+03  0.16860705546E+03 0.  0.
         24    2    3    3    0    0 -0.21506063202E+02 -0.12894919795E+02 -0.90269117048E+02  0.12300705266E+03  0.79708417376E+02 0.  0.
         -6    2    1    2    0  502  0.82914768103E+02 -0.72674289397E+02 -0.68900178854E+03  0.71820130795E+03  0.17009774547E+03 0.  0.
        -24    2    5    5    0    0  0.73511513703E+02  0.78240108177E+01 -0.51238284430E+03  0.52381833802E+03  0.79901904388E+02 0.  0.
          5    1    3    3  501    0 -0.61408704902E+02  0.85569209193E+02 -0.22280547399E+02  0.10775728000E+03  0.47000000000E+01 0. -1.
        -13    1    4    4    0    0  0.17881314196E+02 -0.10368869702E+02  0.37791906691E+01  0.21012785117E+02  0.00000000000E+00 0.  1.
         14    1    4    4    0    0 -0.39387377397E+02 -0.25260500935E+01 -0.94048307717E+02  0.10199426754E+03  0.00000000000E+00 0. -1.
         -5    1    5    5    0  502  0.94032544005E+01 -0.80498300215E+02 -0.17661894424E+03  0.19438296992E+03  0.47000000000E+01 0.  1.
         13    1    6    6    0    0  0.67353426539E+01 -0.30099282033E+02 -0.11383732360E+03  0.11794179863E+03  0.00000000000E+00 0. -1.
        -14    1    6    6    0    0  0.66776171049E+02  0.37923292851E+02 -0.39854552070E+03  0.40587653939E+03  0.00000000000E+00 0.  1.
</event>
<event>
12    1  0.1066489E+000  0.2665477E+03  0.7818608E-02  0.1103274E+00
         21   -1    0    0  501  502  0.00000000000E+00  0.00000000000E+00  0.62447646701E+03  0.62447646701E+03  0.00000000000E+00 0. -1.
         21   -1    0    0  502  503 -0.00000000000E+00 -0.00000000000E+00 -0.13134918259E+03  0.13134918259E+03  0.00000000000E+00 0. -1.
         -6    2    1    2    0  503  0.20448962140E+03  0.11327591068E+01  0.10828104173E+03  0.28768647321E+03  0.17094278126E+03 0.  0.
        -24    2    3    3    0    0  0.14913912912E+02  0.10578010245E+02  0.49038672044E+02  0.88789740243E+02  0.71725222324E+02 0.  0.
          6    2    1    2  501    0 -0.20448962140E+03 -0.11327591068E+01  0.38484624269E+03  0.46813917639E+03  0.17096891401E+03 0.  0.
         24    2    5    5    0    0 -0.16062006367E+03  0.24776370170E+02  0.16699434810E+03  0.24435946540E+03  0.73564683511E+02 0.  0.
          5    1    5    5  501    0 -0.43869557728E+02 -0.25909129276E+02  0.21785189459E+03  0.22377971099E+03  0.47000000000E+01 0. -1.
        -13    1    6    6    0    0 -0.49912988971E+02 -0.21250231349E+02  0.78160282509E+02  0.95141518604E+02  0.00000000000E+00 0.  1.
         14    1    6    6    0    0 -0.11070707470E+03  0.46026601519E+02  0.88834065588E+02  0.14921794679E+03  0.00000000000E+00 0. -1.
         -5    1    3    3    0  503  0.18957570849E+03 -0.94452511379E+01  0.59242369685E+02  0.19889673297E+03  0.47000000000E+01 0.  1.
         13    1    4    4    0    0 -0.10756135994E+02  0.72549710463E+01 -0.14931764610E+02  0.19780967134E+02  0.00000000000E+00 0. -1.
        -14    1    4    4    0    0  0.25670048905E+02  0.33230391984E+01  0.63970436654E+02  0.69008773109E+02  0.00000000000E+00 0.  1.
</event>
<event>
12    1  0.1066489E+000  0.2466497E+03  0.7818608E-02  0.1115564E+00
         21   -1    0    0  501  502  0.00000000000E+00  0.00000000000E+00  0.15141583714E+04  0.15141583714E+04  0.00000000000E+00 0.  1.
         21   -1    0    0  502  503 -0.00000000000E+00 -0.00000000000E+00 -0.46236709213E+02  0.46236709213E+02  0.00000000000E+00 0.  1.
         -6    2    1    2    0  503 -0.68623444826E+01  0.17546662403E+03  0.10202563734E+04  0.10496471468E+04  0.17320634327E+03 0.  0.
        -24    2    3    3    0    0 -0.68557542839E+01  0.94686666803E+02  0.32833220643E+03  0.35300768165E+03  0.88316585573E+02 0.  0.
          6    2    1    2  501    0  0.68623444826E+01 -0.17546662403E+03  0.44766528880E+03  0.51074793385E+03  0.17211511619E+03 0.  0.
         24    2    5    5    0    0 -0.56617649471E+02 -0.59131894416E+02  0.22790474879E+03  0.25407642415E+03  0.76890283007E+02 0.  0.
          5    1    5    5  501    0  0.63479993954E+02 -0.11633472961E+03  0.21976054001E+03  0.25667150970E+03  0.47000000000E+01 0. -1.
        -11    1    6    6    0    0 -0.53303122064E+02 -0.28321730188E+02  0.66852029878E+02  0.90069623744E+02  0.00000000000E+00 0.  1.
         12    1    6    6    0    0 -0.33145274066E+01 -0.30810164228E+02  0.16105271891E+03  0.16400680040E+03  0.00000000000E+00 0. -1.
         -5    1    3    3    0  503 -0.65901986512E-02  0.80779957222E+02  0.69192416695E+03  0.69663946511E+03  0.47000000000E+01 0.  1.
         13    1    4    4    0    0  0.27284727482E+02  0.70807700066E+02  0.27530452727E+03  0.28557095349E+03  0.00000000000E+00 0. -1.
        -14    1    4    4    0    0 -0.34140481766E+02  0.23878966736E+02  0.53027679162E+02  0.67436728160E+02  0.00000000000E+00 0.  1.
</event>
<event>
12    1  0.1066489E+000  0.1917839E+03  0.7818608E-02  0.1159247E+00
         21   -1    0    0  501  502  0.00000000000E+00  0.00000000000E+00  0.78532932705E+03  0.78532932705E+03  0.00000000000E+00 0. -1.
         21   -1    0    0  502  503 -0.00000000000E+00 -0.00000000000E+00 -0.46511298755E+02  0.46511298755E+02  0.00000000000E+00 0.  1.
         -6    2    1    2    0  503 -0.43619876118E+02  0.70118103862E+02  0.26960238186E+03  0.32494380788E+03  0.16150477358E+03 0.  0.
        -24    2    3    3    0    0 -0.88734772195E+02  0.61947878565E+02  0.21402582702E+03  0.25274304696E+03  0.79753330322E+02 0.  0.
          6    2    1    2  501    0  0.43619876118E+02 -0.70118103862E+02  0.46921564644E+03  0.50689681793E+03  0.17309482686E+03 0.  0.
         24    2    5    5    0    0 -0.13435609613E+02  0.11988590557E+02  0.29556980271E+03  0.30646776125E+03  0.78973023871E+02 0.  0.
          5    1    5    5  501    0  0.57055485731E+02 -0.82106694419E+02  0.17364584373E+03  0.20042905668E+03  0.47000000000E+01 0. -1.
        -13    1    6    6    0    0  0.11118547551E+02  0.40365312780E+02  0.12523339002E+03  0.13204689527E+03  0.00000000000E+00 0.  1.
         14    1    6    6    0    0 -0.24554157164E+02 -0.28376722223E+02  0.17033641269E+03  0.17442086598E+03  0.00000000000E+00 0. -1.
         -5    1    3    3    0  503  0.45114896077E+02  0.81702252973E+01  0.55576554837E+02  0.72200760917E+02  0.47000000000E+01 0.  1.
         13    1    4    4    0    0  0.31846551439E+01  0.26876894434E+02  0.92539934692E+02  0.96416539015E+02  0.00000000000E+00 0. -1.
        -14    1    4    4    0    0 -0.91919427339E+02  0.35070984131E+02  0.12148589233E+03  0.15632650794E+03  0.00000000000E+00 0.  1.
</event>
<event>
12    1  0.1066489E+000  0.4094203E+03  0.7818608E-02  0.1040762E+00
         21   -1    0    0  503  502  0.00000000000E+00  0.00000000000E+00  0.33598838215E+03  0.33598838215E+03  0.00000000000E+00 0. -1.
         21   -1    0    0  501  503 -0.00000000000E+00 -0.00000000000E+00 -0.73291041331E+03  0.73291041331E+03  0.00000000000E+00 0.  1.
          6    2    1    2  501    0 -0.37095862269E+03 -0.34958710486E+02 -0.50266089002E+03  0.64830002254E+03  0.16968364000E+03 0.  0.
         24    2    3    3    0    0 -0.30521482617E+03 -0.78291695719E+02 -0.37172350803E+03  0.49543837793E+03  0.89415547713E+02 0.  0.
         -6    2    1    2    0  502  0.37095862269E+03  0.34958710486E+02  0.10573885886E+03  0.42059877293E+03  0.16398234761E+03 0.  0.
        -24    2    5    5    0    0  0.24872438906E+03  0.74760422922E+02  0.31141627021E+02  0.27189698685E+03  0.74197223504E+02 0.  0.
          5    1    3    3  501    0 -0.65743796523E+02  0.43332985233E+02 -0.13093738199E+03  0.15286164461E+03  0.47000000000E+01 0. -1.
        -11    1    4    4    0    0 -0.37760105599E+02  0.48336731756E+01 -0.92166216288E+02  0.99718611081E+02  0.00000000000E+00 0.  1.
         12    1    4    4    0    0 -0.26745472057E+03 -0.83125368894E+02 -0.27955729174E+03  0.39571976685E+03  0.00000000000E+00 0. -1.
         -5    1    5    5    0  502  0.12223423363E+03 -0.39801712436E+02  0.74597231837E+02  0.14870178607E+03  0.47000000000E+01 0.  1.
         13    1    6    6    0    0  0.18611106118E+03  0.70235580814E+02  0.52242854921E+02  0.20566885957E+03  0.00000000000E+00 0. -1.
        -14    1    6    6    0    0  0.62613327880E+02  0.45248421085E+01 -0.21101227901E+02  0.66228127282E+02  0.00000000000E+00 0.  1.
</event>
<event>
12    1  0.1066489E+000  0.1883420E+03  0.7818608E-02  0.1160528E+00
         21   -1    0    0  503  502  0.00000000000E+00  0.00000000000E+00  0.14377157776E+03  0.14377157776E+03  0.00000000000E+00 0.  1.
         21   -1    0    0  501  503 -0.00000000000E+00 -0.00000000000E+00 -0.37152937151E+03  0.37152937151E+03  0.00000000000E+00 0.  1.
          6    2    1    2  501    0  0.60398023374E+02 -0.48388077881E+02  0.37838436844E+02  0.18970291523E+03  0.16901515150E+03 0.  0.
         24    2    3    3    0    0 -0.15733208841E+02  0.13084946775E+02 -0.76744300253E+01  0.81682508226E+02  0.78704419071E+02 0.  0.
         -6    2    1    2    0  502 -0.60398023374E+02  0.48388077881E+02 -0.26559623060E+03  0.32559803404E+03  0.17170729383E+03 0.  0.
        -24    2    5    5    0    0 -0.70515797319E+02  0.93272376596E+02 -0.19126483056E+03  0.23805252214E+03  0.80090910742E+02 0.  0.
          5    1    3    3  501    0  0.76131232215E+02 -0.61473024655E+02  0.45512866870E+02  0.10802040701E+03  0.47000000000E+01 0. -1.
        -11    1    4    4    0    0 -0.52508355419E+00  0.65281257709E+01 -0.42562344035E+02  0.43063270528E+02  0.00000000000E+00 0.  1.
         12    1    4    4    0    0 -0.15208125287E+02  0.65568210038E+01  0.34887914010E+02  0.38619237698E+02  0.00000000000E+00 0. -1.
         -5    1    5    5    0  502  0.10117773945E+02 -0.44884298716E+02 -0.74331400038E+02  0.87545511892E+02  0.47000000000E+01 0.  1.
         13    1    6    6    0    0 -0.18015563083E+02  0.67690322027E+02 -0.15288829568E+03  0.16817066084E+03  0.00000000000E+00 0. -1.
        -14    1    6    6    0    0 -0.52500234237E+02  0.25582054569E+02 -0.38376534876E+02  0.69881861309E+02  0.00000000000E+00 0.  1.
</event>
<event>
12    1  0.1066489E+000  0.3254328E+03  0.7818608E-02  0.1073326E+00
         21   -1    0    0  503  502  0.00000000000E+00  0.00000000000E+00  0.77424715080E+03  0.77424715080E+03  0.00000000000E+00 0.  1.
         21   -1    0    0  501  503 -0.00000000000E+00 -0.00000000000E+00 -0.16022777334E+03  0.16022777334E+03  0.00000000000E+00 0. -1.
          6    2    1    2  501    0 -0.94811595024E+02 -0.25832720080E+03  0.48837718804E+03  0.58687201605E+03  0.17373630651E+03 0.  0.
         24    2    3    3    0    0 -0.23362061651E+02 -0.11609707084E+03  0.12433114656E+03  0.18952323222E+03  0.80227836603E+02 0.  0.
         -6    2    1    2    0  502  0.94811595024E+02  0.25832720080E+03  0.12564218942E+03  0.34760290809E+03  0.17122978925E+03 0.  0.
        -24    2    5    5    0    0  0.53923988163E+02  0.15374697241E+03  0.14769270094E+03  0.23307284381E+03  0.77226216971E+02 0.  0.
          5    1    3    3  501    0 -0.71449533373E+02 -0.14223012996E+03  0.36404604149E+03  0.39734878383E+03  0.47000000000E+01 0. -1.
        -11    1    4    4    0    0 -0.40299421233E+02 -0.72249964200E+02  0.11489580810E+03  0.14158088641E+03  0.00000000000E+00 0.  1.
         12    1    4    4    0    0  0.16937359582E+02 -0.43847106636E+02  0.94353384602E+01  0.47942345811E+02  0.00000000000E+00 0. -1.
         -5    1    5    5    0  502  0.40887606861E+02  0.10458022839E+03 -0.22050511521E+02  0.11453006428E+03  0.47000000000E+01 0.  1.
         13    1    6    6    0    0  0.35146515809E+02  0.17594149153E+02  0.15118262956E+02  0.42111679291E+02  0.00000000000E+00 0. -1.
        -14    1    6    6    0    0  0.18777472354E+02  0.13615282325E+03  0.13257443798E+03  0.19096116452E+03  0.00000000000E+00 0.  1.
</event>
<event>
12    1  0.1066489E+000  0.1793814E+03  0.7818608E-02  0.1168422E+00
         21   -1    0    0  501  502  0.00000000000E+00  0.00000000000E+00  0.13281485353E+04  0.13281485353E+04  0.00000000000E+00 0.  1.
         21   -1    0    0  502  503 -0.00000000000E+00 -0.00000000000E+00 -0.24575933711E+02  0.24575933711E+02  0.00000000000E+00 0.  1.
         -6    2    1    2    0  503 -0.49618259019E+02 -0.78682342992E+01  0.73366851952E+03  0.75527952880E+03  0.17220275651E+03 0.  0.
        -24    2    3    3    0    0 -0.86128344977E+02 -0.42433647107E+02  0.58927221044E+03  0.60230849162E+03  0.79467445333E+02 0.  0.
          6    2    1    2  501    0  0.49618259019E+02  0.78682342992E+01  0.56990408209E+03  0.59744494023E+03  0.17212179725E+03 0.  0.
         24    2    5    5    0    0 -0.38762316342E+02 -0.54170266123E+01  0.30102241149E+03  0.31405992467E+03  0.80543669656E+02 0.  0.
          5    1    5    5  501    0  0.88380575361E+02  0.13285260911E+02  0.26888167060E+03  0.28338501556E+03  0.47000000000E+01 0. -1.
        -13    1    6    6    0    0 -0.40208840728E+02 -0.37455891083E+02  0.15207489345E+03  0.16169869470E+03  0.00000000000E+00 0.  1.
         14    1    6    6    0    0  0.14465243868E+01  0.32038864471E+02  0.14894751803E+03  0.15236122997E+03  0.00000000000E+00 0. -1.
         -5    1    3    3    0  503  0.36510085958E+02  0.34565412808E+02  0.14439630908E+03  0.15297103718E+03  0.47000000000E+01 0.  1.
         11    1    4    4    0    0 -0.37241582834E+02 -0.61710835163E+02  0.33766747258E+03  0.34527450631E+03  0.00000000000E+00 0. -1.
        -12    1    4    4    0    0 -0.48886762144E+02  0.19277188056E+02  0.25160473786E+03  0.25703398531E+03  0.00000000000E+00 0.  1.
</event>
<event>
12    1  0.1066489E+000  0.2234248E+03  0.7818608E-02  0.1131523E+00
         21   -1    0    0  501  502  0.00000000000E+00  0.00000000000E+00  0.40772967250E+02  0.40772967250E+02  0.00000000000E+00 0.  1.
         21   -1    0    0  502  503 -0.00000000000E+00 -0.00000000000E+00 -0.15067090602E+04  0.15067090602E+04  0.00000000000E+00 0.  1.
         -6    2    1    2    0  503  0.18602948315E+02 -0.14100182440E+03 -0.10696856404E+04  0.10925830887E+04  0.17112233102E+03 0.  0.
        -24    2    3    3    0    0  0.41593661247E+02 -0.16582352566E+03 -0.95628011113E+03  0.97414494530E+03  0.72520681085E+02 0.  0.
          6    2    1    2  501    0 -0.18602948315E+02  0.14100182440E+03 -0.39625045252E+03  0.45489893876E+03  0.17231087950E+03 0.  0.
         24    2    5    5    0    0 -0.27153947379E+02  0.15955347278E+02 -0.91076194845E+02  0.12495476383E+03  0.79541874320E+02 0.  0.
          5    1    5    5  501    0  0.85509990645E+01  0.12504647712E+03 -0.30517425767E+03  0.32994417493E+03  0.47000000000E+01 0. -1.
        -13    1    6    6    0    0  0.27481896429E+02  0.14069147596E+02 -0.32060907469E+02  0.44509519579E+02  0.00000000000E+00 0.  1.
         14    1    6    6    0    0 -0.54635843808E+02  0.18861996819E+01 -0.59015287375E+02  0.80445244246E+02  0.00000000000E+00 0. -1.
         -5    1    3    3    0  503 -0.22990712932E+02  0.24821701253E+02 -0.11340552926E+03  0.11843814336E+03  0.47000000000E+01 0.  1.
         13    1    4    4    0    0  0.95567218221E+01 -0.22069217205E+02 -0.32598709390E+03  0.32687301307E+03  0.00000000000E+00 0. -1.
        -14    1    4    4    0    0  0.32036939425E+02 -0.14375430845E+03 -0.63029301723E+03  0.64727193223E+03  0.00000000000E+00 0.  1.
</event>
<event>
12    1  0.1066489E+000  0.1829318E+03  0.7818608E-02  0.1165216E+00
         21   -1    0    0  501  502  0.00000000000E+00  0.00000000000E+00  0.30872600738E+03  0.30872600738E+03  0.00000000000E+00 0. -1.
         21   -1    0    0  502  503 -0.00000000000E+00 -0.00000000000E+00 -0.12229053245E+03  0.12229053245E+03  0.00000000000E+00 0. -1.
         -6    2    1    2    0  503 -0.23614281977E+02  0.56825565493E+02  0.16749628286E+03  0.24803032930E+03  0.17227089213E+03 0.  0.
        -24    2    3    3    0    0 -0.68783286337E+02 -0.36509296510E+01  0.11399273206E+03  0.15538927270E+03  0.80043821387E+02 0.  0.
          6    2    1    2  501    0  0.23614281977E+02 -0.56825565493E+02  0.18939192065E+02  0.18298621053E+03  0.17128479512E+03 0.  0.
         24    2    5    5    0    0 -0.12433332881E+02 -0.47740589422E+02  0.72404888416E+02  0.11769732929E+03  0.78590341714E+02 0.  0.
          5    1    5    5  501    0  0.36047614858E+02 -0.90849760710E+01 -0.53465696351E+02  0.65288881239E+02  0.47000000000E+01 0. -1.
        -13    1    6    6    0    0 -0.63901926460E+01 -0.42394741995E+02 -0.19384684555E+01  0.42917436676E+02  0.00000000000E+00 0.  1.
         14    1    6    6    0    0 -0.60431402346E+01 -0.53458474273E+01  0.74343356871E+02  0.74779892615E+02  0.00000000000E+00 0. -1.
         -5    1    3    3    0  503  0.45169004359E+02  0.60476495144E+02  0.53503550805E+02  0.92641056603E+02  0.47000000000E+01 0.  1.
         11    1    4    4    0    0 -0.79103725866E+02 -0.11601537542E+01  0.11958848276E+03  0.14338811182E+03  0.00000000000E+00 0. -1.
        -12    1    4    4    0    0  0.10320439530E+02 -0.24907758967E+01 -0.55957507000E+01  0.12001160883E+02  0.00000000000E+00 0.  1.
</event>
<event>
12    1  0.1066489E+000  0.1762773E+03  0.7818608E-02  0.1171520E+00
         21   -1    0    0  503  502  0.00000000000E+00  0.00000000000E+00  0.13589833359E+03  0.13589833359E+03  0.00000000000E+00 0.  1.
         21   -1    0    0  501  503 -0.00000000000E+00 -0.00000000000E+00 -0.27588578669E+03  0.27588578669E+03  0.00000000000E+00 0.  1.
          6    2    1    2  501    0 -0.31591002795E+01 -0.38013038889E+02  0.15542710823E+02  0.17670261920E+03  0.17183500439E+03 0.  0.
         24    2    3    3    0    0  0.35174875882E+02 -0.38822402838E+02  0.64344772518E+02  0.11446211773E+03  0.78847167284E+02 0.  0.
         -6    2    1    2    0  502  0.31591002795E+01  0.38013038889E+02 -0.15553016393E+03  0.23508150107E+03  0.17210086931E+03 0.  0.
        -24    2    5    5    0    0 -0.31427914564E+01  0.71017417424E+02 -0.41242488025E+02  0.11586419652E+03  0.81671405653E+02 0.  0.
          5    1    3    3  501    0 -0.38333976161E+02  0.80936394882E+00 -0.48802061695E+02  0.62240501477E+02  0.47000000000E+01 0. -1.
        -13    1    4    4    0    0  0.21382258989E+02  0.77641176671E+01  0.61750690419E+02  0.65807524568E+02  0.00000000000E+00 0.  1.
         14    1    4    4    0    0  0.13792616893E+02 -0.46586520505E+02  0.25940820993E+01  0.48654593159E+02  0.00000000000E+00 0. -1.
         -5    1    5    5    0  502  0.63018917358E+01 -0.33004378535E+02 -0.11428767590E+03  0.11921730455E+03  0.47000000000E+01 0.  1.
         13    1    6    6    0    0 -0.20110111253E+02 -0.14805933523E+01  0.12780164632E+02  0.23873444228E+02  0.00000000000E+00 0. -1.
        -14    1    6    6    0    0  0.16967319796E+02  0.72498010776E+02 -0.54022652657E+02  0.91990752294E+02  0.00000000000E+00 0.  1.
</event>
<event>
12    1  0.1066489E+000  0.2594006E+03  0.7818608E-02  0.1107713E+00
         21   -1    0    0  503  502  0.00000000000E+00  0.00000000000E+00  0.10416652318E+03  0.10416652318E+03  0.00000000000E+00 0.  1.
         21   -1    0    0  501  503 -0.00000000000E+00 -0.00000000000E+00 -0.72896704649E+03  0.72896704649E+03  0.00000000000E+00 0.  1.
          6    2    1    2  501    0 -0.18285625145E+03 -0.61490895923E+02 -0.16969451582E+03  0.30997561920E+03  0.17341025582E+03 0.  0.
         24    2    3    3    0    0 -0.97163705501E+02 -0.19035890409E+02 -0.15764882029E+02  0.12869665715E+03  0.80691680273E+02 0.  0.
         -6    2    1    2    0  502  0.18285625145E+03  0.61490895923E+02 -0.45510600749E+03  0.52315795046E+03  0.17133366307E+03 0.  0.
        -24    2    5    5    0    0  0.18095755878E+03  0.27583179754E+02 -0.44459507446E+03  0.48729839159E+03  0.79299888553E+02 0.  0.
          5    1    3    3  501    0 -0.85692545949E+02 -0.42455005514E+02 -0.15392963379E+03  0.18127896205E+03  0.47000000000E+01 0. -1.
        -13    1    4    4    0    0 -0.21151550464E+02  0.30325584217E+02 -0.20356576799E+01  0.37029353861E+02  0.00000000000E+00 0.  1.
         14    1    4    4    0    0 -0.76012155037E+02 -0.49361474626E+02 -0.13729224349E+02  0.91667303287E+02  0.00000000000E+00 0. -1.
         -5    1    5    5    0  502  0.18986926738E+01  0.33907716169E+02 -0.10510933033E+02  0.35859558878E+02  0.47000000000E+01 0.  1.
         13    1    6    6    0    0  0.60352207088E+02  0.44140730764E+02 -0.12997640805E+03  0.14994885682E+03  0.00000000000E+00 0. -1.
        -14    1    6    6    0    0  0.12060535169E+03 -0.16557551010E+02 -0.31461866641E+03  0.33734953477E+03  0.00000000000E+00 0.  1.
</event>
<event>
12    1  0.1066489E+000  0.6115035E+03  0.7818608E-02  0.9883082E-01
         21   -1    0    0  503  502  0.00000000000E+00  0.00000000000E+00  0.14367009660E+04  0.14367009660E+04  0.00000000000E+00 0. -1.
         21   -1    0    0  501  503 -0.00000000000E+00 -0.00000000000E+00 -0.26338228520E+03  0.26338228520E+03  0.00000000000E+00 0. -1.
          6    2    1    2  501    0 -0.18494160782E+03 -0.55663119860E+03  0.69234645261E+03  0.92209173094E+03  0.16391418567E+03 0.  0.
         24    2    3    3    0    0 -0.95115681377E+02 -0.44221462948E+03  0.55301240918E+03  0.72060745361E+03  0.94082974678E+02 0.  0.
         -6    2    1    2    0  502  0.18494160782E+03  0.55663119860E+03  0.48097222821E+03  0.77799152028E+03  0.17290121964E+03 0.  0.
        -24    2    5    5    0    0  0.13347278191E+03  0.48900542329E+03  0.46261819720E+03  0.69092116951E+03  0.80094809967E+02 0.  0.
          5    1    3    3  501    0 -0.89825926447E+02 -0.11441656913E+03  0.13933404343E+03  0.20148427733E+03  0.47000000000E+01 0. -1.
        -13    1    4    4    0    0 -0.74492038485E+02 -0.28504613856E+03  0.28923687447E+03  0.41286600061E+03  0.00000000000E+00 0.  1.
         14    1    4    4    0    0 -0.20623642892E+02 -0.15716849092E+03  0.26377553472E+03  0.30774145300E+03  0.00000000000E+00 0. -1.
         -5    1    5    5    0  502  0.51468825916E+02  0.67625775315E+02  0.18354031008E+02  0.87070350765E+02  0.47000000000E+01 0.  1.
         13    1    6    6    0    0  0.10559408101E+03  0.25193999836E+03  0.22219665789E+03  0.35212956066E+03  0.00000000000E+00 0. -1.
        -14    1    6    6    0    0  0.27878700903E+02  0.23706542493E+03  0.24042153931E+03  0.33879160885E+03  0.00000000000E+00 0.  1.
</event>
<event>
12    1  0.1066489E+000  0.2126746E+03  0.7818608E-02  0.1139614E+00
         21   -1    0    0  503  502  0.00000000000E+00  0.00000000000E+00  0.19986494928E+03  0.19986494928E+03  0.00000000000E+00 0.  1.
         21   -1    0    0  501  503 -0.00000000000E+00 -0.00000000000E+00 -0.34593238363E+03  0.34593238363E+03  0.00000000000E+00 0.  1.
          6    2    1    2  501    0  0.12499223907E+03  0.51784538399E+01  0.87903438979E+02  0.23012499327E+03  0.17199017917E+03 0.  0.
         24    2    3    3    0    0  0.77490814128E+02  0.35073388883E+02 -0.10740545036E+02  0.11653442106E+03  0.78929988613E+02 0.  0.
         -6    2    1    2    0  502 -0.12499223907E+03 -0.51784538399E+01 -0.23397087333E+03  0.31567233964E+03  0.17104613482E+03 0.  0.
        -24    2    5    5    0    0 -0.14954404957E+03  0.14615713944E+02 -0.22523110272E+03  0.28261066897E+03  0.81010485284E+02 0.  0.
          5    1    3    3  501    0  0.47501424942E+02 -0.29894935043E+02  0.98643984015E+02  0.11359057221E+03  0.47000000000E+01 0. -1.
        -13    1    4    4    0    0  0.63268748337E+02  0.36990471485E+02  0.25466441850E+02  0.77587171345E+02  0.00000000000E+00 0.  1.
         14    1    4    4    0    0  0.14222065791E+02 -0.19170826024E+01 -0.36206986886E+02  0.38947249716E+02  0.00000000000E+00 0. -1.
         -5    1    5    5    0  502  0.24551810503E+02 -0.19794167784E+02 -0.87397706050E+01  0.33061670670E+02  0.47000000000E+01 0.  1.
         11    1    6    6    0    0 -0.29021284675E+01 -0.34652229901E+01 -0.63070977202E+02  0.63232731122E+02  0.00000000000E+00 0. -1.
        -12    1    6    6    0    0 -0.14664192111E+03  0.18080936934E+02 -0.16216012552E+03  0.21937793785E+03  0.00000000000E+00 0.  1.
</event>
<event>
12    1  0.1066489E+000  0.2159823E+03  0.7818608E-02  0.1137014E+00
         21   -1    0    0  503  502  0.00000000000E+00  0.00000000000E+00  0.33749950529E+03  0.33749950529E+03  0.00000000000E+00 0. -1.
         21   -1    0    0  501  503 -0.00000000000E+00 -0.00000000000E+00 -0.24263734381E+03  0.24263734381E+03  0.00000000000E+00 0. -1.
          6    2    1    2  501    0  0.12102487411E+03  0.50516252934E+02  0.23805675357E+03  0.32143333103E+03  0.17160843923E+03 0.  0.
         24    2    3    3    0    0  0.23426663925E+02  0.64262771451E+02  0.65854836378E+02  0.12296427126E+03  0.78133476529E+02 0.  0.
         -6    2    1    2    0  502 -0.12102487411E+03 -0.50516252934E+02 -0.14319459209E+03  0.25870351808E+03  0.17095001345E+03 0.  0.
        -24    2    5    5    0    0 -0.33823302435E+02 -0.54584246290E+02 -0.14041229184E+02  0.10274408803E+03  0.78966675104E+02 0.  0.
          5    1    3    3  501    0  0.97598210185E+02 -0.13746518517E+02  0.17220191719E+03  0.19846905977E+03  0.47000000000E+01 0. -1.
        -13    1    4    4    0    0  0.43625073324E+02  0.69803903186E+02  0.57527749777E+02  0.10042496660E+03  0.00000000000E+00 0.  1.
         14    1    4    4    0    0 -0.20198409399E+02 -0.55411317348E+01  0.83270866012E+01  0.22539304657E+02  0.00000000000E+00 0. -1.
         -5    1    5    5    0  502 -0.87201571676E+02  0.40679933555E+01 -0.12915336290E+03  0.15595943005E+03  0.47000000000E+01 0.  1.
         11    1    6    6    0    0  0.20734244396E+02 -0.13500428384E+02 -0.23100121232E+02  0.33849461712E+02  0.00000000000E+00 0. -1.
        -12    1    6    6    0    0 -0.54557546832E+02 -0.41083817906E+02  0.90588920489E+01  0.68894626316E+02  0.00000000000E+00 0.  1.
</event>
<event>
12    1  0.1066489E+000  0.2082245E+03  0.7818608E-02  0.1143281E+00
         21   -1    0    0  501  502  0.00000000000E+00  0.00000000000E+00  0.18354279587E+03  0.18354279587E+03  0.00000000000E+00 0.  1.
         21   -1    0    0  502  503 -0.00000000000E+00 -0.00000000000E+00 -0.36383553096E+03  0.36383553096E+03  0.00000000000E+00 0.  1.
         -6    2    1    2    0  503  0.99510041794E+02 -0.59014510970E+02 -0.25351590491E+03  0.32806669615E+03  0.17312562537E+03 0.  0.
        -24    2    3    3    0    0  0.55778285751E+02  0.34541733604E+02 -0.14631836972E+03  0.17914175218E+03  0.79864595015E+02 0.  0.
          6    2    1    2  501    0 -0.99510041794E+02  0.59014510970E+02  0.73223169811E+02  0.21931163068E+03  0.17132132918E+03 0.  0.
         24    2    5    5    0    0 -0.59441662642E+02 -0.11560825303E+02 -0.12721291776E+02  0.10101161557E+03  0.79840787045E+02 0.  0.
          5    1    5    5  501    0 -0.40068379152E+02  0.70575336272E+02  0.85944461587E+02  0.11830001511E+03  0.47000000000E+01 0. -1.
        -13    1    6    6    0    0  0.16588345425E+02  0.72441741435E+00 -0.17146534733E+02  0.23868423448E+02  0.00000000000E+00 0.  1.
         14    1    6    6    0    0 -0.76030008067E+02 -0.12285242717E+02  0.44252429563E+01  0.77143192121E+02  0.00000000000E+00 0. -1.
         -5    1    3    3    0  503  0.43731756043E+02 -0.93556244574E+02 -0.10719753519E+03  0.14892494397E+03  0.47000000000E+01 0.  1.
         11    1    4    4    0    0  0.53488168557E+02  0.12687755138E+02 -0.33875098255E+02  0.64571554014E+02  0.00000000000E+00 0. -1.
        -12    1    4    4    0    0  0.22901171947E+01  0.21853978466E+02 -0.11244327146E+03  0.11457019817E+03  0.00000000000E+00 0.  1.
</event>
<event>
12    1  0.1066489E+000  0.1768333E+03  0.7818608E-02  0.1170987E+00
         21   -1    0    0  501  502  0.00000000000E+00  0.00000000000E+00  0.12242736950E+04  0.12242736950E+04  0.00000000000E+00 0. -1.
         21   -1    0    0  502  503 -0.00000000000E+00 -0.00000000000E+00 -0.26922108630E+02  0.26922108630E+02  0.00000000000E+00 0. -1.
         -6    2    1    2    0  503  0.45106049666E+02 -0.61549451908E+01  0.45398878789E+03  0.48708961943E+03  0.17052283939E+03 0.  0.
        -24    2    3    3    0    0  0.40495284811E+02  0.57048944786E+02  0.34506595665E+03  0.36098544017E+03  0.79658793493E+02 0.  0.
          6    2    1    2  501    0 -0.45106049666E+02  0.61549451908E+01  0.74336279849E+03  0.76410618421E+03  0.17087296893E+03 0.  0.
         24    2    5    5    0    0 -0.83571671183E+01  0.13673272510E+02  0.23057720679E+03  0.24992901760E+03  0.95088721330E+02 0.  0.
          5    1    5    5  501    0 -0.36748882548E+02 -0.75183273187E+01  0.51278559170E+03  0.51417716661E+03  0.47000000000E+01 0. -1.
        -13    1    6    6    0    0 -0.58534885938E+01  0.49841648502E+02  0.18502672888E+03  0.19171161585E+03  0.00000000000E+00 0.  1.
         14    1    6    6    0    0 -0.25036785246E+01 -0.36168375993E+02  0.45550477915E+02  0.58217401748E+02  0.00000000000E+00 0. -1.
         -5    1    3    3    0  503  0.46107648552E+01 -0.63203889976E+02  0.10892283124E+03  0.12610417926E+03  0.47000000000E+01 0.  1.
         13    1    4    4    0    0  0.61068518615E+02  0.48360343364E+02  0.30811810562E+03  0.31781260798E+03  0.00000000000E+00 0. -1.
        -14    1    4    4    0    0 -0.20573233804E+02  0.86886014218E+01  0.36947851025E+02  0.43172832189E+02  0.00000000000E+00 0.  1.
</event>
<event>
12    1  0.1066489E+000  0.2121896E+03  0.7818608E-02  0.1139859E+00
         21   -1    0    0  501  502  0.00000000000E+00  0.00000000000E+00  0.60971008596E+02  0.60971008596E+02  0.00000000000E+00 0. -1.
         21   -1    0    0  502  503 -0.00000000000E+00 -0.00000000000E+00 -0.77230444037E+03  0.77230444037E+03  0.00000000000E+00 0. -1.
         -6    2    1    2    0  503 -0.10397833499E+03  0.69177342738E+02 -0.26802426914E+03  0.34180068038E+03  0.17144590214E+03 0.  0.
        -24    2    3    3    0    0 -0.82988463652E+02  0.10631920410E+02 -0.61789444839E+02  0.12634062856E+03  0.71720959973E+02 0.  0.
          6    2    1    2  501    0  0.10397833499E+03 -0.69177342738E+02 -0.44330916263E+03  0.49147476859E+03  0.17154426716E+03 0.  0.
         24    2    5    5    0    0  0.61598020438E+02 -0.10518451323E+03 -0.38175280314E+03  0.40838516164E+03  0.78645658508E+02 0.  0.
          5    1    5    5  501    0  0.42380314551E+02  0.36007170496E+02 -0.61556359495E+02  0.83089606948E+02  0.47000000000E+01 0. -1.
        -13    1    6    6    0    0  0.71124780353E+02 -0.48602985113E+02 -0.25741010063E+03  0.27144234093E+03  0.00000000000E+00 0.  1.
         14    1    6    6    0    0 -0.95267599152E+01 -0.56581528121E+02 -0.12434270251E+03  0.13694282072E+03  0.00000000000E+00 0. -1.
         -5    1    3    3    0  503 -0.20989871337E+02  0.58545422328E+02 -0.20623482430E+03  0.21546005182E+03  0.47000000000E+01 0.  1.
         11    1    4    4    0    0 -0.17933805139E+02  0.27737538422E+02 -0.47037170699E+02  0.57475976127E+02  0.00000000000E+00 0. -1.
        -12    1    4    4    0    0 -0.65054658513E+02 -0.17105618011E+02 -0.14752274141E+02  0.68864652429E+02  0.00000000000E+00 0.  1.
</event>
<event>
12    1  0.1066489E+000  0.2505619E+03  0.7818608E-02  0.1114377E+00
         21   -1    0    0  503  502  0.00000000000E+00  0.00000000000E+00  0.43430043313E+03  0.43430043313E+03  0.00000000000E+00 0.  1.
         21   -1    0    0  501  503 -0.00000000000E+00 -0.00000000000E+00 -0.19355174353E+03  0.19355174353E+03  0.00000000000E+00 0. -1.
          6    2    1    2  501    0 -0.16344397117E+03  0.36887228618E+02  0.28472114887E+03  0.37346108429E+03  0.17416213571E+03 0.  0.
         24    2    3    3    0    0 -0.14153833718E+03 -0.21424409947E+02  0.26041080936E+03  0.30642984828E+03  0.74788742849E+02 0.  0.
         -6    2    1    2    0  502  0.16344397117E+03 -0.36887228618E+02 -0.43972459273E+02  0.25439109237E+03  0.18629721242E+03 0.  0.
        -24    2    5    5    0    0  0.94508457242E+02  0.26918399102E+02 -0.82225768119E+02  0.15285947736E+03  0.83357628176E+02 0.  0.
          5    1    3    3  501    0 -0.21905633990E+02  0.58311638565E+02  0.24310339515E+02  0.67031236003E+02  0.47000000000E+01 0. -1.
        -11    1    4    4    0    0 -0.95092001345E+02  0.22296561110E+02  0.15371535390E+03  0.18212093614E+03  0.00000000000E+00 0.  1.
         12    1    4    4    0    0 -0.46446335835E+02 -0.43720971057E+02  0.10669545546E+03  0.12430891214E+03  0.00000000000E+00 0. -1.
         -5    1    5    5    0  502  0.68935513928E+02 -0.63805627720E+02  0.38253308847E+02  0.10153161501E+03  0.47000000000E+01 0.  1.
         13    1    6    6    0    0  0.12165493186E+02 -0.23202308095E+02 -0.39545649219E+02  0.47436322555E+02  0.00000000000E+00 0. -1.
        -14    1    6    6    0    0  0.82342964056E+02  0.50120707197E+02 -0.42680118900E+02  0.10542315480E+03  0.00000000000E+00 0.  1.
</event>
<event>
12    1  0.1066489E+000  0.3060751E+03  0.7818608E-02  0.1082677E+00
         21   -1    0    0  501  502  0.00000000000E+00  0.00000000000E+00  0.14313412576E+03  0.14313412576E+03  0.00000000000E+00 0.  1.
         21   -1    0    0  502  503 -0.00000000000E+00 -0.00000000000E+00 -0.94999834489E+03  0.94999834489E+03  0.00000000000E+00 0.  1.
         -6    2    1    2    0  503 -0.22058795628E+03  0.11545729024E+03 -0.96335817437E+02  0.32087778285E+03  0.17802395761E+03 0.  0.
        -24    2    3    3    0    0 -0.59729885381E+02 -0.68822003297E+01 -0.47851274936E+01  0.98963635595E+02  0.78459415216E+02 0.  0.
          6    2    1    2  501    0  0.22058795628E+03 -0.11545729024E+03 -0.71052840168E+03  0.77225468780E+03  0.17186407683E+03 0.  0.
         24    2    5    5    0    0  0.19502842894E+03 -0.50740033773E+02 -0.41018176651E+03  0.46391752821E+03  0.79748055034E+02 0.  0.
          5    1    5    5  501    0  0.25559527336E+02 -0.64717256465E+02 -0.30034663518E+03  0.30833715959E+03  0.47000000000E+01 0. -1.
        -13    1    6    6    0    0  0.17497951596E+03 -0.20298142711E+02 -0.36920287145E+03  0.40907286134E+03  0.00000000000E+00 0.  1.
         14    1    6    6    0    0  0.20048912978E+02 -0.30441891062E+02 -0.40978895061E+02  0.54844666865E+02  0.00000000000E+00 0. -1.
         -5    1    3    3    0  503 -0.16085807089E+03  0.12233949057E+03 -0.91550689944E+02  0.22191414726E+03  0.47000000000E+01 0.  1.
         13    1    4    4    0    0 -0.50682516471E+02 -0.38644475826E+02 -0.12735013514E+02  0.64994565595E+02  0.00000000000E+00 0. -1.
        -14    1    4    4    0    0 -0.90473689106E+01  0.31762275497E+02  0.79498860208E+01  0.33969070000E+02  0.00000000000E+00 0.  1.
</event>
<event>
12    1  0.1066489E+000  0.2310653E+03  0.7818608E-02  0.1125929E+00
         21   -1    0    0  503  502  0.00000000000E+00  0.00000000000E+00  0.29558455700E+03  0.29558455700E+03  0.00000000000E+00 0. -1.
         21   -1    0    0  501  503 -0.00000000000E+00 -0.00000000000E+00 -0.18226439237E+03  0.18226439237E+03  0.00000000000E+00 0. -1.
          6    2    1    2  501    0 -0.69446497389E+02 -0.13770344386E+03  0.32879237951E+02  0.23318201259E+03  0.17177820658E+03 0.  0.
         24    2    3    3    0    0 -0.69535026039E+01 -0.72047722419E+02  0.76592600229E+02  0.13243978610E+03  0.80216239187E+02 0.  0.
         -6    2    1    2    0  502  0.69446497389E+02  0.13770344386E+03  0.80440926676E+02  0.24466693679E+03  0.17206426945E+03 0.  0.
        -24    2    5    5    0    0  0.18173570385E+02  0.15630629230E+03  0.30267318775E+02  0.17040752699E+03  0.57971363575E+02 0.  0.
          5    1    3    3  501    0 -0.62492994785E+02 -0.65655721441E+02 -0.43713362278E+02  0.10074222648E+03  0.47000000000E+01 0. -1.
        -13    1    4    4    0    0  0.12932274736E+02 -0.83330516655E+02  0.66743780123E+02  0.10754511110E+03  0.00000000000E+00 0.  1.
         14    1    4    4    0    0 -0.19885777340E+02  0.11282794236E+02  0.98488201063E+01  0.24894675007E+02  0.00000000000E+00 0. -1.
         -5    1    5    5    0  502  0.51272927004E+02 -0.18602848442E+02  0.50173607901E+02  0.74259409797E+02  0.47000000000E+01 0.  1.
         13    1    6    6    0    0  0.74265468458E+00  0.71596043389E+02  0.42188334919E+02  0.83104756592E+02  0.00000000000E+00 0. -1.
        -14    1    6    6    0    0  0.17430915701E+02  0.84710248913E+02 -0.11921016144E+02  0.87302770397E+02  0.00000000000E+00 0.  1.
</event>
<event>
12    1  0.1066489E+000  0.1743511E+03  0.7818608E-02  0.1173520E+00
         21   -1    0    0  501  502  0.00000000000E+00  0.00000000000E+00  0.68683098301E+03  0.68683098301E+03  0.00000000000E+00 0.  1.
         21   -1    0    0  502  503 -0.00000000000E+00 -0.00000000000E+00 -0.68862863481E+02  0.68862863481E+02  0.00000000000E+00 0.  1.
         -6    2    1    2    0  503  0.26794664883E+02 -0.40264195333E+01  0.82204425672E+02  0.19227478458E+03  0.17169117352E+03 0.  0.
        -24    2    3    3    0    0 -0.16951342497E+02 -0.51954711605E+02  0.14515377254E+02  0.98387982431E+02  0.80516202342E+02 0.  0.
          6    2    1    2  501    0 -0.26794664883E+02  0.40264195333E+01  0.53576369386E+03  0.56341906191E+03  0.17223280043E+03 0.  0.
         24    2    5    5    0    0 -0.45813837550E+02 -0.61446274144E+01  0.13771506364E+03  0.16475882920E+03  0.77739107848E+02 0.  0.
          5    1    5    5  501    0  0.19019172666E+02  0.10171046948E+02  0.39804863022E+03  0.39866023271E+03  0.47000000000E+01 0. -1.
        -11    1    6    6    0    0 -0.55056218963E+01 -0.62148058683E+01 -0.92128527517E+01  0.12402110315E+02  0.00000000000E+00 0.  1.
         12    1    6    6    0    0 -0.40308215653E+02  0.70178453819E-01  0.14692791639E+03  0.15235671889E+03  0.00000000000E+00 0. -1.
         -5    1    3    3    0  503  0.43746007380E+02  0.47928292072E+02  0.67689048418E+02  0.93886802152E+02  0.47000000000E+01 0.  1.
         13    1    4    4    0    0  0.12200627044E+02  0.16360762366E+02  0.12803675489E+02  0.24092819500E+02  0.00000000000E+00 0. -1.
        -14    1    4    4    0    0 -0.29151969540E+02 -0.68315473971E+02  0.17117017650E+01  0.74295162931E+02  0.00000000000E+00 0.  1.
</event>
<event>
12    1  0.1066489E+000  0.2767962E+03  0.7818608E-02  0.1097656E+00
         21   -1    0    0  503  502  0.00000000000E+00  0.00000000000E+00  0.39585829100E+03  0.39585829100E+03  0.00000000000E+00 0. -1.
         21   -1    0    0  501  503 -0.00000000000E+00 -0.00000000000E+00 -0.19414504116E+03  0.19414504116E+03  0.00000000000E+00 0. -1.
          6    2    1    2  501    0 -0.21674621648E+03 -0.48119551500E+01  0.12761046033E+03  0.30345950229E+03  0.16970905301E+03 0.  0.
         24    2    3    3    0    0 -0.11421496599E+03  0.85760025634E+01  0.12481273831E+01  0.14011500766E+03  0.80697281699E+02 0.  0.
         -6    2    1    2    0  502  0.21674621648E+03  0.48119551500E+01  0.74102789511E+02  0.28654382987E+03  0.17208737825E+03 0.  0.
        -24    2    5    5    0    0  0.15622005770E+03 -0.60911705990E+02  0.38118435713E+02  0.19010742985E+03  0.81073284071E+02 0.  0.
          5    1    3    3  501    0 -0.10253125050E+03 -0.13387957713E+02  0.12636233295E+03  0.16334449463E+03  0.47000000000E+01 0. -1.
        -11    1    4    4    0    0 -0.97984611939E+02 -0.26058146751E+02 -0.42168814249E+01  0.10147804333E+03  0.00000000000E+00 0.  1.
         12    1    4    4    0    0 -0.16230354046E+02  0.34634149314E+02  0.54650088079E+01  0.38636964328E+02  0.00000000000E+00 0. -1.
         -5    1    5    5    0  502  0.60526158783E+02  0.65723661140E+02  0.35984353798E+02  0.96436400021E+02  0.47000000000E+01 0.  1.
         11    1    6    6    0    0  0.10274000657E+03 -0.76627960340E+02  0.40204050786E+02  0.13432691076E+03  0.00000000000E+00 0. -1.
        -12    1    6    6    0    0  0.53480051130E+02  0.15716254350E+02 -0.20856150728E+01  0.55780519090E+02  0.00000000000E+00 0.  1.
</event>
<event>
12    1  0.1066489E+000  0.3269216E+03  0.7818608E-02  0.1072576E+00
         21   -1    0    0  501  502  0.00000000000E+00  0.00000000000E+00  0.26140786628E+03  0.26140786628E+03  0.00000000000E+00 0.  1.
         21   -1    0    0  502  503 -0.00000000000E+00 -0.00000000000E+00 -0.42039012610E+03  0.42039012610E+03  0.00000000000E+00 0.  1.
         -6    2    1    2    0  503 -0.27737441817E+03  0.47408110786E+01 -0.13788584219E+03  0.35481015143E+03  0.17297021401E+03 0.  0.
        -24    2    3    3    0    0 -0.14016196932E+03 -0.44227279951E+02 -0.12420731312E+03  0.20840549913E+03  0.80024780515E+02 0.  0.
          6    2    1    2  501    0  0.27737441817E+03 -0.47408110786E+01 -0.21096417630E+02  0.32698784095E+03  0.17180496544E+03 0.  0.
         24    2    5    5    0    0  0.16474219018E+03  0.93645082323E+01 -0.78532861331E+02  0.19968499778E+03  0.80492265405E+02 0.  0.
          5    1    5    5  501    0  0.11263222799E+03 -0.14105319311E+02  0.57436443700E+02  0.12730284317E+03  0.47000000000E+01 0. -1.
        -11    1    6    6    0    0  0.25093320265E+02  0.32175416265E+02 -0.27762901892E+02  0.49352921446E+02  0.00000000000E+00 0.  1.
         12    1    6    6    0    0  0.13964886991E+03 -0.22810908033E+02 -0.50769959438E+02  0.15033207633E+03  0.00000000000E+00 0. -1.
         -5    1    3    3    0  503 -0.13721244885E+03  0.48968091030E+02 -0.13678529067E+02  0.14640465230E+03  0.47000000000E+01 0.  1.
         13    1    4    4    0    0 -0.56567043696E+02 -0.12090215388E+02 -0.10017702018E+03  0.11567817042E+03  0.00000000000E+00 0. -1.
        -14    1    4    4    0    0 -0.83594925627E+02 -0.32137064564E+02 -0.24030292944E+02  0.92727328703E+02  0.00000000000E+00 0.  1.
</event>
<event>
12    1  0.1066489E+000  0.2543488E+03  0.7818608E-02  0.1110620E+00
         21   -1    0    0  503  502  0.00000000000E+00  0.00000000000E+00  0.10294394871E+03  0.10294394871E+03  0.00000000000E+00 0.  1.
         21   -1    0    0  501  503 -0.00000000000E+00 -0.00000000000E+00 -0.63800234343E+03  0.63800234343E+03  0.00000000000E+00 0.  1.
          6    2    1    2  501    0  0.18496192831E+03  0.25398348303E+02 -0.22081418749E+03  0.33666578087E+03  0.17242085602E+03 0.  0.
         24    2    3    3    0    0  0.58282976470E+02 -0.31899062664E+02 -0.47485662315E+02  0.11441498159E+03  0.80133915050E+02 0.  0.
         -6    2    1    2    0  502 -0.18496192831E+03 -0.25398348303E+02 -0.31424420724E+03  0.40428051127E+03  0.17273482275E+03 0.  0.
        -24    2    5    5    0    0 -0.51716454395E+02 -0.55205455982E+02 -0.19118704509E+03  0.22041105991E+03  0.79412310730E+02 0.  0.
          5    1    3    3  501    0  0.12667895184E+03  0.57297410967E+02 -0.17332852517E+03  0.22225079928E+03  0.47000000000E+01 0. -1.
        -11    1    4    4    0    0 -0.16586055643E+02 -0.23037574788E+02 -0.17034231313E+02  0.33105771858E+02  0.00000000000E+00 0.  1.
         12    1    4    4    0    0  0.74869032112E+02 -0.88614878766E+01 -0.30451431002E+02  0.81309209730E+02  0.00000000000E+00 0. -1.
         -5    1    5    5    0  502 -0.13324547391E+03  0.29807107679E+02 -0.12305716214E+03  0.18386945135E+03  0.47000000000E+01 0.  1.
         11    1    6    6    0    0 -0.47121559800E+02 -0.50715123550E+02 -0.67939199406E+02  0.96995876050E+02  0.00000000000E+00 0. -1.
        -12    1    6    6    0    0 -0.45948945949E+01 -0.44903324312E+01 -0.12324784569E+03  0.12341518386E+03  0.00000000000E+00 0.  1.
</event>
<event>
12    1  0.1066489E+000  0.1894131E+03  0.7818608E-02  0.1159035E+00
         21   -1    0    0  503  502  0.00000000000E+00  0.00000000000E+00  0.19627607786E+03  0.19627607786E+03  0.00000000000E+00 0.  1.
         21   -1    0    0  501  503 -0.00000000000E+00 -0.00000000000E+00 -0.25863860077E+03  0.25863860077E+03  0.00000000000E+00 0.  1.
          6    2    1    2  501    0 -0.15127624458E+02 -0.77737736159E+02  0.92155692213E+02  0.21047000622E+03  0.17185153845E+03 0.  0.
         24    2    3    3    0    0  0.24061481111E+02 -0.52962153025E+02 -0.98521557284E+01  0.98321414806E+02  0.78651707615E+02 0.  0.
         -6    2    1    2    0  502  0.15127624458E+02  0.77737736159E+02 -0.15451821511E+03  0.24444467241E+03  0.17206196099E+03 0.  0.
        -24    2    5    5    0    0 -0.20222196920E+02  0.66118508835E+02 -0.20963618487E+02  0.10572359760E+03  0.77184268673E+02 0.  0.
          5    1    3    3  501    0 -0.39189105569E+02 -0.24775583134E+02  0.10200784794E+03  0.11214859142E+03  0.47000000000E+01 0. -1.
        -11    1    4    4    0    0 -0.11053454155E+02  0.89246068138E+01  0.17101368899E+02  0.22232504892E+02  0.00000000000E+00 0.  1.
         12    1    4    4    0    0  0.35114935267E+02 -0.61886759839E+02 -0.26953524627E+02  0.76088909915E+02  0.00000000000E+00 0. -1.
         -5    1    5    5    0  502  0.35349821379E+02  0.11619227324E+02 -0.13355459663E+03  0.13872107481E+03  0.47000000000E+01 0.  1.
         11    1    6    6    0    0  0.19953196001E+02  0.59633705714E+02 -0.11192437801E+02  0.63871586419E+02  0.00000000000E+00 0. -1.
        -12    1    6    6    0    0 -0.40175392921E+02  0.64848031217E+01 -0.97711806858E+01  0.41852011181E+02  0.00000000000E+00 0.  1.
</event>
<event>
12    1  0.1066489E+000  0.1931937E+03  0.7818608E-02  0.1155767E+00
         21   -1    0    0  503  502  0.00000000000E+00  0.00000000000E+00  0.92920363791E+02  0.92920363791E+02  0.00000000000E+00 0.  1.
         21   -1    0    0  501  503 -0.00000000000E+00 -0.00000000000E+00 -0.66704864375E+03  0.66704864375E+03  0.00000000000E+00 0.  1.
          6    2    1    2  501    0 -0.87395611823E+02 -0.21085669930E+01 -0.47049455754E+02  0.19884023885E+03  0.17228276257E+03 0.  0.
         24    2    3    3    0    0  0.14462333471E+02  0.17321313370E+02 -0.44032895538E+02  0.94995398311E+02  0.81092803777E+02 0.  0.
         -6    2    1    2    0  502  0.87395611823E+02  0.21085669930E+01 -0.52707882420E+03  0.56112876869E+03  0.17149626559E+03 0.  0.
        -24    2    5    5    0    0  0.34630381651E+01 -0.23782356251E+02 -0.12512568328E+03  0.14966378315E+03  0.78518903896E+02 0.  0.
          5    1    3    3  501    0 -0.10185794529E+03 -0.19429880363E+02 -0.30165602160E+01  0.10384484054E+03  0.47000000000E+01 0. -1.
        -13    1    4    4    0    0  0.21378395339E+02  0.22890344770E+02  0.15400449141E+02  0.34902399698E+02  0.00000000000E+00 0.  1.
         14    1    4    4    0    0 -0.69160618687E+01 -0.55690313992E+01 -0.59433344679E+02  0.60092998613E+02  0.00000000000E+00 0. -1.
         -5    1    5    5    0  502  0.83932573658E+02  0.25890923244E+02 -0.40195314092E+03  0.41146498554E+03  0.47000000000E+01 0.  1.
         11    1    6    6    0    0  0.29977265089E+02 -0.15130124179E+02 -0.16309771376E+02  0.37330493195E+02  0.00000000000E+00 0. -1.
        -12    1    6    6    0    0 -0.26514226924E+02 -0.86522320721E+01 -0.10881591190E+03  0.11233328996E+03  0.00000000000E+00 0.  1.
</event>
<event>
12    1  0.1066489E+000  0.2537465E+03  0.7818608E-02  0.1111643E+00
         21   -1    0    0  501  502  0.00000000000E+00  0.00000000000E+00  0.15698908223E+03  0.15698908223E+03  0.00000000000E+00 0.  1.
         21   -1    0    0  502  503 -0.00000000000E+00 -0.00000000000E+00 -0.59767656602E+03  0.59767656602E+03  0.00000000000E+00 0.  1.
         -6    2    1    2    0  503  0.14115752552E+03  0.12236713079E+03 -0.43691631955E+03  0.50525551506E+03  0.17172100482E+03 0.  0.
        -24    2    3    3    0    0  0.11060203492E+02  0.86912846768E+02 -0.20057135638E+03  0.23310968821E+03  0.80218992151E+02 0.  0.
          6    2    1    2  501    0 -0.14115752552E+03 -0.12236713079E+03 -0.37711642280E+01  0.24941013319E+03  0.16520299982E+03 0.  0.
         24    2    5    5    0    0 -0.54064537362E+02 -0.19858877421E+02  0.44798555512E+02  0.10632191470E+03  0.77331040065E+02 0.  0.
          5    1    5    5  501    0 -0.87092988160E+02 -0.10250825337E+03 -0.48569719740E+02  0.14308821849E+03  0.47000000000E+01 0. -1.
        -11    1    6    6    0    0 -0.67960981412E+02  0.33512613151E+01  0.39747431938E+02  0.78802184567E+02  0.00000000000E+00 0.  1.
         12    1    6    6    0    0  0.13896444051E+02 -0.23210138736E+02  0.50511235741E+01  0.27519730136E+02  0.00000000000E+00 0. -1.
         -5    1    3    3    0  503  0.13009732203E+03  0.35454284019E+02 -0.23634496317E+03  0.27214582685E+03  0.47000000000E+01 0.  1.
         11    1    4    4    0    0  0.29261993942E+02  0.41469489600E+02 -0.38211208505E+02  0.63530144912E+02  0.00000000000E+00 0. -1.
        -12    1    4    4    0    0 -0.18201790450E+02  0.45443357168E+02 -0.16236014787E+03  0.16957954330E+03  0.00000000000E+00 0.  1.
</event>
<event>
12    1  0.1066489E+000  0.2661222E+03  0.7818608E-02  0.1103547E+00
         21   -1    0    0  501  502  0.00000000000E+00  0.00000000000E+00  0.18399972298E+03  0.18399972298E+03  0.00000000000E+00 0.  1.
         21   -1    0    0  502  503 -0.00000000000E+00 -0.00000000000E+00 -0.48886021267E+03  0.48886021267E+03  0.00000000000E+00 0.  1.
         -6    2    1    2    0  503 -0.14531629193E+03 -0.14134069449E+03 -0.30773605462E+03  0.40672216265E+03  0.17212617947E+03 0.  0.
        -24    2    3    3    0    0 -0.10873291847E+03 -0.27829408986E+02 -0.11665680832E+03  0.18143007776E+03  0.81919098044E+02 0.  0.
          6    2    1    2  501    0  0.14531629193E+03  0.14134069449E+03  0.28755649302E+01  0.26613777300E+03  0.17241527984E+03 0.  0.
         24    2    5    5    0    0  0.80284154594E+02  0.14837458106E+03 -0.35737751508E+02  0.19003433908E+03  0.79845484310E+02 0.  0.
          5    1    5    5  501    0  0.65032137339E+02 -0.70338865720E+01  0.38613316438E+02  0.76103433914E+02  0.47000000000E+01 0. -1.
        -13    1    6    6    0    0 -0.41663445139E+01 -0.14620361646E+01  0.10955759322E+02  0.11812054803E+02  0.00000000000E+00 0.  1.
         14    1    6    6    0    0  0.84450499108E+02  0.14983661722E+03 -0.46693510830E+02  0.17822228428E+03  0.00000000000E+00 0. -1.
         -5    1    3    3    0  503 -0.36583373463E+02 -0.11351128550E+03 -0.19107924630E+03  0.22529208489E+03  0.47000000000E+01 0.  1.
         13    1    4    4    0    0 -0.91193340878E+02 -0.54935633683E+02 -0.93589644688E+02  0.14175038223E+03  0.00000000000E+00 0. -1.
        -14    1    4    4    0    0 -0.17539577592E+02  0.27106224697E+02 -0.23067163633E+02  0.39679695532E+02  0.00000000000E+00 0.  1.
</event>
<event>
12    1  0.1066489E+000  0.1932378E+03  0.7818608E-02  0.1159460E+00
         21   -1    0    0  503  502  0.00000000000E+00  0.00000000000E+00  0.23033392795E+03  0.23033392795E+03  0.00000000000E+00 0. -1.
         21   -1    0    0  501  503 -0.00000000000E+00 -0.00000000000E+00 -0.19388453011E+03  0.19388453011E+03  0.00000000000E+00 0. -1.
          6    2    1    2  501    0  0.28689605410E+02 -0.27996586192E+02 -0.85130883170E+02  0.19591466775E+03  0.17183825963E+03 0.  0.
         24    2    3    3    0    0  0.11506460779E+02  0.48315859864E+02 -0.70214346729E+02  0.11614347657E+03  0.78054030709E+02 0.  0.
         -6    2    1    2    0  502 -0.28689605410E+02  0.27996586192E+02  0.12158028101E+03  0.22830379030E+03  0.18903426578E+03 0.  0.
        -24    2    5    5    0    0 -0.79937359567E+02  0.52007461861E+02  0.12095214640E+03  0.17151172211E+03  0.75445951240E+02 0.  0.
          5    1    3    3  501    0  0.17183144631E+02 -0.76312446056E+02 -0.14916536441E+02  0.79771191177E+02  0.47000000000E+01 0. -1.
        -11    1    4    4    0    0 -0.21074227841E+02  0.16432179601E+02 -0.64977008249E+02  0.70257748374E+02  0.00000000000E+00 0.  1.
         12    1    4    4    0    0  0.32580688619E+02  0.31883680263E+02 -0.52373384797E+01  0.45885728199E+02  0.00000000000E+00 0. -1.
         -5    1    5    5    0  502  0.51247754158E+02 -0.24010875670E+02  0.62813460907E+00  0.56792068194E+02  0.47000000000E+01 0.  1.
         11    1    6    6    0    0 -0.51250748419E+02  0.66991053543E+02  0.63525539872E+02  0.10559325113E+03  0.00000000000E+00 0. -1.
        -12    1    6    6    0    0 -0.28686611148E+02 -0.14983591682E+02  0.57426606529E+02  0.65918470980E+02  0.00000000000E+00 0.  1.
</event>
<event>
12    1  0.1066489E+000  0.1810097E+03  0.7818608E-02  0.1168126E+00
         21   -1    0    0  501  502  0.00000000000E+00  0.00000000000E+00  0.11300094456E+03  0.11300094456E+03  0.00000000000E+00 0.  1.
         21   -1    0    0  502  503 -0.00000000000E+00 -0.00000000000E+00 -0.28150771449E+03  0.28150771449E+03  0.00000000000E+00 0.  1.
         -6    2    1    2    0  503 -0.44011967099E+01 -0.12090474269E+02 -0.84681811260E+02  0.19983875303E+03  0.18055184284E+03 0.  0.
        -24    2    3    3    0    0 -0.16831956418E+02 -0.50570820541E+02  0.10265259444E+02  0.96531942648E+02  0.79826798463E+02 0.  0.
          6    2    1    2  501    0  0.44011967099E+01  0.12090474269E+02 -0.83824958672E+02  0.19466990602E+03  0.17522613536E+03 0.  0.
         24    2    5    5    0    0 -0.42184305462E+02 -0.22924286558E+02 -0.26744383948E+00  0.92688580413E+02  0.79284695063E+02 0.  0.
          5    1    5    5  501    0  0.46585502172E+02  0.35014760827E+02 -0.83557514832E+02  0.10198132561E+03  0.47000000000E+01 0. -1.
        -13    1    6    6    0    0 -0.40973891259E+02 -0.47691753807E+02 -0.13896208961E+02  0.64393072373E+02  0.00000000000E+00 0.  1.
         14    1    6    6    0    0 -0.12104142037E+01  0.24767467249E+02  0.13628765122E+02  0.28295508040E+02  0.00000000000E+00 0. -1.
         -5    1    3    3    0  503  0.12430759708E+02  0.38480346272E+02 -0.94947070704E+02  0.10330681038E+03  0.47000000000E+01 0.  1.
         13    1    4    4    0    0  0.26254233211E+02  0.33474483529E+01 -0.15366321946E+01  0.26511344939E+02  0.00000000000E+00 0. -1.
        -14    1    4    4    0    0 -0.43086189629E+02 -0.53918268894E+02  0.11801891639E+02  0.70020597709E+02  0.00000000000E+00 0.  1.
</event>
<event>
12    1  0.1066489E+000  0.2016928E+03  0.7818608E-02  0.1148791E+00
         21   -1    0    0  503  502  0.00000000000E+00  0.00000000000E+00  0.16617708909E+04  0.16617708909E+04  0.00000000000E+00 0.  1.
         21   -1    0    0  501  503 -0.00000000000E+00 -0.00000000000E+00 -0.32670555819E+02  0.32670555819E+02  0.00000000000E+00 0.  1.
          6    2    1    2  501    0  0.69547162640E+02  0.73998079355E+02  0.12423589504E+04  0.12582661488E+04  0.17165493272E+03 0.  0.
         24    2    3    3    0    0  0.57486571991E+02 -0.58872680467E+01  0.94290598768E+03  0.94807057585E+03  0.80167008881E+02 0.  0.
         -6    2    1    2    0  502 -0.69547162640E+02 -0.73998079355E+02  0.38674138470E+03  0.43617529797E+03  0.17426264183E+03 0.  0.
        -24    2    5    5    0    0 -0.34056710340E+02  0.26100319516E+02  0.22632186668E+03  0.24372849123E+03  0.79629792802E+02 0.  0.
          5    1    3    3  501    0  0.12060590649E+02  0.79885347402E+02  0.29945296271E+03  0.31019557291E+03  0.47000000000E+01 0. -1.
        -11    1    4    4    0    0  0.31698303808E+02 -0.14231933494E+02  0.86287398103E+03  0.86357329598E+03  0.00000000000E+00 0.  1.
         12    1    4    4    0    0  0.25788268183E+02  0.83446654476E+01  0.80032006654E+02  0.84497279875E+02  0.00000000000E+00 0. -1.
         -5    1    5    5    0  502 -0.35490452301E+02 -0.10009839887E+03  0.16041951802E+03  0.19244680674E+03  0.47000000000E+01 0.  1.
         11    1    6    6    0    0 -0.45273811162E+02 -0.14952128201E+02  0.12799574501E+03  0.13658768193E+03  0.00000000000E+00 0. -1.
        -12    1    6    6    0    0  0.11217100822E+02  0.41052447717E+02  0.98326121674E+02  0.10714080930E+03  0.00000000000E+00 0.  1.
</event>
<event>
12    1  0.1066489E+000  0.1726782E+03  0.7818608E-02  0.1175825E+00
         21   -1    0    0  503  502  0.00000000000E+00  0.00000000000E+00  0.54649135851E+03  0.54649135851E+03  0.00000000000E+00 0. -1.
         21   -1    0    0  501  503 -0.00000000000E+00 -0.00000000000E+00 -0.54292599657E+02  0.54292599657E+02  0.00000000000E+00 0. -1.
          6    2    1    2  501    0 -0.48257451921E+01  0.14062515108E+02  0.28063782820E+03  0.32950774026E+03  0.17203696733E+03 0.  0.
         24    2    3    3    0    0  0.31897018194E+02 -0.21908996041E+02  0.73851892591E+02  0.11637626879E+03  0.81190578407E+02 0.  0.
         -6    2    1    2    0  502  0.48257451921E+01 -0.14062515108E+02  0.21156093066E+03  0.27127621791E+03  0.16914998337E+03 0.  0.
        -24    2    5    5    0    0 -0.13592790498E+02  0.55687712392E+02  0.12638360430E+03  0.15955512044E+03  0.78734590610E+02 0.  0.
          5    1    3    3  501    0 -0.36722763386E+02  0.35971511149E+02  0.20678593561E+03  0.21313147147E+03  0.47000000000E+01 0. -1.
        -11    1    4    4    0    0 -0.15974467156E+02 -0.36007266594E+02  0.25733930063E+02  0.47052545149E+02  0.00000000000E+00 0.  1.
         12    1    4    4    0    0  0.47871485350E+02  0.14098270553E+02  0.48117962528E+02  0.69323723646E+02  0.00000000000E+00 0. -1.
         -5    1    5    5    0  502  0.18418535690E+02 -0.69750227501E+02  0.85177326360E+02  0.11172109747E+03  0.47000000000E+01 0.  1.
         13    1    6    6    0    0  0.21507242933E+02  0.50068267099E+02  0.44729616891E+02  0.70499159542E+02  0.00000000000E+00 0. -1.
        -14    1    6    6    0    0 -0.35100033431E+02  0.56194452935E+01  0.81653987406E+02  0.89055960898E+02  0.00000000000E+00 0.  1.
</event>
<event>
12    1  0.1066489E+000  0.2069591E+03  0.7818608E-02  0.1144097E+00
         21   -1    0    0  503  502  0.00000000000E+00  0.00000000000E+00  0.27811538132E+03  0.27811538132E+03  0.00000000000E+00 0. -1.
         21   -1    0    0  501  503 -0.00000000000E+00 -0.00000000000E+00 -0.28467166172E+03  0.28467166172E+03  0.00000000000E+00 0. -1.
          6    2    1    2  501    0  0.77141622194E+02 -0.84413762738E+02 -0.19418541595E+03  0.28343644543E+03  0.17190616515E+03 0.  0.
         24    2    3    3    0    0  0.57185228306E+00 -0.93141490683E+02 -0.14538596624E+03  0.19209872490E+03  0.84197248342E+02 0.  0.
         -6    2    1    2    0  502 -0.77141622194E+02  0.84413762738E+02  0.18762913554E+03  0.27935059761E+03  0.17249797293E+03 0.  0.
        -24    2    5    5    0    0 -0.35884084109E+02  0.11934495334E+03  0.16209027312E+03  0.21937813710E+03  0.79514935811E+02 0.  0.
          5    1    3    3  501    0  0.76569769911E+02  0.87277279458E+01 -0.48799449706E+02  0.91337720526E+02  0.47000000000E+01 0. -1.
        -11    1    4    4    0    0  0.16710705369E+02 -0.19923756633E+02 -0.10245214718E+03  0.10570073895E+03  0.00000000000E+00 0.  1.
         12    1    4    4    0    0 -0.16138853086E+02 -0.73217734050E+02 -0.42933819062E+02  0.86397985958E+02  0.00000000000E+00 0. -1.
         -5    1    5    5    0  502 -0.41257538085E+02 -0.34931190603E+02  0.25538862426E+02  0.59972460511E+02  0.47000000000E+01 0.  1.
         11    1    6    6    0    0  0.82390821810E+01  0.31590358879E+02  0.94937489973E+02  0.10039402498E+03  0.00000000000E+00 0. -1.
        -12    1    6    6    0    0 -0.44123166290E+02  0.87754594462E+02  0.67152783146E+02  0.11898411212E+03  0.00000000000E+00 0.  1.
</event>
<event>
12    1  0.1066489E+000  0.2652047E+03  0.7818608E-02  0.1104399E+00
         21   -1    0    0  501  502  0.00000000000E+00  0.00000000000E+00  0.72940720203E+03  0.72940720203E+03  0.00000000000E+00 0.  1.
         21   -1    0    0  502  503 -0.00000000000E+00 -0.00000000000E+00 -0.13412126867E+03  0.13412126867E+03  0.00000000000E+00 0.  1.
         -6    2    1    2    0  503  0.16551751232E+03  0.11380213774E+03  0.52815913460E+03  0.58996029203E+03  0.16957034314E+03 0.  0.
        -24    2    3    3    0    0  0.15373122652E+03  0.14658476095E+03  0.44221587752E+03  0.49710583412E+03  0.80243042237E+02 0.  0.
          6    2    1    2  501    0 -0.16551751232E+03 -0.11380213774E+03  0.67126798760E+02  0.27356817867E+03  0.17316630108E+03 0.  0.
         24    2    5    5    0    0 -0.13017858953E+03 -0.94618450705E+02  0.11321054690E+03  0.21222769322E+03  0.79528922117E+02 0.  0.
          5    1    5    5  501    0 -0.35338922792E+02 -0.19183687035E+02 -0.46083748144E+02  0.61340485450E+02  0.47000000000E+01 0. -1.
        -13    1    6    6    0    0 -0.34375038200E+02 -0.40209706232E+02  0.82235040214E+02  0.97780701396E+02  0.00000000000E+00 0.  1.
         14    1    6    6    0    0 -0.95803551332E+02 -0.54408744473E+02  0.30975506689E+02  0.11444699182E+03  0.00000000000E+00 0. -1.
         -5    1    3    3    0  503  0.11786285803E+02 -0.32782623213E+02  0.85943257073E+02  0.92854457911E+02  0.47000000000E+01 0.  1.
         13    1    4    4    0    0  0.96293912562E+02  0.38836181548E+02  0.17866818262E+03  0.20664725034E+03  0.00000000000E+00 0. -1.
        -14    1    4    4    0    0  0.57437313960E+02  0.10774857940E+03  0.26354769490E+03  0.29045858377E+03  0.00000000000E+00 0.  1.
</event>
<event>
12    1  0.1066489E+000  0.1898762E+03  0.7818608E-02  0.1159335E+00
         21   -1    0    0  501  502  0.00000000000E+00  0.00000000000E+00  0.17896002740E+04  0.17896002740E+04  0.00000000000E+00 0.  1.
         21   -1    0    0  502  503 -0.00000000000E+00 -0.00000000000E+00 -0.21852248506E+02  0.21852248506E+02  0.00000000000E+00 0.  1.
         -6    2    1    2    0  503  0.30542326366E+02  0.71990320810E+02  0.59872287021E+03  0.62710765356E+03  0.16935021069E+03 0.  0.
        -24    2    3    3    0    0 -0.20689662839E+01 -0.23919639518E+02  0.34572776484E+03  0.35454421097E+03  0.74816310893E+02 0.  0.
          6    2    1    2  501    0 -0.30542326366E+02 -0.71990320810E+02  0.11690251553E+04  0.11843448690E+04  0.17302460781E+03 0.  0.
         24    2    5    5    0    0 -0.27212380182E+02 -0.19869228213E+02  0.26088734016E+03  0.27469434369E+03  0.79116865034E+02 0.  0.
          5    1    5    5  501    0 -0.33299461833E+01 -0.52121092597E+02  0.90813781514E+03  0.90965052527E+03  0.47000000000E+01 0. -1.
        -13    1    6    6    0    0  0.27678297423E+02 -0.88159330816E+01  0.10937850357E+03  0.11317007497E+03  0.00000000000E+00 0.  1.
         14    1    6    6    0    0 -0.54890677606E+02 -0.11053295132E+02  0.15150883659E+03  0.16152426872E+03  0.00000000000E+00 0. -1.
         -5    1    3    3    0  503  0.32611292650E+02  0.95909960329E+02  0.25299510537E+03  0.27256344259E+03  0.47000000000E+01 0.  1.
         11    1    4    4    0    0 -0.34365079812E+01  0.52018181858E+01 -0.12376708248E+01  0.63561252830E+01  0.00000000000E+00 0. -1.
        -12    1    4    4    0    0  0.13675416972E+01 -0.29121457704E+02  0.34696543566E+03  0.34818808569E+03  0.00000000000E+00 0.  1.
</event>
<event>
12    1  0.1066489E+000  0.3012503E+03  0.7818608E-02  0.1084953E+00
         21   -1    0    0  503  502  0.00000000000E+00  0.00000000000E+00  0.42704953095E+02  0.42704953095E+02  0.00000000000E+00 0. -1.
         21   -1    0    0  501  503 -0.00000000000E+00 -0.00000000000E+00 -0.21272588374E+04  0.21272588374E+04  0.00000000000E+00 0. -1.
          6    2    1    2  501    0  0.14816817138E+03 -0.19376842193E+03 -0.92963668198E+03  0.97640377897E+03  0.17216262879E+03 0.  0.
         24    2    3    3    0    0  0.57134034104E+02 -0.45958526117E+02 -0.20219324467E+03  0.22851941362E+03  0.77217421831E+02 0.  0.
         -6    2    1    2    0  502 -0.14816817138E+03  0.19376842193E+03 -0.11549172023E+04  0.11935600115E+04  0.17678164085E+03 0.  0.
        -24    2    5    5    0    0 -0.84524468356E+02  0.20091352044E+03 -0.80249511101E+03  0.83533523040E+03  0.79220676000E+02 0.  0.
          5    1    3    3  501    0  0.91034137278E+02 -0.14780989582E+03 -0.72744343730E+03  0.74788436534E+03  0.47000000000E+01 0. -1.
        -13    1    4    4    0    0  0.24189525927E+02 -0.59661980949E+02 -0.89057630496E+02  0.10989061236E+03  0.00000000000E+00 0.  1.
         14    1    4    4    0    0  0.32944508177E+02  0.13703454831E+02 -0.11313561418E+03  0.11862880126E+03  0.00000000000E+00 0. -1.
         -5    1    5    5    0  502 -0.63643703026E+02 -0.71450985033E+01 -0.35242209131E+03  0.35822478112E+03  0.47000000000E+01 0.  1.
         13    1    6    6    0    0 -0.75439408255E+02  0.93052183253E+02 -0.34485460211E+03  0.36506781523E+03  0.00000000000E+00 0. -1.
        -14    1    6    6    0    0 -0.90850601010E+01  0.10786133718E+03 -0.45764050891E+03  0.47026741517E+03  0.00000000000E+00 0.  1.
</event>
<event>
12    1  0.1066489E+000  0.2187280E+03  0.7818608E-02  0.1137803E+00
         21   -1    0    0  501  502  0.00000000000E+00  0.00000000000E+00  0.82873725754E+02  0.82873725754E+02  0.00000000000E+00 0.  1.
         21   -1    0    0  502  503 -0.00000000000E+00 -0.00000000000E+00 -0.54460316498E+03  0.54460316498E+03  0.00000000000E+00 0.  1.
         -6    2    1    2    0  503 -0.11207416499E+03 -0.27058745662E+02 -0.20414679627E+03  0.29919534929E+03  0.18587401226E+03 0.  0.
        -24    2    3    3    0    0 -0.63812337611E+02 -0.75016904895E+02 -0.19193465312E+03  0.22991031874E+03  0.79500271321E+02 0.  0.
          6    2    1    2  501    0  0.11207416499E+03  0.27058745662E+02 -0.25758264296E+03  0.32828154145E+03  0.16771153308E+03 0.  0.
         24    2    5    5    0    0 -0.63762842224E+01 -0.44518020857E+00 -0.78627398029E+02  0.11186979374E+03  0.79320412539E+02 0.  0.
          5    1    5    5  501    0  0.11845044921E+03  0.27503925870E+02 -0.17895524493E+03  0.21641174770E+03  0.47000000000E+01 0. -1.
        -13    1    6    6    0    0  0.10508877998E+02  0.32718260655E+02 -0.13622474339E+02  0.36966104801E+02  0.00000000000E+00 0.  1.
         14    1    6    6    0    0 -0.16885162220E+02 -0.33163440864E+02 -0.65004923689E+02  0.74903688941E+02  0.00000000000E+00 0. -1.
         -5    1    3    3    0  503 -0.48261827378E+02  0.47958159233E+02 -0.12212143149E+02  0.69285030556E+02  0.47000000000E+01 0.  1.
         11    1    4    4    0    0 -0.67736194953E+02 -0.23247796370E+02 -0.13527098408E+03  0.15305845706E+03  0.00000000000E+00 0. -1.
        -12    1    4    4    0    0  0.39238573420E+01 -0.51769108525E+02 -0.56663669041E+02  0.76851861676E+02  0.00000000000E+00 0.  1.
</event>
<event>
12    1  0.1066489E+000  0.2240260E+03  0.7818608E-02  0.1131231E+00
         21   -1    0    0  503  502  0.00000000000E+00  0.00000000000E+00  0.49736037198E+02  0.49736037198E+02  0.00000000000E+00 0.  1.
         21   -1    0    0  501  503 -0.00000000000E+00 -0.00000000000E+00 -0.10291245299E+04  0.10291245299E+04  0.00000000000E+00 0. -1.
          6    2    1    2  501    0  0.45845279358E+02  0.13518966161E+03 -0.40292321484E+03  0.46101492761E+03  0.17265460369E+03 0.  0.
         24    2    3    3    0    0 -0.40398887691E+02  0.48797248324E+02 -0.20207974076E+03  0.22593643752E+03  0.78726174820E+02 0.  0.
         -6    2    1    2    0  502 -0.45845279358E+02 -0.13518966161E+03 -0.57646527791E+03  0.61784563953E+03  0.17042002057E+03 0.  0.
        -24    2    5    5    0    0 -0.58235723800E+02 -0.16092284621E+03 -0.53452488729E+03  0.56688677114E+03  0.79725743657E+02 0.  0.
          5    1    3    3  501    0  0.86244167049E+02  0.86392413284E+02 -0.20084347408E+03  0.23507849009E+03  0.47000000000E+01 0. -1.
        -11    1    4    4    0    0  0.12459814738E+02  0.71568972993E+01 -0.15911829934E+01  0.14456833179E+02  0.00000000000E+00 0.  1.
         12    1    4    4    0    0 -0.52858702429E+02  0.41640351025E+02 -0.20048855777E+03  0.21147960434E+03  0.00000000000E+00 0. -1.
         -5    1    5    5    0  502  0.12390444442E+02  0.25733184597E+02 -0.41940390615E+02  0.50958868393E+02  0.47000000000E+01 0.  1.
         11    1    6    6    0    0 -0.25630311354E+02 -0.31092767338E+02 -0.24012741683E+03  0.24348480313E+03  0.00000000000E+00 0. -1.
        -12    1    6    6    0    0 -0.32605412446E+02 -0.12983007887E+03 -0.29439747046E+03  0.32340196801E+03  0.00000000000E+00 0.  1.
</event>
<event>
12    1  0.1066489E+000  0.3934572E+03  0.7818608E-02  0.1046199E+00
         21   -1    0    0  503  502  0.00000000000E+00  0.00000000000E+00  0.48131839368E+03  0.48131839368E+03  0.00000000000E+00 0. -1.
         21   -1    0    0  501  503 -0.00000000000E+00 -0.00000000000E+00 -0.38800786953E+03  0.38800786953E+03  0.00000000000E+00 0. -1.
          6    2    1    2  501    0  0.26736994804E+03  0.22965062193E+03  0.22796866250E+03  0.45346403846E+03  0.17156289176E+03 0.  0.
         24    2    3    3    0    0  0.25116149940E+03  0.15153200889E+03  0.13944473734E+03  0.33420043615E+03  0.78746734878E+02 0.  0.
         -6    2    1    2    0  502 -0.26736994804E+03 -0.22965062193E+03 -0.13465813835E+03  0.41586222475E+03  0.17487846774E+03 0.  0.
        -24    2    5    5    0    0 -0.94796109290E+02 -0.14726481075E+03 -0.18845572830E+02  0.19224694791E+03  0.77009782111E+02 0.  0.
          5    1    3    3  501    0  0.16208448641E+02  0.78118613038E+02  0.88523925158E+02  0.11926360231E+03  0.47000000000E+01 0. -1.
        -13    1    4    4    0    0  0.21472722894E+03  0.12064903141E+03  0.14548305077E+03  0.28605819284E+03  0.00000000000E+00 0.  1.
         14    1    4    4    0    0  0.36434270459E+02  0.30882977479E+02 -0.60383134359E+01  0.48142243311E+02  0.00000000000E+00 0. -1.
         -5    1    5    5    0  502 -0.17257383875E+03 -0.82385811175E+02 -0.11581256552E+03  0.22361527684E+03  0.47000000000E+01 0.  1.
         13    1    6    6    0    0 -0.12774623127E+02 -0.91767824462E+01  0.21506572648E+02  0.26644642973E+02  0.00000000000E+00 0. -1.
        -14    1    6    6    0    0 -0.82021486162E+02 -0.13808802831E+03 -0.40352145478E+02  0.16560230493E+03  0.00000000000E+00 0.  1.
</event>
<event>
12    1  0.1066489E+000  0.1821072E+03  0.7818608E-02  0.1166937E+00
         21   -1    0    0  501  502  0.00000000000E+00  0.00000000000E+00  0.61143941255E+02  0.61143941255E+02  0.00000000000E+00 0. -1.
         21   -1    0    0  502  503 -0.00000000000E+00 -0.00000000000E+00 -0.52880034162E+03  0.52880034162E+03  0.00000000000E+00 0. -1.
         -6    2    1    2    0  503  0.43979715241E+02 -0.68281107995E-01 -0.24682037998E+03  0.30673008950E+03  0.17671680117E+03 0.  0.
        -24    2    3    3    0    0  0.60868593767E+02 -0.51176749110E+01 -0.26339539767E+03  0.28208152347E+03  0.80384538735E+02 0.  0.
          6    2    1    2  501    0 -0.43979715241E+02  0.68281107995E-01 -0.22083602039E+03  0.28321419338E+03  0.17177750556E+03 0.  0.
         24    2    5    5    0    0 -0.20063637182E+02  0.80642027905E+01 -0.23432562391E+03  0.25423190644E+03  0.96217375406E+02 0.  0.
          5    1    5    5  501    0 -0.23916078058E+02 -0.79959216825E+01  0.13489603515E+02  0.28982286939E+02  0.47000000000E+01 0. -1.
        -13    1    6    6    0    0 -0.32742187228E+02  0.38754570998E+02 -0.20054692275E+03  0.20686477666E+03  0.00000000000E+00 0.  1.
         14    1    6    6    0    0  0.12678550046E+02 -0.30690368207E+02 -0.33778701155E+02  0.47367129781E+02  0.00000000000E+00 0. -1.
         -5    1    3    3    0  503 -0.16888878526E+02  0.50493938031E+01  0.16575017692E+02  0.24648566026E+02  0.47000000000E+01 0.  1.
         11    1    4    4    0    0 -0.11136231137E+02  0.21235513506E+02 -0.53813389923E+02  0.58913866049E+02  0.00000000000E+00 0. -1.
        -12    1    4    4    0    0  0.72004824904E+02 -0.26353188417E+02 -0.20958200775E+03  0.22316765742E+03  0.00000000000E+00 0.  1.
</event>
<event>
12    1  0.1066489E+000  0.2451821E+03  0.7818608E-02  0.1116835E+00
         21   -1    0    0  503  502  0.00000000000E+00  0.00000000000E+00  0.40582795754E+03  0.40582795754E+03  0.00000000000E+00 0.  1.
         21   -1    0    0  501  503 -0.00000000000E+00 -0.00000000000E+00 -0.16811898707E+03  0.16811898707E+03  0.00000000000E+00 0.  1.
          6    2    1    2  501    0  0.25478208155E+02  0.16891436870E+03  0.22239969241E+03  0.33102248745E+03  0.17587797181E+03 0.  0.
         24    2    3    3    0    0  0.84933402108E+01  0.14694877575E+03  0.24385197105E+03  0.29562102884E+03  0.79132353575E+02 0.  0.
         -6    2    1    2    0  502 -0.25478208155E+02 -0.16891436870E+03  0.15309278069E+02  0.24292445717E+03  0.17203695780E+03 0.  0.
        -24    2    5    5    0    0  0.52337442370E+02 -0.92565171863E+02 -0.87912276658E+00  0.13261294532E+03  0.79233209539E+02 0.  0.
          5    1    3    3  501    0  0.16984867944E+02  0.21965592944E+02 -0.21452278645E+02  0.35401458608E+02  0.47000000000E+01 0. -1.
        -13    1    4    4    0    0 -0.44991461801E+01  0.14010690845E+03  0.17008437808E+03  0.22040617908E+03  0.00000000000E+00 0.  1.
         14    1    4    4    0    0  0.12992486391E+02  0.68418673050E+01  0.73767592972E+02  0.75214849755E+02  0.00000000000E+00 0. -1.
         -5    1    5    5    0  502 -0.77815650525E+02 -0.76349196835E+02  0.16188400836E+02  0.11031151184E+03  0.47000000000E+01 0.  1.
         11    1    6    6    0    0  0.53464168256E+01  0.12829684192E+02  0.93703052861E+01  0.16762684466E+02  0.00000000000E+00 0. -1.
        -12    1    6    6    0    0  0.46991025544E+02 -0.10539485606E+03 -0.10249428053E+02  0.11585026085E+03  0.00000000000E+00 0.  1.
</event>
<event>
12    1  0.1066489E+000  0.2236991E+03  0.7818608E-02  0.1131521E+00
         21   -1    0    0  501  502  0.00000000000E+00  0.00000000000E+00  0.58317131907E+03  0.58317131907E+03  0.00000000000E+00 0. -1.
         21   -1    0    0  502  503 -0.00000000000E+00 -0.00000000000E+00 -0.92534848966E+02  0.92534848966E+02  0.00000000000E+00 0. -1.
         -6    2    1    2    0  503  0.17629535094E+02 -0.14027214418E+03  0.34042592410E+03  0.40625393085E+03  0.17077872112E+03 0.  0.
        -24    2    3    3    0    0  0.41844364163E+02 -0.14101511880E+03  0.18463167331E+03  0.24851728786E+03  0.77690237720E+02 0.  0.
          6    2    1    2  501    0 -0.17629535094E+02  0.14027214418E+03  0.15021054601E+03  0.26945223719E+03  0.17336154434E+03 0.  0.
         24    2    5    5    0    0  0.19099929459E+02  0.14705601218E+03  0.72307028505E+02  0.18292985587E+03  0.79023716519E+02 0.  0.
          5    1    5    5  501    0 -0.36729464554E+02 -0.67838679964E+01  0.77903517501E+02  0.86522381327E+02  0.47000000000E+01 0. -1.
        -11    1    6    6    0    0  0.31614148491E+02  0.68286473921E+02  0.70555563334E+02  0.10315320850E+03  0.00000000000E+00 0.  1.
         12    1    6    6    0    0 -0.12514219032E+02  0.78769538259E+02  0.17514651704E+01  0.79776647372E+02  0.00000000000E+00 0. -1.
         -5    1    3    3    0  503 -0.24214829069E+02  0.74297461705E+00  0.15579425080E+03  0.15773664298E+03  0.47000000000E+01 0.  1.
         13    1    4    4    0    0  0.32377808418E+02 -0.35708761457E+02  0.10697084517E+03  0.11732945001E+03  0.00000000000E+00 0. -1.
        -14    1    4    4    0    0  0.94665557453E+01 -0.10530635734E+03  0.77660828136E+02  0.13118783786E+03  0.00000000000E+00 0.  1.
</event>
<event>
12    1  0.1066489E+000  0.1811570E+03  0.7818608E-02  0.1167051E+00
         21   -1    0    0  503  502  0.00000000000E+00  0.00000000000E+00  0.29371183106E+03  0.29371183106E+03  0.00000000000E+00 0. -1.
         21   -1    0    0  501  503 -0.00000000000E+00 -0.00000000000E+00 -0.17381735600E+03  0.17381735600E+03  0.00000000000E+00 0. -1.
          6    2    1    2  501    0 -0.49986550380E+02 -0.25328518323E+02 -0.80958726606E+02  0.19704839790E+03  0.17068557831E+03 0.  0.
         24    2    3    3    0    0  0.39008757957E+02 -0.15800745871E+02 -0.50118530955E+02  0.10226363635E+03  0.78578861075E+02 0.  0.
         -6    2    1    2    0  502  0.49986550380E+02  0.25328518323E+02  0.20085320166E+03  0.27048078916E+03  0.17227205121E+03 0.  0.
        -24    2    5    5    0    0 -0.35416989832E+02  0.46823923361E+02  0.72673721706E+02  0.11489195216E+03  0.66871876571E+02 0.  0.
          5    1    3    3  501    0 -0.88995308338E+02 -0.95277724520E+01 -0.30840195651E+02  0.94784761549E+02  0.47000000000E+01 0. -1.
        -11    1    4    4    0    0 -0.67497480987E+01  0.25883728568E+02 -0.20164344356E+02  0.33498168417E+02  0.00000000000E+00 0.  1.
         12    1    4    4    0    0  0.45758506056E+02 -0.41684474440E+02 -0.29954186599E+02  0.68765467937E+02  0.00000000000E+00 0. -1.
         -5    1    5    5    0  502  0.85403540212E+02 -0.21495405038E+02  0.12817947995E+03  0.15558883700E+03  0.47000000000E+01 0.  1.
         11    1    6    6    0    0 -0.41671061774E+02  0.50658358146E+02  0.30953773407E+02  0.72531942808E+02  0.00000000000E+00 0. -1.
        -12    1    6    6    0    0  0.62540719420E+01 -0.38344347847E+01  0.41719948299E+02  0.42360009349E+02  0.00000000000E+00 0.  1.
</event>
<event>
12    1  0.1066489E+000  0.2721162E+03  0.7818608E-02  0.1100523E+00
         21   -1    0    0  501  502  0.00000000000E+00  0.00000000000E+00  0.20172260325E+04  0.20172260325E+04  0.00000000000E+00 0.  1.
         21   -1    0    0  502  503 -0.00000000000E+00 -0.00000000000E+00 -0.48047750870E+02  0.48047750870E+02  0.00000000000E+00 0.  1.
         -6    2    1    2    0  503 -0.20595066968E+03  0.15391852481E+02  0.14912150495E+04  0.15152773526E+04  0.17230944232E+03 0.  0.
        -24    2    3    3    0    0 -0.20323862283E+03  0.25410311067E+02  0.99152735775E+03  0.10154597819E+04  0.77977212634E+02 0.  0.
          6    2    1    2  501    0  0.20595066968E+03 -0.15391852481E+02  0.47796323214E+03  0.54999643081E+03  0.17718531303E+03 0.  0.
         24    2    5    5    0    0  0.19300538343E+03  0.47710297961E+01  0.48200149328E+03  0.52524729323E+03  0.79280759109E+02 0.  0.
          5    1    5    5  501    0  0.12945286248E+02 -0.20162882277E+02 -0.40382611331E+01  0.24749137576E+02  0.47000000000E+01 0. -1.
        -11    1    6    6    0    0  0.54095226591E+02  0.35640738874E+02  0.12178265526E+03  0.13794046154E+03  0.00000000000E+00 0.  1.
         12    1    6    6    0    0  0.13891015684E+03 -0.30869709078E+02  0.36021883801E+03  0.38730683169E+03  0.00000000000E+00 0. -1.
         -5    1    3    3    0  503 -0.27120468491E+01 -0.10018458586E+02  0.49968769173E+03  0.49981757070E+03  0.47000000000E+01 0.  1.
         11    1    4    4    0    0 -0.91753478643E+02 -0.25345427848E+02  0.37602067259E+03  0.38788224730E+03  0.00000000000E+00 0. -1.
        -12    1    4    4    0    0 -0.11148514419E+03  0.50755738915E+02  0.61550668516E+03  0.62757753456E+03  0.00000000000E+00 0.  1.
</event>
<event>
12    1  0.1066489E+000  0.2388136E+03  0.7818608E-02  0.1120659E+00
         21   -1    0    0  503  502  0.00000000000E+00  0.00000000000E+00  0.97991302661E+03  0.97991302661E+03  0.00000000000E+00 0.  1.
         21   -1    0    0  501  503 -0.00000000000E+00 -0.00000000000E+00 -0.85880668273E+02  0.85880668273E+02  0.00000000000E+00 0.  1.
          6    2    1    2  501    0 -0.13365196647E+03  0.98083069376E+02  0.14361963564E+03  0.27829691849E+03  0.17128758991E+03 0.  0.
         24    2    3    3    0    0 -0.80287264318E+02  0.24225443786E+02  0.93131842352E+01  0.11592988617E+03  0.79498969606E+02 0.  0.
         -6    2    1    2    0  502  0.13365196647E+03 -0.98083069376E+02  0.75041272269E+03  0.78749677640E+03  0.17189759107E+03 0.  0.
        -24    2    5    5    0    0  0.37184160621E+02 -0.43545193364E+02  0.15930152687E+03  0.18606934660E+03  0.77239754105E+02 0.  0.
          5    1    3    3  501    0 -0.53364702152E+02  0.73857625590E+02  0.13430645141E+03  0.16236703232E+03  0.47000000000E+01 0. -1.
        -13    1    4    4    0    0  0.14112701377E+02 -0.73183874986E+01  0.31653807612E+01  0.16209465478E+02  0.00000000000E+00 0.  1.
         14    1    4    4    0    0 -0.94399965695E+02  0.31543831285E+02  0.61478034739E+01  0.99720420691E+02  0.00000000000E+00 0. -1.
         -5    1    5    5    0  502  0.96467805848E+02 -0.54537876012E+02  0.59111119582E+03  0.60142742980E+03  0.47000000000E+01 0.  1.
         13    1    6    6    0    0  0.19806136227E+02 -0.65339311939E+02  0.11336918873E+03  0.13234077856E+03  0.00000000000E+00 0. -1.
        -14    1    6    6    0    0  0.17378024394E+02  0.21794118575E+02  0.45932338140E+02  0.53728568037E+02  0.00000000000E+00 0.  1.
</event>
<event>
12    1  0.1066489E+000  0.2295468E+03  0.7818608E-02  0.1126972E+00
         21   -1    0    0  503  502  0.00000000000E+00  0.00000000000E+00  0.29775578307E+02  0.29775578307E+02  0.00000000000E+00 0.  1.
         21   -1    0    0  501  503 -0.00000000000E+00 -0.00000000000E+00 -0.18199021836E+04  0.18199021836E+04  0.00000000000E+00 0. -1.
          6    2    1    2  501    0 -0.77467322559E+02 -0.13022409157E+03 -0.74061890998E+03  0.77537611710E+03  0.17243042960E+03 0.  0.
         24    2    3    3    0    0 -0.32580787668E+02 -0.81728039295E+02 -0.66213632487E+03  0.67267132526E+03  0.79506093989E+02 0.  0.
         -6    2    1    2    0  502  0.77467322559E+02  0.13022409157E+03 -0.10495076953E+04  0.10743016448E+04  0.17233142905E+03 0.  0.
        -24    2    5    5    0    0  0.33108430053E+02 -0.59083551994E+01 -0.19006227989E+03  0.20299901857E+03  0.62879682745E+02 0.  0.
          5    1    3    3  501    0 -0.44886534891E+02 -0.48496052271E+02 -0.78482585113E+02  0.10270479184E+03  0.47000000000E+01 0. -1.
        -13    1    4    4    0    0 -0.50242498100E+02 -0.42026301986E+02 -0.25718229465E+03  0.26539263621E+03  0.00000000000E+00 0.  1.
         14    1    4    4    0    0  0.17661710432E+02 -0.39701737308E+02 -0.40495403022E+03  0.40727868905E+03  0.00000000000E+00 0. -1.
         -5    1    5    5    0  502  0.44358892506E+02  0.13613244676E+03 -0.85944541540E+03  0.87130262622E+03  0.47000000000E+01 0.  1.
         11    1    6    6    0    0  0.56429680284E+01 -0.29077472419E+02 -0.12709114742E+03  0.13049713500E+03  0.00000000000E+00 0. -1.
        -12    1    6    6    0    0  0.27465462024E+02  0.23169117220E+02 -0.62971132475E+02  0.72501883576E+02  0.00000000000E+00 0.  1.
</event>
<event>
12    1  0.1066489E+000  0.2137523E+03  0.7818608E-02  0.1138851E+00
         21   -1    0    0  501  502  0.00000000000E+00  0.00000000000E+00  0.16009152133E+03  0.16009152133E+03  0.00000000000E+00 0. -1.
         21   -1    0    0  502  503 -0.00000000000E+00 -0.00000000000E+00 -0.30332159488E+03  0.30332159488E+03  0.00000000000E+00 0. -1.
         -6    2    1    2    0  503  0.29873205160E+02 -0.12094684635E+03 -0.13123329578E+02  0.21415479260E+03  0.17369371142E+03 0.  0.
        -24    2    3    3    0    0  0.47662200305E+02 -0.15403953811E+02 -0.42979380261E+02  0.10293777827E+03  0.78993619596E+02 0.  0.
          6    2    1    2  501    0 -0.29873205160E+02  0.12094684635E+03 -0.13010674397E+03  0.24925832360E+03  0.17228290405E+03 0.  0.
         24    2    5    5    0    0 -0.32892031357E+02  0.14536477035E+03 -0.70253034420E+02  0.18437454389E+03  0.82738633076E+02 0.  0.
          5    1    5    5  501    0  0.30188261964E+01 -0.24417923992E+02 -0.59853709547E+02  0.64883779716E+02  0.47000000000E+01 0. -1.
        -13    1    6    6    0    0 -0.23682502398E+02  0.14121263611E+03 -0.84988997577E+02  0.16650825573E+03  0.00000000000E+00 0.  1.
         14    1    6    6    0    0 -0.92095289583E+01  0.41521342362E+01  0.14735963156E+02  0.17866288157E+02  0.00000000000E+00 0. -1.
         -5    1    3    3    0  503 -0.17788995145E+02 -0.10554289254E+03  0.29856050683E+02  0.11121701433E+03  0.47000000000E+01 0.  1.
         13    1    4    4    0    0 -0.16934287729E+02  0.15984286825E+01 -0.30591230802E+02  0.35002121038E+02  0.00000000000E+00 0. -1.
        -14    1    4    4    0    0  0.64596488034E+02 -0.17002382494E+02 -0.12388149459E+02  0.67935657234E+02  0.00000000000E+00 0.  1.
</event>
<event>
12    1  0.1066489E+000  0.2996974E+03  0.7818608E-02  0.1085420E+00
         21   -1    0    0  503  502  0.00000000000E+00  0.00000000000E+00  0.77207066297E+03  0.77207066297E+03  0.00000000000E+00 0.  1.
         21   -1    0    0  501  503 -0.00000000000E+00 -0.00000000000E+00 -0.13981657234E+03  0.13981657234E+03  0.00000000000E+00 0.  1.
          6    2    1    2  501    0 -0.21567762439E+03  0.11730695477E+03  0.12902348503E+03  0.32629063314E+03  0.17187425137E+03 0.  0.
         24    2    3    3    0    0 -0.19182842912E+03  0.97418006214E+02  0.16234041573E+03  0.28050349236E+03  0.77713476902E+02 0.  0.
         -6    2    1    2    0  502  0.21567762439E+03 -0.11730695477E+03  0.50323060559E+03  0.58559660217E+03  0.17147763344E+03 0.  0.
        -24    2    5    5    0    0  0.22599501362E+03 -0.95410399958E+02  0.37662633422E+03  0.45661350575E+03  0.80446301361E+02 0.  0.
          5    1    3    3  501    0 -0.23849195270E+02  0.19888948558E+02 -0.33316930697E+02  0.45787140781E+02  0.47000000000E+01 0. -1.
        -11    1    4    4    0    0 -0.36178328391E+02 -0.25446304916E+01  0.30655612510E+01  0.36397036353E+02  0.00000000000E+00 0.  1.
         12    1    4    4    0    0 -0.15565010073E+03  0.99962636706E+02  0.15927485448E+03  0.24410645600E+03  0.00000000000E+00 0. -1.
         -5    1    5    5    0  502 -0.10317389231E+02 -0.21896554815E+02  0.12660427137E+03  0.12898309642E+03  0.47000000000E+01 0.  1.
         13    1    6    6    0    0  0.14971809924E+03 -0.24248030055E+02  0.19347836189E+03  0.24584009583E+03  0.00000000000E+00 0. -1.
        -14    1    6    6    0    0  0.76276914387E+02 -0.71162369903E+02  0.18314797233E+03  0.21077340992E+03  0.00000000000E+00 0.  1.
</event>
<event>
12    1  0.1066489E+000  0.1863356E+03  0.7818608E-02  0.1161977E+00
         21   -1    0    0  501  502  0.00000000000E+00  0.00000000000E+00  0.59665581457E+02  0.59665581457E+02  0.00000000000E+00 0.  1.
         21   -1    0    0  502  503 -0.00000000000E+00 -0.00000000000E+00 -0.81265885237E+03  0.81265885237E+03  0.00000000000E+00 0.  1.
         -6    2    1    2    0  503  0.41661205988E+02  0.58408900925E+02 -0.14347714762E+03  0.23517366209E+03  0.17197006617E+03 0.  0.
        -24    2    3    3    0    0  0.23993109247E+02 -0.91065912664E+01 -0.14292756930E+03  0.16522442789E+03  0.78817651638E+02 0.  0.
          6    2    1    2  501    0 -0.41661205988E+02 -0.58408900925E+02 -0.60951612329E+03  0.63715077173E+03  0.17118395246E+03 0.  0.
         24    2    5    5    0    0 -0.18365390259E+02 -0.66902541948E+02 -0.60148444435E+03  0.61066615667E+03  0.79475659382E+02 0.  0.
          5    1    5    5  501    0 -0.23295815729E+02  0.84936410228E+01 -0.80316789414E+01  0.26484615061E+02  0.47000000000E+01 0. -1.
        -11    1    6    6    0    0 -0.41816238877E+02 -0.93966979004E+01 -0.27633576375E+03  0.27963967904E+03  0.00000000000E+00 0.  1.
         12    1    6    6    0    0  0.23450848618E+02 -0.57505844047E+02 -0.32514868060E+03  0.33102647763E+03  0.00000000000E+00 0. -1.
         -5    1    3    3    0  503  0.17668096741E+02  0.67515492191E+02 -0.54957831681E+00  0.69949234196E+02  0.47000000000E+01 0.  1.
         13    1    4    4    0    0 -0.26544500394E+02 -0.15495962256E+01 -0.24143568656E+02  0.35915507195E+02  0.00000000000E+00 0. -1.
        -14    1    4    4    0    0  0.50537609641E+02 -0.75569950408E+01 -0.11878400065E+03  0.12930892070E+03  0.00000000000E+00 0.  1.
</event>
<event>
12    1  0.1066489E+000  0.2530095E+03  0.7818608E-02  0.1113270E+00
         21   -1    0    0  501  502  0.00000000000E+00  0.00000000000E+00  0.27902010813E+03  0.27902010813E+03  0.00000000000E+00 0.  1.
         21   -1    0    0  502  503 -0.00000000000E+00 -0.00000000000E+00 -0.28576755054E+03  0.28576755054E+03  0.00000000000E+00 0.  1.
         -6    2    1    2    0  503  0.14341130471E+03 -0.11995066688E+03  0.13302106340E+03  0.28584687040E+03  0.17046661023E+03 0.  0.
        -24    2    3    3    0    0  0.28617019453E+02  0.84242789403E+01  0.41018698932E+02  0.90541008450E+02  0.75001588457E+02 0.  0.
          6    2    1    2  501    0 -0.14341130471E+03  0.11995066688E+03 -0.13976850580E+03  0.27894078828E+03  0.15270154991E+03 0.  0.
         24    2    5    5    0    0 -0.14557692402E+03  0.76335502708E+02 -0.14754536889E+03  0.23433650538E+03  0.78257345294E+02 0.  0.
          5    1    5    5  501    0  0.21656193066E+01  0.43615164177E+02  0.77768630891E+01  0.44604282896E+02  0.47000000000E+01 0. -1.
        -13    1    6    6    0    0 -0.19354640231E+02 -0.16433098851E+02 -0.21749051556E+02  0.33431573099E+02  0.00000000000E+00 0.  1.
         14    1    6    6    0    0 -0.12622228379E+03  0.92768601559E+02 -0.12579631733E+03  0.20090493228E+03  0.00000000000E+00 0. -1.
         -5    1    3    3    0  503  0.11479428526E+03 -0.12837494582E+03  0.92002364464E+02  0.19530586195E+03  0.47000000000E+01 0.  1.
         11    1    4    4    0    0  0.10640466583E+01  0.11863922221E+02  0.57183954286E+02  0.58411381370E+02  0.00000000000E+00 0. -1.
        -12    1    4    4    0    0  0.27552972794E+02 -0.34396432803E+01 -0.16165255353E+02  0.32129627081E+02  0.00000000000E+00 0.  1.
</event>
<event>
12    1  0.1066489E+000  0.2471158E+03  0.7818608E-02  0.1115151E+00
         21   -1    0    0  503  502  0.00000000000E+00  0.00000000000E+00  0.58254338876E+03  0.58254338876E+03  0.00000000000E+00 0.  1.
         21   -1    0    0  501  503 -0.00000000000E+00 -0.00000000000E+00 -0.11062880575E+03  0.11062880575E+03  0.00000000000E+00 0.  1.
          6    2    1    2  501    0 -0.12399412530E+03  0.12568579315E+03  0.15637382368E+03  0.29238276690E+03  0.17281043932E+03 0.  0.
         24    2    3    3    0    0 -0.23491453395E+02  0.11508045205E+03  0.11630289486E+03  0.18356627156E+03  0.79842682038E+02 0.  0.
         -6    2    1    2    0  502  0.12399412530E+03 -0.12568579315E+03  0.31554075933E+03  0.40078942761E+03  0.17290093343E+03 0.  0.
        -24    2    5    5    0    0  0.15063920885E+03 -0.69567940144E+02  0.23703005504E+03  0.30056370940E+03  0.81384438806E+02 0.  0.
          5    1    3    3  501    0 -0.10050267191E+03  0.10605341095E+02  0.40070928823E+02  0.10881649533E+03  0.47000000000E+01 0. -1.
        -11    1    4    4    0    0 -0.11073054690E+02  0.47719852185E+02  0.46191320142E+00  0.48989898924E+02  0.00000000000E+00 0.  1.
         12    1    4    4    0    0 -0.12418398705E+02  0.67360599868E+02  0.11584098166E+03  0.13457637264E+03  0.00000000000E+00 0. -1.
         -5    1    5    5    0  502 -0.26645083546E+02 -0.56117853004E+02  0.78510704291E+02  0.10022571821E+03  0.47000000000E+01 0.  1.
         11    1    6    6    0    0  0.13553093746E+03 -0.85050047878E+02  0.18734900463E+03  0.24637734309E+03  0.00000000000E+00 0. -1.
        -12    1    6    6    0    0  0.15108271383E+02  0.15482107734E+02  0.49681050404E+02  0.54186366305E+02  0.00000000000E+00 0.  1.
</event>
<event>
12    1  0.1066489E+000  0.2244668E+03  0.7818608E-02  0.1130773E+00
         21   -1    0    0  501  502  0.00000000000E+00  0.00000000000E+00  0.34014805928E+03  0.34014805928E+03  0.00000000000E+00 0. -1.
         21   -1    0    0  502  503 -0.00000000000E+00 -0.00000000000E+00 -0.27997239302E+03  0.27997239302E+03  0.00000000000E+00 0. -1.
         -6    2    1    2    0  503 -0.14031974501E+03  0.23670549594E+02 -0.18316747002E+03  0.28971656102E+03  0.17359561601E+03 0.  0.
        -24    2    3    3    0    0 -0.60656931556E+02 -0.39793885427E+02 -0.42730896982E+02  0.11616996956E+03  0.80041961547E+02 0.  0.
          6    2    1    2  501    0  0.14031974501E+03 -0.23670549594E+02  0.24334313629E+03  0.33040389127E+03  0.17233955911E+03 0.  0.
         24    2    5    5    0    0  0.22547148282E+01 -0.56006701710E+01  0.70824767764E+02  0.10865369267E+03  0.82176796952E+02 0.  0.
          5    1    5    5  501    0  0.13806503018E+03 -0.18069879423E+02  0.17251836852E+03  0.22175019860E+03  0.47000000000E+01 0. -1.
        -13    1    6    6    0    0  0.40498335182E+02 -0.11955605502E+02  0.46850808111E+02  0.63071783518E+02  0.00000000000E+00 0.  1.
         14    1    6    6    0    0 -0.38243620354E+02  0.63549353310E+01  0.23973959653E+02  0.45581909155E+02  0.00000000000E+00 0. -1.
         -5    1    3    3    0  503 -0.79662813451E+02  0.63464435020E+02 -0.14043657304E+03  0.17354659146E+03  0.47000000000E+01 0.  1.
         11    1    4    4    0    0 -0.18779459749E+02  0.20177504088E+02  0.60885861167E+01  0.28228897616E+02  0.00000000000E+00 0. -1.
        -12    1    4    4    0    0 -0.41877471808E+02 -0.59971389515E+02 -0.48819483098E+02  0.87941071948E+02  0.00000000000E+00 0.  1.
</event>
<event>
12    1  0.1066489E+000  0.2733125E+03  0.7818608E-02  0.1099418E+00
         21   -1    0    0  503  502  0.00000000000E+00  0.00000000000E+00  0.29649406115E+03  0.29649406115E+03  0.00000000000E+00 0. -1.
         21   -1    0    0  501  503 -0.00000000000E+00 -0.00000000000E+00 -0.32350837431E+03  0.32350837431E+03  0.00000000000E+00 0. -1.
          6    2    1    2  501    0 -0.73435346878E+02 -0.19899022359E+03  0.13242146003E+03  0.30370239997E+03  0.17236544148E+03 0.  0.
         24    2    3    3    0    0  0.29242519751E+02 -0.82543598576E+02  0.30662305762E+02  0.11801563079E+03  0.72931073543E+02 0.  0.
         -6    2    1    2    0  502  0.73435346878E+02  0.19899022359E+03 -0.15943577319E+03  0.31630003548E+03  0.17215135032E+03 0.  0.
        -24    2    5    5    0    0  0.74112933977E+02  0.48918310032E+02 -0.97419699732E+02  0.15384966850E+03  0.79330918082E+02 0.  0.
          5    1    3    3  501    0 -0.10267786663E+03 -0.11644662502E+03  0.10175915426E+03  0.18568676918E+03  0.47000000000E+01 0. -1.
        -13    1    4    4    0    0  0.49159352861E+01  0.13568484383E+02  0.71833161373E+00  0.14449435577E+02  0.00000000000E+00 0.  1.
         14    1    4    4    0    0  0.24326584465E+02 -0.96112082959E+02  0.29943974148E+02  0.10356619521E+03  0.00000000000E+00 0. -1.
         -5    1    5    5    0  502 -0.67758709978E+00  0.15007191356E+03 -0.62016073453E+02  0.16245036698E+03  0.47000000000E+01 0.  1.
         13    1    6    6    0    0  0.41525258283E+02  0.98533880108E+01 -0.93555741067E+02  0.10283050626E+03  0.00000000000E+00 0. -1.
        -14    1    6    6    0    0  0.32587675695E+02  0.39064922021E+02 -0.38639586650E+01  0.51019162245E+02  0.00000000000E+00 0.  1.
</event>
<event>
12    1  0.1066489E+000  0.2665645E+03  0.7818608E-02  0.1103354E+00
         21   -1    0    0  503  502  0.00000000000E+00  0.00000000000E+00  0.54652672202E+03  0.54652672202E+03  0.00000000000E+00 0.  1.
         21   -1    0    0  501  503 -0.00000000000E+00 -0.00000000000E+00 -0.13973276710E+03  0.13973276710E+03  0.00000000000E+00 0.  1.
          6    2    1    2  501    0 -0.20022300728E+03  0.37551928240E+02  0.11125569933E+03  0.28826517602E+03  0.17093736021E+03 0.  0.
         24    2    3    3    0    0 -0.31929296501E+02  0.49311751652E+02 -0.50943893902E+01  0.83276152709E+02  0.58803367086E+02 0.  0.
         -6    2    1    2    0  502  0.20022300728E+03 -0.37551928240E+02  0.29553825559E+03  0.39799431311E+03  0.17192211258E+03 0.  0.
        -24    2    5    5    0    0  0.77712727449E+02 -0.45215910361E+01  0.22933279826E+03  0.25479855751E+03  0.79177394265E+02 0.  0.
          5    1    3    3  501    0 -0.16829371078E+03 -0.11759823413E+02  0.11635008872E+03  0.20498902331E+03  0.47000000000E+01 0. -1.
        -11    1    4    4    0    0 -0.10013884130E+02  0.15068949029E+02  0.26291472308E+02  0.31915397794E+02  0.00000000000E+00 0.  1.
         12    1    4    4    0    0 -0.21915412370E+02  0.34242802623E+02 -0.31385861699E+02  0.51360754915E+02  0.00000000000E+00 0. -1.
         -5    1    5    5    0  502  0.12251027983E+03 -0.33030337203E+02  0.66205457332E+02  0.14319575559E+03  0.47000000000E+01 0.  1.
         13    1    6    6    0    0  0.20207208274E+02 -0.25932694681E+02  0.15481681756E+03  0.15826902072E+03  0.00000000000E+00 0. -1.
        -14    1    6    6    0    0  0.57505519175E+02  0.21411103645E+02  0.74515980691E+02  0.96529536792E+02  0.00000000000E+00 0.  1.
</event>
<event>
12    1  0.1066489E+000  0.2673581E+03  0.7818608E-02  0.1102866E+00
         21   -1    0    0  501  502  0.00000000000E+00  0.00000000000E+00  0.19320400802E+03  0.19320400802E+03  0.00000000000E+00 0.  1.
         21   -1    0    0  502  503 -0.00000000000E+00 -0.00000000000E+00 -0.46308716039E+03  0.46308716039E+03  0.00000000000E+00 0.  1.
         -6    2    1    2    0  503 -0.10515796023E+03 -0.17331280027E+03 -0.28248544359E+03  0.38863626130E+03  0.17362198716E+03 0.  0.
        -24    2    3    3    0    0 -0.52704449924E+00 -0.44672501867E+02 -0.48978778344E+02  0.10220405709E+03  0.77787134914E+02 0.  0.
          6    2    1    2  501    0  0.10515796023E+03  0.17331280027E+03  0.12602291219E+02  0.26765490711E+03  0.17431238689E+03 0.  0.
         24    2    5    5    0    0  0.90243632052E+02  0.16192655876E+03 -0.44980987177E+02  0.20690947410E+03  0.80150593941E+02 0.  0.
          5    1    5    5  501    0  0.14914328177E+02  0.11386241507E+02  0.57583278396E+02  0.60745433009E+02  0.47000000000E+01 0. -1.
        -13    1    6    6    0    0  0.57376555417E+01  0.79229432214E+01 -0.28898511487E+02  0.30509304918E+02  0.00000000000E+00 0.  1.
         14    1    6    6    0    0  0.84505976510E+02  0.15400361554E+03 -0.16082475690E+02  0.17640016919E+03  0.00000000000E+00 0. -1.
         -5    1    3    3    0  503 -0.10463091573E+03 -0.12864029840E+03 -0.23350666524E+03  0.28643220421E+03  0.47000000000E+01 0.  1.
         13    1    4    4    0    0  0.10140086775E+02  0.20879359468E+02 -0.14574327520E+02  0.27407663787E+02  0.00000000000E+00 0. -1.
        -14    1    4    4    0    0 -0.10667131275E+02 -0.65551861335E+02 -0.34404450825E+02  0.74796393300E+02  0.00000000000E+00 0.  1.
</event>
<event>
12    1  0.1066489E+000  0.1957820E+03  0.7818608E-02  0.1153522E+00
         21   -1    0    0  501  502  0.00000000000E+00  0.00000000000E+00  0.30910654489E+03  0.30910654489E+03  0.00000000000E+00 0.  1.
         21   -1    0    0  502  503 -0.00000000000E+00 -0.00000000000E+00 -0.12873472958E+03  0.12873472958E+03  0.00000000000E+00 0.  1.
         -6    2    1    2    0  503  0.61518853684E-01 -0.91385173646E+02  0.45839255428E+02  0.20029211424E+03  0.17223367830E+03 0.  0.
        -24    2    3    3    0    0 -0.43459785436E+02 -0.46266821156E+02 -0.23820971893E+02  0.10646031297E+03  0.82079155979E+02 0.  0.
          6    2    1    2  501    0 -0.61518853684E-01  0.91385173646E+02  0.13453255988E+03  0.23754916023E+03  0.17314543052E+03 0.  0.
         24    2    5    5    0    0 -0.14655525495E+02  0.97988098271E+02  0.16143739080E+03  0.20588619178E+03  0.80688543101E+02 0.  0.
          5    1    5    5  501    0  0.14594006641E+02 -0.66029246258E+01 -0.26904830927E+02  0.31662968443E+02  0.47000000000E+01 0. -1.
        -13    1    6    6    0    0  0.96969467602E+01  0.80812713947E+01 -0.62345246860E+01  0.14078601560E+02  0.00000000000E+00 0.  1.
         14    1    6    6    0    0 -0.24352472255E+02  0.89906826877E+02  0.16767191549E+03  0.19180759022E+03  0.00000000000E+00 0. -1.
         -5    1    3    3    0  503  0.43521304290E+02 -0.45118352490E+02  0.69660227321E+02  0.93831801266E+02  0.47000000000E+01 0.  1.
         13    1    4    4    0    0 -0.16641945765E+02 -0.18878971552E+02 -0.52744442517E+02  0.58440962878E+02  0.00000000000E+00 0. -1.
        -14    1    4    4    0    0 -0.26817839671E+02 -0.27387849604E+02  0.28923470624E+02  0.48019350094E+02  0.00000000000E+00 0.  1.
</event>
<event>
12    1  0.1066489E+000  0.2048667E+03  0.7818608E-02  0.1146176E+00
         21   -1    0    0  501  502  0.00000000000E+00  0.00000000000E+00  0.41375927389E+02  0.41375927389E+02  0.00000000000E+00 0.  1.
         21   -1    0    0  502  503 -0.00000000000E+00 -0.00000000000E+00 -0.10825920609E+04  0.10825920609E+04  0.00000000000E+00 0.  1.
         -6    2    1    2    0  503  0.10414918100E+03  0.24163616652E+02 -0.36535564297E+03  0.41774014928E+03  0.17202079584E+03 0.  0.
        -24    2    3    3    0    0 -0.50387505802E+01  0.36975812175E+02 -0.18114151195E+03  0.20316360624E+03  0.84086882777E+02 0.  0.
          6    2    1    2  501    0 -0.10414918100E+03 -0.24163616652E+02 -0.67586049051E+03  0.70622783898E+03  0.17475533079E+03 0.  0.
         24    2    5    5    0    0 -0.69772757779E+02 -0.84042505565E+02 -0.41846419739E+03  0.43969048414E+03  0.79272043470E+02 0.  0.
          5    1    5    5  501    0 -0.34376423224E+02  0.59878888913E+02 -0.25739629312E+03  0.26653735484E+03  0.47000000000E+01 0. -1.
        -13    1    6    6    0    0  0.17588441442E+02 -0.13514656905E+02 -0.55916299314E+02  0.60155064230E+02  0.00000000000E+00 0.  1.
         14    1    6    6    0    0 -0.87361199221E+02 -0.70527848660E+02 -0.36254789808E+03  0.37953541991E+03  0.00000000000E+00 0. -1.
         -5    1    3    3    0  503  0.10918793158E+03 -0.12812195523E+02 -0.18421413102E+03  0.21457654304E+03  0.47000000000E+01 0.  1.
         13    1    4    4    0    0  0.25542896178E+02  0.98746711458E+01 -0.14810981856E+03  0.15062027430E+03  0.00000000000E+00 0. -1.
        -14    1    4    4    0    0 -0.30581646758E+02  0.27101141029E+02 -0.33031693395E+02  0.52543331947E+02  0.00000000000E+00 0.  1.
</event>
<event>
12    1  0.1066489E+000  0.1957491E+03  0.7818608E-02  0.1153422E+00
         21   -1    0    0  501  502  0.00000000000E+00  0.00000000000E+00  0.14721414123E+03  0.14721414123E+03  0.00000000000E+00 0.  1.
         21   -1    0    0  502  503 -0.00000000000E+00 -0.00000000000E+00 -0.38250615432E+03  0.38250615432E+03  0.00000000000E+00 0.  1.
         -6    2    1    2    0  503 -0.91301097231E+02  0.22121478662E+02 -0.26757949892E+03  0.33153658078E+03  0.17173370659E+03 0.  0.
        -24    2    3    3    0    0 -0.28025823001E+02  0.51623114709E+02 -0.72254315826E+02  0.12405616241E+03  0.81968607090E+02 0.  0.
          6    2    1    2  501    0  0.91301097231E+02 -0.22121478662E+02  0.32287485822E+02  0.19818371478E+03  0.17149067872E+03 0.  0.
         24    2    5    5    0    0 -0.11460198748E+02 -0.21153359250E+02  0.44553731823E+02  0.94581726391E+02  0.79886589518E+02 0.  0.
          5    1    5    5  501    0  0.10276129598E+03 -0.96811941223E+00 -0.12266246001E+02  0.10360198839E+03  0.47000000000E+01 0. -1.
        -13    1    6    6    0    0  0.33551838301E+02 -0.15646253563E+02  0.27566637026E+02  0.46156804274E+02  0.00000000000E+00 0.  1.
         14    1    6    6    0    0 -0.45012037049E+02 -0.55071056865E+01  0.16987094798E+02  0.48424922117E+02  0.00000000000E+00 0. -1.
         -5    1    3    3    0  503 -0.63275274231E+02 -0.29501636047E+02 -0.19532518309E+03  0.20748041837E+03  0.47000000000E+01 0.  1.
         11    1    4    4    0    0 -0.41011116854E+02  0.59398902476E+02 -0.79411214202E+02  0.10731394253E+03  0.00000000000E+00 0. -1.
        -12    1    4    4    0    0  0.12985293854E+02 -0.77757877680E+01  0.71568983760E+01  0.16742219872E+02  0.00000000000E+00 0.  1.
</event>
<event>
12    1  0.1066489E+000  0.3269905E+03  0.7818608E-02  0.1072587E+00
         21   -1    0    0  503  502  0.00000000000E+00  0.00000000000E+00  0.67366481656E+03  0.67366481656E+03  0.00000000000E+00 0. -1.
         21   -1    0    0  501  503 -0.00000000000E+00 -0.00000000000E+00 -0.23904500956E+03  0.23904500956E+03  0.00000000000E+00 0. -1.
          6    2    1    2  501    0 -0.10726684721E+03 -0.25554817005E+03  0.48242065660E+03  0.58224390262E+03  0.17166021230E+03 0.  0.
         24    2    3    3    0    0 -0.26844166091E+02 -0.22049566932E+03  0.37610628247E+03  0.44432609523E+03  0.81429685908E+02 0.  0.
         -6    2    1    2    0  502  0.10726684721E+03  0.25554817005E+03 -0.47800849597E+02  0.33046592350E+03  0.17352740892E+03 0.  0.
        -24    2    5    5    0    0  0.39381866063E+02  0.10211700675E+03 -0.83348200133E+02  0.15889903664E+03  0.79518343399E+02 0.  0.
          5    1    3    3  501    0 -0.80422681124E+02 -0.35052500734E+02  0.10631437413E+03  0.13791780738E+03  0.47000000000E+01 0. -1.
        -11    1    4    4    0    0  0.19559096265E+02 -0.31206554190E+02  0.98308366733E+02  0.10498067556E+03  0.00000000000E+00 0.  1.
         12    1    4    4    0    0 -0.46403262356E+02 -0.18928911513E+03  0.27779791574E+03  0.33934541967E+03  0.00000000000E+00 0. -1.
         -5    1    5    5    0  502  0.67884981151E+02  0.15343116330E+03  0.35547350536E+02  0.17156688686E+03  0.47000000000E+01 0.  1.
         13    1    6    6    0    0  0.20192229053E+02  0.88128586939E+00 -0.44330463739E+02  0.48720558230E+02  0.00000000000E+00 0. -1.
        -14    1    6    6    0    0  0.19189637011E+02  0.10123572088E+03 -0.39017736394E+02  0.11017847841E+03  0.00000000000E+00 0.  1.
</event>
<event>
12    1  0.1066489E+000  0.1914268E+03  0.7818608E-02  0.1157185E+00
         21   -1    0    0  501  502  0.00000000000E+00  0.00000000000E+00  0.16791985857E+04  0.16791985857E+04  0.00000000000E+00 0.  1.
         21   -1    0    0  502  503 -0.00000000000E+00 -0.00000000000E+00 -0.32047837453E+02  0.32047837453E+02  0.00000000000E+00 0.  1.
         -6    2    1    2    0  503  0.46430062167E+02 -0.69913212786E+02  0.13069051340E+04  0.13208475371E+04  0.17202784377E+03 0.  0.
        -24    2    3    3    0    0  0.34477246138E+02  0.21658810931E+02  0.80939654706E+03  0.81481869464E+03  0.84551464497E+02 0.  0.
          6    2    1    2  501    0 -0.46430062167E+02  0.69913212786E+02  0.34024561425E+03  0.39039888605E+03  0.17204826128E+03 0.  0.
         24    2    5    5    0    0  0.84393603964E+01  0.15248759721E+02  0.28386500648E+03  0.29448372096E+03  0.76404008570E+02 0.  0.
          5    1    5    5  501    0 -0.54869422564E+02  0.54664453065E+02  0.56380607771E+02  0.95915165089E+02  0.47000000000E+01 0. -1.
        -11    1    6    6    0    0 -0.31318779561E+02 -0.79722852018E+01  0.11892555361E+03  0.12323842983E+03  0.00000000000E+00 0.  1.
         12    1    6    6    0    0  0.39758139957E+02  0.23221044923E+02  0.16493945287E+03  0.17124529113E+03  0.00000000000E+00 0. -1.
         -5    1    3    3    0  503  0.11952816029E+02 -0.91572023717E+02  0.49750858696E+03  0.50602884249E+03  0.47000000000E+01 0.  1.
         11    1    4    4    0    0  0.22997957621E+02 -0.78992070784E+01  0.71149001389E+03  0.71190543150E+03  0.00000000000E+00 0. -1.
        -12    1    4    4    0    0  0.11479288518E+02  0.29558018009E+02  0.97906533164E+02  0.10291326314E+03  0.00000000000E+00 0.  1.
</event>
<event>
12    1  0.1066489E+000  0.3332602E+03  0.7818608E-02  0.1070492E+00
         21   -1    0    0  503  502  0.00000000000E+00  0.00000000000E+00  0.38875390399E+03  0.38875390399E+03  0.00000000000E+00 0. -1.
         21   -1    0    0  501  503 -0.00000000000E+00 -0.00000000000E+00 -0.30877305473E+03  0.30877305473E+03  0.00000000000E+00 0.  1.
          6    2    1    2  501    0 -0.14991554484E+02  0.28503206341E+03 -0.67593902790E+02  0.33305381060E+03  0.15775893376E+03 0.  0.
         24    2    3    3    0    0  0.49135181853E+02  0.14879944914E+03 -0.49582391365E+02  0.18133674482E+03  0.76609786117E+02 0.  0.
         -6    2    1    2    0  502  0.14991554484E+02 -0.28503206341E+03  0.14757475204E+03  0.36447314812E+03  0.17203006824E+03 0.  0.
        -24    2    5    5    0    0 -0.43247965145E+02 -0.11493225168E+03  0.32117403949E+02  0.15074837925E+03  0.81324886998E+02 0.  0.
          5    1    3    3  501    0 -0.64126736337E+02  0.13623261428E+03 -0.18011511424E+02  0.15171706578E+03  0.47000000000E+01 0. -1.
        -13    1    4    4    0    0  0.24434714162E+02  0.34110377331E+01 -0.17950290511E+02  0.30510709006E+02  0.00000000000E+00 0.  1.
         14    1    4    4    0    0  0.24700467691E+02  0.14538841140E+03 -0.31632100854E+02  0.15082603581E+03  0.00000000000E+00 0. -1.
         -5    1    5    5    0  502  0.58239519630E+02 -0.17009981174E+03  0.11545734810E+03  0.21372476887E+03  0.47000000000E+01 0.  1.
         13    1    6    6    0    0 -0.28001752006E+02 -0.99378172672E+02  0.56791715878E+02  0.11783640486E+03  0.00000000000E+00 0. -1.
        -14    1    6    6    0    0 -0.15246213139E+02 -0.15554079007E+02 -0.24674311929E+02  0.32911974387E+02  0.00000000000E+00 0.  1.
</event>
<event>
12    1  0.1066489E+000  0.1878201E+03  0.7818608E-02  0.1160565E+00
         21   -1    0    0  501  502  0.00000000000E+00  0.00000000000E+00  0.53454033665E+02  0.53454033665E+02  0.00000000000E+00 0. -1.
         21   -1    0    0  502  503 -0.00000000000E+00 -0.00000000000E+00 -0.74752972607E+03  0.74752972607E+03  0.00000000000E+00 0. -1.
         -6    2    1    2    0  503 -0.19500646254E+01  0.76087662391E+02 -0.20804287584E+03  0.27992301885E+03  0.17111961656E+03 0.  0.
        -24    2    3    3    0    0 -0.36640619138E+02 -0.99008637419E+01 -0.14560773512E+03  0.16804050012E+03  0.74802640868E+02 0.  0.
          6    2    1    2  501    0  0.19500646254E+01 -0.76087662391E+02 -0.48603281657E+03  0.52106074089E+03  0.17170690667E+03 0.  0.
         24    2    5    5    0    0  0.23427534564E+02 -0.11425422260E+03 -0.38919568519E+03  0.41467705771E+03  0.82951214967E+02 0.  0.
          5    1    5    5  501    0 -0.21477469938E+02  0.38166560211E+02 -0.96837131384E+02  0.10638368318E+03  0.47000000000E+01 0. -1.
        -13    1    6    6    0    0  0.46208587845E+02 -0.10874219602E+03 -0.34467126294E+03  0.36436023148E+03  0.00000000000E+00 0.  1.
         14    1    6    6    0    0 -0.22781053281E+02 -0.55120265842E+01 -0.44524422245E+02  0.50316826230E+02  0.00000000000E+00 0. -1.
         -5    1    3    3    0  503  0.34690554512E+02  0.85988526133E+02 -0.62435140716E+02  0.11188251872E+03  0.47000000000E+01 0.  1.
         11    1    4    4    0    0 -0.16229676220E+02 -0.12338730513E+02 -0.14606346746E+03  0.14747943310E+03  0.00000000000E+00 0. -1.
        -12    1    4    4    0    0 -0.20410942918E+02  0.24378667715E+01  0.45573233826E+00  0.20561067024E+02  0.00000000000E+00 0.  1.
</event>
<event>
12    1  0.3380930E+000  0.3313162E+03  0.7818608E-02  0.1070566E+00
         21   -1    0    0  503  502  0.00000000000E+00  0.00000000000E+00  0.13022231605E+04  0.13022231605E+04  0.00000000000E+00 0. -1.
         21   -1    0    0  501  503 -0.00000000000E+00 -0.00000000000E+00 -0.12829291002E+04  0.12829291002E+04  0.00000000000E+00 0. -1.
          6    2    1    2  501    0 -0.67968402795E+02 -0.27439836564E+03  0.12590497096E+04  0.13019126675E+04  0.17278962848E+03 0.  0.
         24    2    3    3    0    0 -0.17723971736E+02 -0.20265349748E+03  0.10796063232E+04  0.11021782241E+04  0.88681708181E+02 0.  0.
         -6    2    1    2    0  502  0.67968402795E+02  0.27439836564E+03 -0.12397556492E+04  0.12832395932E+04  0.17261406961E+03 0.  0.
        -24    2    5    5    0    0  0.22073695602E+02  0.58559990428E+02 -0.29169295852E+03  0.30982422256E+03  0.83604702738E+02 0.  0.
          5    1    3    3  501    0 -0.50244431059E+02 -0.71744868155E+02  0.17944338642E+03  0.19973444342E+03  0.47000000000E+01 0. -1.
        -11    1    4    4    0    0 -0.56947445275E+01 -0.18511154849E+03  0.77463303406E+03  0.79646409395E+03  0.00000000000E+00 0.  1.
         12    1    4    4    0    0 -0.12029227209E+02 -0.17541948994E+02  0.30497328911E+03  0.30571413012E+03  0.00000000000E+00 0. -1.
         -5    1    5    5    0  502  0.45894707193E+02  0.21583837521E+03 -0.94806269069E+03  0.97341537066E+03  0.47000000000E+01 0.  1.
         13    1    6    6    0    0  0.50540426479E+02  0.20818561151E+02 -0.12231126653E+03  0.13396937380E+03  0.00000000000E+00 0. -1.
        -14    1    6    6    0    0 -0.28466730877E+02  0.37741429277E+02 -0.16938169199E+03  0.17585484876E+03  0.00000000000E+00 0.  1.
</event>
<event>
12    1  0.1066489E+000  0.2099235E+03  0.7818608E-02  0.1141815E+00
         21   -1    0    0  503  502  0.00000000000E+00  0.00000000000E+00  0.14482027336E+04  0.14482027336E+04  0.00000000000E+00 0.  1.
         21   -1    0    0  501  503 -0.00000000000E+00 -0.00000000000E+00 -0.30302357634E+02  0.30302357634E+02  0.00000000000E+00 0.  1.
          6    2    1    2  501    0  0.11104566916E+03  0.46459599899E+02  0.72427970617E+03  0.75408816718E+03  0.17198324351E+03 0.  0.
         24    2    3    3    0    0 -0.68450614507E+01  0.48795375306E+02  0.20991168160E+03  0.22635695253E+03  0.68896388660E+02 0.  0.
         -6    2    1    2    0  502 -0.11104566916E+03 -0.46459599899E+02  0.69362066976E+03  0.72441692402E+03  0.17082333337E+03 0.  0.
        -24    2    5    5    0    0 -0.13807850925E+03 -0.63617072259E+02  0.63019306289E+03  0.65321085255E+03  0.80176772004E+02 0.  0.
          5    1    3    3  501    0  0.11789073061E+03 -0.23357754071E+01  0.51436802457E+03  0.52773121464E+03  0.47000000000E+01 0. -1.
        -13    1    4    4    0    0 -0.35540013930E+02  0.39852427997E+02  0.15206570244E+03  0.16116850333E+03  0.00000000000E+00 0.  1.
         14    1    4    4    0    0  0.28694952479E+02  0.89429473083E+01  0.57845979157E+02  0.65188449199E+02  0.00000000000E+00 0. -1.
         -5    1    5    5    0  502  0.27032840093E+02  0.17157472361E+02  0.63427606871E+02  0.71206071473E+02  0.47000000000E+01 0.  1.
         11    1    6    6    0    0 -0.46280166722E+02 -0.52249120709E+02  0.16923755760E+03  0.18306604095E+03  0.00000000000E+00 0. -1.
        -12    1    6    6    0    0 -0.91798342533E+02 -0.11367951550E+02  0.46095550529E+03  0.47014481159E+03  0.00000000000E+00 0.  1.
</event>
<event>
12    1  0.1066489E+000  0.2061839E+03  0.7818608E-02  0.1144918E+00
         21   -1    0    0  501  502  0.00000000000E+00  0.00000000000E+00  0.61726938428E+03  0.61726938428E+03  0.00000000000E+00 0. -1.
         21   -1    0    0  502  503 -0.00000000000E+00 -0.00000000000E+00 -0.70426472976E+02  0.70426472976E+02  0.00000000000E+00 0. -1.
         -6    2    1    2    0  503  0.16419070944E+02  0.11258952203E+03  0.33096754451E+03  0.38917619461E+03  0.17021342065E+03 0.  0.
        -24    2    3    3    0    0  0.41479743836E+02  0.13791990627E+03  0.23747462901E+03  0.28901292320E+03  0.79948737694E+02 0.  0.
          6    2    1    2  501    0 -0.16419070944E+02 -0.11258952203E+03  0.21587536680E+03  0.29851966264E+03  0.17194716815E+03 0.  0.
         24    2    5    5    0    0 -0.28770343971E+02 -0.74344940931E+02  0.22998214890E+03  0.25566767051E+03  0.78225737419E+02 0.  0.
          5    1    5    5  501    0  0.12351273028E+02 -0.38244581101E+02 -0.14106782105E+02  0.42851992140E+02  0.47000000000E+01 0. -1.
        -11    1    6    6    0    0 -0.34735625520E+02 -0.27306704725E+02  0.39150437924E+02  0.59033690321E+02  0.00000000000E+00 0.  1.
         12    1    6    6    0    0  0.59652815489E+01 -0.47038236206E+02  0.19083171098E+03  0.19663398018E+03  0.00000000000E+00 0. -1.
         -5    1    3    3    0  503 -0.25060672892E+02 -0.25330384235E+02  0.93492915499E+02  0.10016327141E+03  0.47000000000E+01 0.  1.
         13    1    4    4    0    0  0.11378887362E+02 -0.49253602459E+01  0.49394044412E+02  0.50926514455E+02  0.00000000000E+00 0. -1.
        -14    1    4    4    0    0  0.30100856474E+02  0.14284526651E+03  0.18808058459E+03  0.23808640874E+03  0.00000000000E+00 0.  1.
</event>
<event>
12    1  0.1066489E+000  0.2641784E+03  0.7818608E-02  0.1104710E+00
         21   -1    0    0  501  502  0.00000000000E+00  0.00000000000E+00  0.57814765355E+03  0.57814765355E+03  0.00000000000E+00 0.  1.
         21   -1    0    0  502  503 -0.00000000000E+00 -0.00000000000E+00 -0.14118057253E+03  0.14118057253E+03  0.00000000000E+00 0.  1.
         -6    2    1    2    0  503  0.40983591181E+02  0.19514913244E+03  0.35583551754E+03  0.44297241253E+03  0.17275069922E+03 0.  0.
        -24    2    3    3    0    0 -0.21749110233E+01  0.31213483521E+02  0.71073710794E+02  0.11153775852E+03  0.80063646041E+02 0.  0.
          6    2    1    2  501    0 -0.40983591181E+02 -0.19514913244E+03  0.81131563483E+02  0.27635581355E+03  0.17328406289E+03 0.  0.
         24    2    5    5    0    0  0.45446692892E+02 -0.88313563093E+02  0.56325509005E+02  0.13663658359E+03  0.75048688786E+02 0.  0.
          5    1    5    5  501    0 -0.86430284073E+02 -0.10683556935E+03  0.24806054478E+02  0.13971922996E+03  0.47000000000E+01 0. -1.
        -13    1    6    6    0    0  0.52952073577E+02 -0.69848810037E+02  0.12560923808E+02  0.88546909413E+02  0.00000000000E+00 0.  1.
         14    1    6    6    0    0 -0.75053806851E+01 -0.18464753056E+02  0.43764585197E+02  0.48089674174E+02  0.00000000000E+00 0. -1.
         -5    1    3    3    0  503  0.43158502205E+02  0.16393564892E+03  0.28476180675E+03  0.33143465401E+03  0.47000000000E+01 0.  1.
         11    1    4    4    0    0 -0.30473153689E+02  0.42501372307E+02  0.58799900002E+02  0.78691854623E+02  0.00000000000E+00 0. -1.
        -12    1    4    4    0    0  0.28298242666E+02 -0.11287888786E+02  0.12273810793E+02  0.32845903894E+02  0.00000000000E+00 0.  1.
</event>
<event>
12    1  0.1066489E+000  0.2062933E+03  0.7818608E-02  0.1144541E+00
         21   -1    0    0  503  502  0.00000000000E+00  0.00000000000E+00  0.34367216849E+02  0.34367216849E+02  0.00000000000E+00 0. -1.
         21   -1    0    0  501  503 -0.00000000000E+00 -0.00000000000E+00 -0.15286680299E+04  0.15286680299E+04  0.00000000000E+00 0. -1.
          6    2    1    2  501    0  0.84420293188E+02  0.78385287004E+02 -0.40641399452E+03  0.45576172265E+03  0.17110047859E+03 0.  0.
         24    2    3    3    0    0  0.14734531397E+02 -0.38511427366E+01 -0.10357840089E+03  0.13428011736E+03  0.84087615449E+02 0.  0.
         -6    2    1    2    0  502 -0.84420293188E+02 -0.78385287004E+02 -0.10878868186E+04  0.11072735241E+04  0.17113120144E+03 0.  0.
        -24    2    5    5    0    0  0.20293894289E+02 -0.48967876170E+02 -0.49575276617E+03  0.50521433175E+03  0.81615077036E+02 0.  0.
          5    1    3    3  501    0  0.69685761791E+02  0.82236429740E+02 -0.30283559363E+03  0.32148160529E+03  0.47000000000E+01 0. -1.
        -11    1    4    4    0    0  0.26620233513E+02  0.27505278358E+02 -0.17866663045E+02  0.42242097701E+02  0.00000000000E+00 0.  1.
         12    1    4    4    0    0 -0.11885702116E+02 -0.31356421094E+02 -0.85711737846E+02  0.92038019662E+02  0.00000000000E+00 0. -1.
         -5    1    5    5    0  502 -0.10471418748E+03 -0.29417410834E+02 -0.59213405239E+03  0.60205919238E+03  0.47000000000E+01 0.  1.
         11    1    6    6    0    0 -0.82397377172E+01 -0.23895338066E+02 -0.36522851037E+02  0.44416203201E+02  0.00000000000E+00 0. -1.
        -12    1    6    6    0    0  0.28533632006E+02 -0.25072538104E+02 -0.45922991513E+03  0.46079812855E+03  0.00000000000E+00 0.  1.
</event>
<event>
12    1  0.1066489E+000  0.2060030E+03  0.7818608E-02  0.1144793E+00
         21   -1    0    0  501  502  0.00000000000E+00  0.00000000000E+00  0.42213249180E+03  0.42213249180E+03  0.00000000000E+00 0.  1.
         21   -1    0    0  502  503 -0.00000000000E+00 -0.00000000000E+00 -0.10118528293E+03  0.10118528293E+03  0.00000000000E+00 0.  1.
         -6    2    1    2    0  503  0.57055463328E+01  0.11184787576E+03  0.13862206062E+03  0.24830086262E+03  0.17290096043E+03 0.  0.
        -24    2    3    3    0    0 -0.54350067095E+02  0.99885457520E+02  0.11904252162E+03  0.18383983175E+03  0.81822535804E+02 0.  0.
          6    2    1    2  501    0 -0.57055463328E+01 -0.11184787576E+03  0.18232514825E+03  0.27501691211E+03  0.17276962028E+03 0.  0.
         24    2    5    5    0    0  0.16051325075E+02 -0.10945187512E+03  0.58177242615E+02  0.14886662576E+03  0.80866078821E+02 0.  0.
          5    1    5    5  501    0 -0.21756871408E+02 -0.23960006390E+01  0.12414790564E+03  0.12615028635E+03  0.47000000000E+01 0. -1.
        -13    1    6    6    0    0  0.93000902609E+01  0.82848612613E+01 -0.68312233541E+01  0.14205499551E+02  0.00000000000E+00 0.  1.
         14    1    6    6    0    0  0.67512348144E+01 -0.11773673638E+03  0.65008465969E+02  0.13466112621E+03  0.00000000000E+00 0. -1.
         -5    1    3    3    0  503  0.60055613428E+02  0.11962418236E+02  0.19579539000E+02  0.64461030877E+02  0.47000000000E+01 0.  1.
         11    1    4    4    0    0  0.20278327241E+02  0.24908944873E+02  0.42469236472E+02  0.53247555220E+02  0.00000000000E+00 0. -1.
        -12    1    4    4    0    0 -0.74628394336E+02  0.74976512647E+02  0.76573285148E+02  0.13059227653E+03  0.00000000000E+00 0.  1.
</event>
<event>
12    1  0.1066489E+000  0.2100068E+03  0.7818608E-02  0.1141860E+00
         21   -1    0    0  501  502  0.00000000000E+00  0.00000000000E+00  0.17196550776E+03  0.17196550776E+03  0.00000000000E+00 0.  1.
         21   -1    0    0  502  503 -0.00000000000E+00 -0.00000000000E+00 -0.26864469442E+03  0.26864469442E+03  0.00000000000E+00 0.  1.
         -6    2    1    2    0  503 -0.22465827958E+02  0.11871102619E+03 -0.98498790372E+02  0.23059556091E+03  0.16992727810E+03 0.  0.
        -24    2    3    3    0    0 -0.71972122805E+01  0.10330184737E+01 -0.10013381729E+02  0.82497614714E+02  0.81564217817E+02 0.  0.
          6    2    1    2  501    0  0.22465827958E+02 -0.11871102619E+03  0.18196037079E+01  0.21001464127E+03  0.17177257472E+03 0.  0.
         24    2    5    5    0    0  0.66443749187E+02 -0.52081989280E+02 -0.35682941560E+02  0.12168561424E+03  0.80042557312E+02 0.  0.
          5    1    5    5  501    0 -0.43977921229E+02 -0.66629036908E+02  0.37502545268E+02  0.88329027033E+02  0.47000000000E+01 0. -1.
        -13    1    6    6    0    0 -0.16056860488E+02 -0.32675627647E+00 -0.15306703441E+02  0.22186137758E+02  0.00000000000E+00 0.  1.
         14    1    6    6    0    0  0.82500609676E+02 -0.51755233004E+02 -0.20376238120E+02  0.99499476481E+02  0.00000000000E+00 0. -1.
         -5    1    3    3    0  503 -0.15268615678E+02  0.11767800772E+03 -0.88485408643E+02  0.14809794620E+03  0.47000000000E+01 0.  1.
         13    1    4    4    0    0  0.38231200498E+01  0.29002333542E+02  0.23466002707E+02  0.37502065021E+02  0.00000000000E+00 0. -1.
        -14    1    4    4    0    0 -0.11020332330E+02 -0.27969315068E+02 -0.33479384436E+02  0.44995549693E+02  0.00000000000E+00 0.  1.
</event>
<event>
12    1  0.1066489E+000  0.2275980E+03  0.7818608E-02  0.1129185E+00
         21   -1    0    0  501  502  0.00000000000E+00  0.00000000000E+00  0.49325748096E+03  0.49325748096E+03  0.00000000000E+00 0.  1.
         21   -1    0    0  502  503 -0.00000000000E+00 -0.00000000000E+00 -0.13108329518E+03  0.13108329518E+03  0.00000000000E+00 0.  1.
         -6    2    1    2    0  503 -0.14735669329E+03 -0.18205510270E+02  0.37749366241E+02  0.23070730272E+03  0.17249756292E+03 0.  0.
        -24    2    3    3    0    0 -0.37664546704E+01  0.33824745656E+01  0.55337269322E+01  0.81898246767E+02  0.81554113169E+02 0.  0.
          6    2    1    2  501    0  0.14735669329E+03  0.18205510270E+02  0.32442481954E+03  0.39363347341E+03  0.16628413092E+03 0.  0.
         24    2    5    5    0    0  0.40337248185E+02  0.47614226575E+02  0.93063208041E+02  0.13698523262E+03  0.78803458694E+02 0.  0.
          5    1    5    5  501    0  0.10701944511E+03 -0.29408716305E+02  0.23136161150E+03  0.25664824079E+03  0.47000000000E+01 0. -1.
        -11    1    6    6    0    0  0.36913433706E+01  0.43487968725E+02  0.89946838766E+02  0.99976313414E+02  0.00000000000E+00 0.  1.
         12    1    6    6    0    0  0.36645904815E+02  0.41262578494E+01  0.31163692750E+01  0.37008919209E+02  0.00000000000E+00 0. -1.
         -5    1    3    3    0  503 -0.14359023862E+03 -0.21587984835E+02  0.32215639309E+02  0.14880905595E+03  0.47000000000E+01 0.  1.
         11    1    4    4    0    0 -0.26449610486E+02  0.20323570077E+02  0.29710034899E+02  0.44668955318E+02  0.00000000000E+00 0. -1.
        -12    1    4    4    0    0  0.22683155816E+02 -0.16941095511E+02 -0.24176307967E+02  0.37229291449E+02  0.00000000000E+00 0.  1.
</event>
<event>
12    1  0.1066489E+000  0.3077401E+03  0.7818608E-02  0.1081844E+00
         21   -1    0    0  503  502  0.00000000000E+00  0.00000000000E+00  0.41424135192E+03  0.41424135192E+03  0.00000000000E+00 0.  1.
         21   -1    0    0  501  503 -0.00000000000E+00 -0.00000000000E+00 -0.37955577946E+03  0.37955577946E+03  0.00000000000E+00 0. -1.
          6    2    1    2  501    0  0.25121919109E+03 -0.24893752508E+01  0.26963025582E+03  0.40662411339E+03  0.17182961262E+03 0.  0.
         24    2    3    3    0    0  0.23343486441E+03  0.33121024322E+02  0.26401871094E+03  0.36615236683E+03  0.93663428485E+02 0.  0.
         -6    2    1    2    0  502 -0.25121919109E+03  0.24893752508E+01 -0.23494468336E+03  0.38717301799E+03  0.17772637019E+03 0.  0.
        -24    2    5    5    0    0 -0.11809691385E+03 -0.43362275871E+02 -0.58762850860E+02  0.16159366896E+03  0.82657565751E+02 0.  0.
          5    1    3    3  501    0  0.17784326676E+02 -0.35610399573E+02  0.56115448777E+01  0.40471746552E+02  0.47000000000E+01 0. -1.
        -11    1    4    4    0    0  0.95510393302E+02  0.50804974063E+01  0.17553999990E+03  0.19990582345E+03  0.00000000000E+00 0.  1.
         12    1    4    4    0    0  0.13792447111E+03  0.28040526916E+02  0.88478711040E+02  0.16624654339E+03  0.00000000000E+00 0. -1.
         -5    1    5    5    0  502 -0.13312227724E+03  0.45851651122E+02 -0.17618183250E+03  0.22557934903E+03  0.47000000000E+01 0.  1.
         13    1    6    6    0    0 -0.11658691546E+03 -0.14885759280E+02 -0.62017650166E+02  0.13289199983E+03  0.00000000000E+00 0. -1.
        -14    1    6    6    0    0 -0.15099983907E+01 -0.28476516590E+02  0.32547993067E+01  0.28701669129E+02  0.00000000000E+00 0.  1.
</event>
<event>
12    1  0.1066489E+000  0.1998249E+03  0.7818608E-02  0.1150095E+00
         21   -1    0    0  503  502  0.00000000000E+00  0.00000000000E+00  0.71836345277E+03  0.71836345277E+03  0.00000000000E+00 0.  1.
         21   -1    0    0  501  503 -0.00000000000E+00 -0.00000000000E+00 -0.57157681834E+02  0.57157681834E+02  0.00000000000E+00 0.  1.
          6    2    1    2  501    0  0.41477690220E+02 -0.91098432850E+02  0.26011245597E+03  0.32740751256E+03  0.17180764324E+03 0.  0.
         24    2    3    3    0    0  0.47370807422E+02  0.59439024628E+01  0.85262399711E+02  0.12729110682E+03  0.81572211559E+02 0.  0.
         -6    2    1    2    0  502 -0.41477690220E+02  0.91098432850E+02  0.40109331497E+03  0.44811362205E+03  0.17294695053E+03 0.  0.
        -24    2    5    5    0    0 -0.30377784172E+02  0.12954761567E+03  0.35164911501E+03  0.38432987424E+03  0.79667795575E+02 0.  0.
          5    1    3    3  501    0 -0.58931172015E+01 -0.97042335313E+02  0.17485005626E+03  0.20011640574E+03  0.47000000000E+01 0. -1.
        -13    1    4    4    0    0  0.15067446453E+02  0.26699168777E+02  0.83392419360E+02  0.88849137096E+02  0.00000000000E+00 0.  1.
         14    1    4    4    0    0  0.32303360969E+02 -0.20755266315E+02  0.18699803506E+01  0.38441969723E+02  0.00000000000E+00 0. -1.
         -5    1    5    5    0  502 -0.11099906048E+02 -0.38449182824E+02  0.49444199966E+02  0.63783747808E+02  0.47000000000E+01 0.  1.
         13    1    6    6    0    0 -0.64085976102E+01  0.80188456213E+02  0.29372774486E+03  0.30454432638E+03  0.00000000000E+00 0. -1.
        -14    1    6    6    0    0 -0.23969186562E+02  0.49359159461E+02  0.57921370149E+02  0.79785547859E+02  0.00000000000E+00 0.  1.
</event>
<event>
12    1  0.1066489E+000  0.1905865E+03  0.7818608E-02  0.1158217E+00
         21   -1    0    0  501  502  0.00000000000E+00  0.00000000000E+00  0.99212406172E+03  0.99212406172E+03  0.00000000000E+00 0.  1.
         21   -1    0    0  502  503 -0.00000000000E+00 -0.00000000000E+00 -0.38498387427E+02  0.38498387427E+02  0.00000000000E+00 0.  1.
         -6    2    1    2    0  503 -0.82929637345E+02  0.15260185054E+02  0.59648070516E+03  0.62580677717E+03  0.16951310486E+03 0.  0.
        -24    2    3    3    0    0 -0.10356631142E+03 -0.76245594974E+01  0.56889709114E+03  0.58418311067E+03  0.82715728350E+02 0.  0.
          6    2    1    2  501    0  0.82929637345E+02 -0.15260185054E+02  0.35714496913E+03  0.40481567198E+03  0.17091811287E+03 0.  0.
         24    2    5    5    0    0  0.13049898793E+02 -0.42116010581E+02  0.14586590062E+03  0.18061632315E+03  0.96960492052E+02 0.  0.
          5    1    5    5  501    0  0.69879738552E+02  0.26855825527E+02  0.21127906852E+03  0.22419934883E+03  0.47000000000E+01 0. -1.
        -11    1    6    6    0    0  0.53442592777E+02 -0.14029369265E+02  0.59337454916E+02  0.81079389987E+02  0.00000000000E+00 0.  1.
         12    1    6    6    0    0 -0.40392693984E+02 -0.28086641316E+02  0.86528445700E+02  0.99536933161E+02  0.00000000000E+00 0. -1.
         -5    1    3    3    0  503  0.20636674074E+02  0.22884744551E+02  0.27583614019E+02  0.41623666494E+02  0.47000000000E+01 0.  1.
         11    1    4    4    0    0  0.24605052867E+01 -0.24926632258E+02  0.12334887033E+03  0.12586633741E+03  0.00000000000E+00 0. -1.
        -12    1    4    4    0    0 -0.10602681671E+03  0.17302072760E+02  0.44554822082E+03  0.45831677326E+03  0.00000000000E+00 0.  1.
</event>
<event>
12    1  0.1066489E+000  0.2218026E+03  0.7818608E-02  0.1132557E+00
         21   -1    0    0  501  502  0.00000000000E+00  0.00000000000E+00  0.41069970061E+03  0.41069970061E+03  0.00000000000E+00 0. -1.
         21   -1    0    0  502  503 -0.00000000000E+00 -0.00000000000E+00 -0.29815177091E+03  0.29815177091E+03  0.00000000000E+00 0. -1.
         -6    2    1    2    0  503  0.92040810140E+02 -0.10486856143E+03  0.33043335018E+03  0.39797311982E+03  0.17241658645E+03 0.  0.
        -24    2    3    3    0    0 -0.11308132667E+02 -0.16315449054E+02  0.95248320598E+02  0.12620714360E+03  0.80386147921E+02 0.  0.
          6    2    1    2  501    0 -0.92040810140E+02  0.10486856143E+03 -0.21788542048E+03  0.31087835170E+03  0.17234374718E+03 0.  0.
         24    2    5    5    0    0 -0.56654066359E+01  0.85868132166E+02 -0.67937766904E+02  0.13672865903E+03  0.81693041781E+02 0.  0.
          5    1    5    5  501    0 -0.86375403504E+02  0.19000429264E+02 -0.14994765357E+03  0.17414969266E+03  0.47000000000E+01 0. -1.
        -13    1    6    6    0    0 -0.34080824490E+02  0.13603618128E+02 -0.55344242202E+01  0.37110522437E+02  0.00000000000E+00 0.  1.
         14    1    6    6    0    0  0.28415417854E+02  0.72264514038E+02 -0.62403342684E+02  0.99618136597E+02  0.00000000000E+00 0. -1.
         -5    1    3    3    0  503  0.10334894281E+03 -0.88553112376E+02  0.23518502958E+03  0.27176597622E+03  0.47000000000E+01 0.  1.
         11    1    4    4    0    0 -0.33273280814E+02  0.53855221846E+01  0.88360439855E+02  0.94571044177E+02  0.00000000000E+00 0. -1.
        -12    1    4    4    0    0  0.21965148147E+02 -0.21700971239E+02  0.68878807435E+01  0.31636099427E+02  0.00000000000E+00 0.  1.
</event>
<event>
12    1  0.1066489E+000  0.2088220E+03  0.7818608E-02  0.1142539E+00
         21   -1    0    0  501  502  0.00000000000E+00  0.00000000000E+00  0.11092119521E+03  0.11092119521E+03  0.00000000000E+00 0. -1.
         21   -1    0    0  502  503 -0.00000000000E+00 -0.00000000000E+00 -0.42289680558E+03  0.42289680558E+03  0.00000000000E+00 0. -1.
         -6    2    1    2    0  503 -0.11263714433E+03 -0.35928963567E+02 -0.84831139216E+02  0.22539506460E+03  0.17212959147E+03 0.  0.
        -24    2    3    3    0    0 -0.12468739351E+03 -0.32930572781E+02 -0.12365863225E+02  0.15172346168E+03  0.78966610210E+02 0.  0.
          6    2    1    2  501    0  0.11263714433E+03  0.35928963567E+02 -0.22714447115E+03  0.30842293619E+03  0.17190718451E+03 0.  0.
         24    2    5    5    0    0  0.10397950770E+03  0.70095035690E+02 -0.93831587674E+02  0.17044942403E+03  0.67257618566E+02 0.  0.
          5    1    5    5  501    0  0.86576366221E+01 -0.34166072123E+02 -0.13331288348E+03  0.13797351216E+03  0.47000000000E+01 0. -1.
        -11    1    6    6    0    0  0.50133910008E+02  0.40257162577E+02 -0.79539459050E+01  0.64786675535E+02  0.00000000000E+00 0.  1.
         12    1    6    6    0    0  0.53845597697E+02  0.29837873113E+02 -0.85877641769E+02  0.10566274849E+03  0.00000000000E+00 0. -1.
         -5    1    3    3    0  503  0.12050249179E+02 -0.29983907864E+01 -0.72465275991E+02  0.73671602922E+02  0.47000000000E+01 0.  1.
         11    1    4    4    0    0 -0.57455205311E+01 -0.20359633686E+02  0.18607341815E+02  0.28173726403E+02  0.00000000000E+00 0. -1.
        -12    1    4    4    0    0 -0.11894187297E+03 -0.12570939094E+02 -0.30973205041E+02  0.12354973528E+03  0.00000000000E+00 0.  1.
</event>
<event>
12    1  0.1066489E+000  0.4030093E+03  0.7818608E-02  0.1042801E+00
         21   -1    0    0  503  502  0.00000000000E+00  0.00000000000E+00  0.17967998162E+04  0.17967998162E+04  0.00000000000E+00 0.  1.
         21   -1    0    0  501  503 -0.00000000000E+00 -0.00000000000E+00 -0.90579130140E+02  0.90579130140E+02  0.00000000000E+00 0.  1.
          6    2    1    2  501    0  0.33438607682E+03  0.14528627067E+03  0.91153689399E+03  0.99665239025E+03  0.17173913087E+03 0.  0.
         24    2    3    3    0    0  0.15393253657E+03  0.84710735692E+02  0.61199462558E+03  0.64171502086E+03  0.79935046768E+02 0.  0.
         -6    2    1    2    0  502 -0.33438607682E+03 -0.14528627067E+03  0.79468379206E+03  0.89072655608E+03  0.17014499560E+03 0.  0.
        -24    2    5    5    0    0 -0.34974777192E+03 -0.13613793920E+03  0.76428770788E+03  0.85515008101E+03  0.79302699729E+02 0.  0.
          5    1    3    3  501    0  0.18045354025E+03  0.60575534978E+02  0.29954226841E+03  0.35493736939E+03  0.47000000000E+01 0. -1.
        -11    1    4    4    0    0  0.79988313417E+02  0.80065695389E+02  0.28988708801E+03  0.31119635225E+03  0.00000000000E+00 0.  1.
         12    1    4    4    0    0  0.73944223154E+02  0.46450403025E+01  0.32210753758E+03  0.33051866861E+03  0.00000000000E+00 0. -1.
         -5    1    5    5    0  502  0.15361695098E+02 -0.91483314689E+01  0.30396084187E+02  0.35576475076E+02  0.47000000000E+01 0.  1.
         13    1    6    6    0    0 -0.28646323979E+03 -0.12456381162E+03  0.68633943180E+03  0.75408165776E+03  0.00000000000E+00 0. -1.
        -14    1    6    6    0    0 -0.63284532125E+02 -0.11574127585E+02  0.77948276075E+02  0.10106842325E+03  0.00000000000E+00 0.  1.
</event>
<event>
12    1  0.1066489E+000  0.1941179E+03  0.7818608E-02  0.1155888E+00
         21   -1    0    0  501  502  0.00000000000E+00  0.00000000000E+00  0.45701934843E+03  0.45701934843E+03  0.00000000000E+00 0. -1.
         21   -1    0    0  502  503 -0.00000000000E+00 -0.00000000000E+00 -0.18246242230E+03  0.18246242230E+03  0.00000000000E+00 0. -1.
         -6    2    1    2    0  503  0.54909333328E+01  0.82924562220E+02 -0.10109497465E+03  0.21886513648E+03  0.17542839193E+03 0.  0.
        -24    2    3    3    0    0 -0.23646265904E+02  0.11107331820E+03 -0.38344659428E+02  0.14402516786E+03  0.79853041030E+02 0.  0.
          6    2    1    2  501    0 -0.54909333328E+01 -0.82924562220E+02  0.37565190078E+03  0.42061663425E+03  0.16999226182E+03 0.  0.
         24    2    5    5    0    0 -0.40036408851E+02 -0.49523304467E+02  0.35298739390E+03  0.36727993234E+03  0.78987193430E+02 0.  0.
          5    1    5    5  501    0  0.34545475519E+02 -0.33401257753E+02  0.22664506875E+02  0.53336701906E+02  0.47000000000E+01 0. -1.
        -11    1    6    6    0    0 -0.96135233604E+01 -0.40552551541E+01  0.25373030246E+03  0.25394474067E+03  0.00000000000E+00 0.  1.
         12    1    6    6    0    0 -0.30422885491E+02 -0.45468049313E+02  0.99257091445E+02  0.11333519167E+03  0.00000000000E+00 0. -1.
         -5    1    3    3    0  503  0.29137199236E+02 -0.28148755981E+02 -0.62750315222E+02  0.74839968620E+02  0.47000000000E+01 0.  1.
         11    1    4    4    0    0 -0.15296083175E+02  0.14346411049E+02  0.21453280726E+02  0.30000548735E+02  0.00000000000E+00 0. -1.
        -12    1    4    4    0    0 -0.83501827292E+01  0.96726907152E+02 -0.59797940155E+02  0.11402461912E+03  0.00000000000E+00 0.  1.
</event>
<event>
12    1  0.1066489E+000  0.2044010E+03  0.7818608E-02  0.1146397E+00
         21   -1    0    0  503  502  0.00000000000E+00  0.00000000000E+00  0.67154017817E+03  0.67154017817E+03  0.00000000000E+00 0. -1.
         21   -1    0    0  501  503 -0.00000000000E+00 -0.00000000000E+00 -0.76261812032E+02  0.76261812032E+02  0.00000000000E+00 0. -1.
          6    2    1    2  501    0 -0.25643437580E+02 -0.10568092532E+03  0.13542271414E+03  0.24519189715E+03  0.17307140450E+03 0.  0.
         24    2    3    3    0    0 -0.35484384864E+02 -0.13926268441E+03  0.89383992699E+02  0.18717265328E+03  0.79942899298E+02 0.  0.
         -6    2    1    2    0  502  0.25643437580E+02  0.10568092532E+03  0.45985565199E+03  0.50261009305E+03  0.17124147014E+03 0.  0.
        -24    2    5    5    0    0 -0.39358122373E+02  0.27839411491E+02  0.13012626654E+03  0.15760565583E+03  0.74716817892E+02 0.  0.
          5    1    3    3  501    0  0.98409472836E+01  0.33581759088E+02  0.46038721441E+02  0.58019243867E+02  0.47000000000E+01 0. -1.
        -11    1    4    4    0    0  0.25751328276E+02 -0.43962574658E+02  0.32289491439E+02  0.60319566775E+02  0.00000000000E+00 0.  1.
         12    1    4    4    0    0 -0.61235713140E+02 -0.95300109750E+02  0.57094501260E+02  0.12685308651E+03  0.00000000000E+00 0. -1.
         -5    1    5    5    0  502  0.65001559953E+02  0.77841513829E+02  0.32972938545E+03  0.34500443722E+03  0.47000000000E+01 0.  1.
         11    1    6    6    0    0 -0.51901803036E+01 -0.25055769838E+02  0.31384956169E+02  0.40493765538E+02  0.00000000000E+00 0. -1.
        -12    1    6    6    0    0 -0.34167942070E+02  0.52895181329E+02  0.98741310373E+02  0.11711189029E+03  0.00000000000E+00 0.  1.
</event>
<event>
12    1  0.1066489E+000  0.2616566E+03  0.7818608E-02  0.1107440E+00
         21   -1    0    0  501  502  0.00000000000E+00  0.00000000000E+00  0.89877922247E+03  0.89877922247E+03  0.00000000000E+00 0.  1.
         21   -1    0    0  502  503 -0.00000000000E+00 -0.00000000000E+00 -0.74116417028E+02  0.74116417028E+02  0.00000000000E+00 0.  1.
         -6    2    1    2    0  503  0.18553128296E+03  0.17543379484E+02  0.38361114399E+03  0.46435083536E+03  0.18366970732E+03 0.  0.
        -24    2    3    3    0    0  0.29618574228E+02 -0.41125428539E+02  0.12882021431E+03  0.15989836021E+03  0.80026727858E+02 0.  0.
          6    2    1    2  501    0 -0.18553128296E+03 -0.17543379484E+02  0.44105166145E+03  0.50854480414E+03  0.17135233475E+03 0.  0.
         24    2    5    5    0    0 -0.21918510067E+02  0.11718541504E+02  0.10482952518E+03  0.13345439584E+03  0.78759768425E+02 0.  0.
          5    1    5    5  501    0 -0.16361277289E+03 -0.29261920988E+02  0.33622213627E+03  0.37509040829E+03  0.47000000000E+01 0. -1.
        -13    1    6    6    0    0 -0.29863745481E+02  0.40519850245E+02  0.80418735448E+02  0.94872939077E+02  0.00000000000E+00 0.  1.
         14    1    6    6    0    0  0.79452354134E+01 -0.28801308741E+02  0.24410789731E+02  0.38581456767E+02  0.00000000000E+00 0. -1.
         -5    1    3    3    0  503  0.15591270873E+03  0.58668808023E+02  0.25479092968E+03  0.30445247515E+03  0.47000000000E+01 0.  1.
         13    1    4    4    0    0  0.49070604168E+02 -0.39006218967E+02  0.54560246235E+02  0.83103729043E+02  0.00000000000E+00 0. -1.
        -14    1    4    4    0    0 -0.19452029940E+02 -0.21192095728E+01  0.74259968073E+02  0.76794631168E+02  0.00000000000E+00 0.  1.
</event>
<event>
12    1  0.1066489E+000  0.1944284E+03  0.7818608E-02  0.1154832E+00
         21   -1    0    0  503  502  0.00000000000E+00  0.00000000000E+00  0.10451535410E+04  0.10451535410E+04  0.00000000000E+00 0.  1.
         21   -1    0    0  501  503 -0.00000000000E+00 -0.00000000000E+00 -0.54315350073E+02  0.54315350073E+02  0.00000000000E+00 0.  1.
          6    2    1    2  501    0  0.88948774638E+02  0.72317374599E+01  0.17659692323E+03  0.26265734532E+03  0.17273744592E+03 0.  0.
         24    2    3    3    0    0  0.11209090956E+03  0.33998083118E+02  0.87897241562E+02  0.16704500722E+03  0.80360859269E+02 0.  0.
         -6    2    1    2    0  502 -0.88948774638E+02 -0.72317374599E+01  0.81424126766E+03  0.83681154571E+03  0.17117400077E+03 0.  0.
        -24    2    5    5    0    0 -0.20071185718E+02 -0.42161973032E+02  0.63496665781E+03  0.64155346176E+03  0.78915798773E+02 0.  0.
          5    1    3    3  501    0 -0.23142134924E+02 -0.26766345658E+02  0.88699681667E+02  0.95612338098E+02  0.47000000000E+01 0. -1.
        -13    1    4    4    0    0  0.82765778088E+02 -0.23500674791E+00  0.89547657570E+02  0.12193855923E+03  0.00000000000E+00 0.  1.
         14    1    4    4    0    0  0.29325131474E+02  0.34233089866E+02 -0.16504160084E+01  0.45106447995E+02  0.00000000000E+00 0. -1.
         -5    1    5    5    0  502 -0.68877588920E+02  0.34930235572E+02  0.17927460984E+03  0.19525808395E+03  0.47000000000E+01 0.  1.
         11    1    6    6    0    0 -0.41683870914E+02 -0.35873388604E+02  0.57285969092E+03  0.57549341489E+03  0.00000000000E+00 0. -1.
        -12    1    6    6    0    0  0.21612685195E+02 -0.62885844280E+01  0.62106966896E+02  0.66060046871E+02  0.00000000000E+00 0.  1.
</event>
<event>
12    1  0.1066489E+000  0.2508819E+03  0.7818608E-02  0.1112897E+00
         21   -1    0    0  501  502  0.00000000000E+00  0.00000000000E+00  0.12732672121E+04  0.12732672121E+04  0.00000000000E+00 0. -1.
         21   -1    0    0  502  503 -0.00000000000E+00 -0.00000000000E+00 -0.83835192430E+02  0.83835192430E+02  0.00000000000E+00 0. -1.
         -6    2    1    2    0  503 -0.11294930025E+03  0.14357692750E+03  0.10298978381E+04  0.10597929801E+04  0.17058641602E+03 0.  0.
        -24    2    3    3    0    0 -0.91273121722E+02  0.95470721525E+02  0.41822884024E+03  0.44583441746E+03  0.80047008471E+02 0.  0.
          6    2    1    2  501    0  0.11294930025E+03 -0.14357692750E+03  0.15953418157E+03  0.29730942437E+03  0.17195889100E+03 0.  0.
         24    2    5    5    0    0  0.14267043406E+03 -0.13659230294E+03  0.16022372727E+03  0.26641126507E+03  0.79315883640E+02 0.  0.
          5    1    5    5  501    0 -0.29721133807E+02 -0.69846245573E+01 -0.68954570066E+00  0.30898159302E+02  0.47000000000E+01 0. -1.
        -11    1    6    6    0    0  0.63457997856E+02 -0.31522081024E+02  0.97802587663E+02  0.12077212111E+03  0.00000000000E+00 0.  1.
         12    1    6    6    0    0  0.79212436205E+02 -0.10507022191E+03  0.62421139604E+02  0.14563914396E+03  0.00000000000E+00 0. -1.
         -5    1    3    3    0  503 -0.21676178533E+02  0.48106205971E+02  0.61166899784E+03  0.61395856268E+03  0.47000000000E+01 0.  1.
         11    1    4    4    0    0 -0.85343523550E+02  0.34446742861E+02  0.27643680692E+03  0.29135442905E+03  0.00000000000E+00 0. -1.
        -12    1    4    4    0    0 -0.59295981718E+01  0.61023978664E+02  0.14179203332E+03  0.15447998841E+03  0.00000000000E+00 0.  1.
</event>
<event>
12    1  0.1066489E+000  0.3648392E+03  0.7818608E-02  0.1056928E+00
         21   -1    0    0  501  502  0.00000000000E+00  0.00000000000E+00  0.23936658721E+04  0.23936658721E+04  0.00000000000E+00 0.  1.
         21   -1    0    0  502  503 -0.00000000000E+00 -0.00000000000E+00 -0.55251798554E+02  0.55251798554E+02  0.00000000000E+00 0.  1.
         -6    2    1    2    0  503 -0.14533329995E+03  0.28304035025E+03  0.11908937699E+04  0.12447953896E+04  0.17336084555E+03 0.  0.
        -24    2    3    3    0    0 -0.16891293457E+03  0.19492732589E+03  0.92125382818E+03  0.96010662548E+03  0.81042424121E+02 0.  0.
          6    2    1    2  501    0  0.14533329995E+03 -0.28304035025E+03  0.11475203036E+04  0.12041222810E+04  0.17853294533E+03 0.  0.
         24    2    5    5    0    0  0.17621183039E+03 -0.21795725538E+03  0.95972754195E+03  0.10029320621E+04  0.78992354082E+02 0.  0.
          5    1    5    5  501    0 -0.30878530438E+02 -0.65083094870E+02  0.18779276163E+03  0.20119021894E+03  0.47000000000E+01 0. -1.
        -11    1    6    6    0    0  0.13081268027E+03 -0.10378184610E+03  0.50461530433E+03  0.53152538440E+03  0.00000000000E+00 0.  1.
         12    1    6    6    0    0  0.45399150118E+02 -0.11417540928E+03  0.45511223762E+03  0.47140667767E+03  0.00000000000E+00 0. -1.
         -5    1    3    3    0  503  0.23579634620E+02  0.88113024362E+02  0.26963994176E+03  0.28468876413E+03  0.47000000000E+01 0.  1.
         13    1    4    4    0    0 -0.77758822664E+01  0.54246031391E+02  0.23408957207E+03  0.24041843527E+03  0.00000000000E+00 0. -1.
        -14    1    4    4    0    0 -0.16113705231E+03  0.14068129450E+03  0.68716425611E+03  0.71968819021E+03  0.00000000000E+00 0.  1.
</event>
<event>
12    1  0.1066489E+000  0.2639595E+03  0.7818608E-02  0.1104813E+00
         21   -1    0    0  501  502  0.00000000000E+00  0.00000000000E+00  0.54387775696E+03  0.54387775696E+03  0.00000000000E+00 0. -1.
         21   -1    0    0  502  503 -0.00000000000E+00 -0.00000000000E+00 -0.15185920070E+03  0.15185920070E+03  0.00000000000E+00 0. -1.
         -6    2    1    2    0  503 -0.12633525294E+03 -0.15753584623E+03  0.58240343694E+02  0.27030825826E+03  0.16998964048E+03 0.  0.
        -24    2    3    3    0    0 -0.75747891234E+02 -0.13295368555E+03  0.99931536210E+02  0.20013982290E+03  0.81579478142E+02 0.  0.
          6    2    1    2  501    0  0.12633525294E+03  0.15753584623E+03  0.33377821256E+03  0.42542869940E+03  0.16971606910E+03 0.  0.
         24    2    5    5    0    0  0.15519291790E+03  0.10592599142E+03  0.27401380005E+03  0.34122527344E+03  0.77755817745E+02 0.  0.
          5    1    5    5  501    0 -0.28857664961E+02  0.51609854808E+02  0.59764412507E+02  0.84203425955E+02  0.47000000000E+01 0. -1.
        -13    1    6    6    0    0  0.28170951877E+02  0.62680467028E+02  0.10371463731E+03  0.12441531043E+03  0.00000000000E+00 0.  1.
         14    1    6    6    0    0  0.12702196602E+03  0.43245524391E+02  0.17029916274E+03  0.21680996301E+03  0.00000000000E+00 0. -1.
         -5    1    3    3    0  503 -0.50587361704E+02 -0.24582160677E+02 -0.41691192516E+02  0.70168435362E+02  0.47000000000E+01 0.  1.
         11    1    4    4    0    0 -0.38626202550E+01 -0.79690394979E+02  0.68981427940E+02  0.10546997813E+03  0.00000000000E+00 0. -1.
        -12    1    4    4    0    0 -0.71885270979E+02 -0.53263290571E+02  0.30950108270E+02  0.94669844766E+02  0.00000000000E+00 0.  1.
</event>
<event>
12    1  0.1135629E+000  0.1829679E+03  0.7818608E-02  0.1166078E+00
         21   -1    0    0  503  502  0.00000000000E+00  0.00000000000E+00  0.31178417296E+03  0.31178417296E+03  0.00000000000E+00 0.  1.
         21   -1    0    0  501  503 -0.00000000000E+00 -0.00000000000E+00 -0.27915605616E+03  0.27915605616E+03  0.00000000000E+00 0. -1.
          6    2    1    2  501    0 -0.46861849184E+02  0.44986105784E+01  0.24999062345E+03  0.30979440636E+03  0.17680778261E+03 0.  0.
         24    2    3    3    0    0 -0.16732493214E+01  0.64701208579E+02  0.12092837523E+03  0.16031023904E+03  0.82985870182E+02 0.  0.
         -6    2    1    2    0  502  0.46861849184E+02 -0.44986105784E+01 -0.21736250665E+03  0.28114582277E+03  0.17198908091E+03 0.  0.
        -24    2    5    5    0    0  0.16762440384E+02  0.71543162341E+02 -0.12536447923E+03  0.15796281789E+03  0.61940259117E+02 0.  0.
          5    1    3    3  501    0 -0.45188599863E+02 -0.60202598000E+02  0.12906224822E+03  0.14948416732E+03  0.47000000000E+01 0. -1.
        -11    1    4    4    0    0 -0.14644659402E+02  0.86498171340E+01  0.96193722539E+02  0.97685810850E+02  0.00000000000E+00 0.  1.
         12    1    4    4    0    0  0.12971410081E+02  0.56051391445E+02  0.24734652695E+02  0.62624428191E+02  0.00000000000E+00 0. -1.
         -5    1    5    5    0  502  0.30099408800E+02 -0.76041772919E+02 -0.91998027426E+02  0.12318300487E+03  0.47000000000E+01 0.  1.
         11    1    6    6    0    0 -0.21691882253E+02  0.40299213663E+02 -0.50134706013E+02  0.67882642293E+02  0.00000000000E+00 0. -1.
        -12    1    6    6    0    0  0.38454322637E+02  0.31243948677E+02 -0.75229773215E+02  0.90080175601E+02  0.00000000000E+00 0.  1.
</event>
<event>
12    1  0.1066489E+000  0.2116757E+03  0.7818608E-02  0.1140263E+00
         21   -1    0    0  503  502  0.00000000000E+00  0.00000000000E+00  0.16917178603E+03  0.16917178603E+03  0.00000000000E+00 0.  1.
         21   -1    0    0  501  503 -0.00000000000E+00 -0.00000000000E+00 -0.27064716972E+03  0.27064716972E+03  0.00000000000E+00 0.  1.
          6    2    1    2  501    0  0.92121262435E+02  0.81438904856E+02 -0.83186376845E+02  0.22735464973E+03  0.17219622889E+03 0.  0.
         24    2    3    3    0    0  0.35056539354E+01  0.61501950412E+02  0.19540172408E+01  0.10277060209E+03  0.82238670687E+02 0.  0.
         -6    2    1    2    0  502 -0.92121262435E+02 -0.81438904856E+02 -0.18289006839E+02  0.21246430601E+03  0.17230197719E+03 0.  0.
        -24    2    5    5    0    0 -0.17531988484E+02 -0.10523418649E+03 -0.10411578921E+02  0.13363589053E+03  0.79803168092E+02 0.  0.
          5    1    3    3  501    0  0.88615608500E+02  0.19936954444E+02 -0.85140394085E+02  0.12458404764E+03  0.47000000000E+01 0. -1.
        -11    1    4    4    0    0 -0.15079279282E+02  0.24059533989E+02 -0.36314593074E+02  0.46097673580E+02  0.00000000000E+00 0.  1.
         12    1    4    4    0    0  0.18584933217E+02  0.37442416423E+02  0.38268610315E+02  0.56672928508E+02  0.00000000000E+00 0. -1.
         -5    1    5    5    0  502 -0.74589273952E+02  0.23795281630E+02 -0.78774279181E+01  0.78828415480E+02  0.47000000000E+01 0.  1.
         11    1    6    6    0    0 -0.44796086113E+02 -0.87821210840E+02  0.29607328208E+01  0.98630727176E+02  0.00000000000E+00 0. -1.
        -12    1    6    6    0    0  0.27264097629E+02 -0.17412975646E+02 -0.13372311742E+02  0.35005163358E+02  0.00000000000E+00 0.  1.
</event>
<event>
12    1  0.1066489E+000  0.2534045E+03  0.7818608E-02  0.1111192E+00
         21   -1    0    0  501  502  0.00000000000E+00  0.00000000000E+00  0.28774865975E+03  0.28774865975E+03  0.00000000000E+00 0.  1.
         21   -1    0    0  502  503 -0.00000000000E+00 -0.00000000000E+00 -0.26530619665E+03  0.26530619665E+03  0.00000000000E+00 0.  1.
         -6    2    1    2    0  503  0.16388353166E+03 -0.87558344455E+02  0.12158740527E+03  0.28106468426E+03  0.17230665681E+03 0.  0.
        -24    2    3    3    0    0  0.10434035095E+03 -0.96087354872E+02  0.14394512192E+03  0.21672113850E+03  0.78282597966E+02 0.  0.
          6    2    1    2  501    0 -0.16388353166E+03  0.87558344455E+02 -0.99144942175E+02  0.27199017214E+03  0.17211815288E+03 0.  0.
         24    2    5    5    0    0 -0.79512317088E+02  0.27153984830E+01  0.70926667175E+01  0.11191098276E+03  0.78384821134E+02 0.  0.
          5    1    5    5  501    0 -0.84371214573E+02  0.84842945972E+02 -0.10623760889E+03  0.16007918938E+03  0.47000000000E+01 0. -1.
        -13    1    6    6    0    0  0.12565843807E+02  0.14009993771E+02 -0.55620249697E+00  0.18827897314E+02  0.00000000000E+00 0.  1.
         14    1    6    6    0    0 -0.92078160894E+02 -0.11294595288E+02  0.76488692145E+01  0.93083085449E+02  0.00000000000E+00 0. -1.
         -5    1    3    3    0  503  0.59543180709E+02  0.85290104169E+01 -0.22357716645E+02  0.64343545762E+02  0.47000000000E+01 0.  1.
         13    1    4    4    0    0  0.25794898812E+02 -0.66199256449E+02  0.97688421403E+02  0.12079216049E+03  0.00000000000E+00 0. -1.
        -14    1    4    4    0    0  0.78545452140E+02 -0.29888098423E+02  0.46256700513E+02  0.95928978008E+02  0.00000000000E+00 0.  1.
</event>
<event>
12    1  0.1066489E+000  0.5109391E+03  0.7818608E-02  0.1011198E+00
         21   -1    0    0  503  502  0.00000000000E+00  0.00000000000E+00  0.21127452675E+03  0.21127452675E+03  0.00000000000E+00 0.  1.
         21   -1    0    0  501  503 -0.00000000000E+00 -0.00000000000E+00 -0.18448277309E+04  0.18448277309E+04  0.00000000000E+00 0.  1.
          6    2    1    2  501    0 -0.46916985625E+03 -0.87967688390E+02 -0.14138105911E+04  0.15033027376E+04  0.18220885040E+03 0.  0.
         24    2    3    3    0    0 -0.13715472329E+03  0.13131005861E+02 -0.52554591461E+03  0.54963024665E+03  0.83132774748E+02 0.  0.
         -6    2    1    2    0  502  0.46916985625E+03  0.87967688390E+02 -0.21974261309E+03  0.55279952009E+03  0.17158620336E+03 0.  0.
        -24    2    5    5    0    0  0.35711960711E+03  0.11088002480E+02 -0.15636504582E+03  0.40278435262E+03  0.10063721765E+03 0.  0.
          5    1    3    3  501    0 -0.33201513296E+03 -0.10109869425E+03 -0.88826467649E+03  0.95367249095E+03  0.47000000000E+01 0. -1.
        -11    1    4    4    0    0 -0.63036189388E+02 -0.24370415188E+02 -0.33526035278E+03  0.34200436029E+03  0.00000000000E+00 0.  1.
         12    1    4    4    0    0 -0.74118533902E+02  0.37501421049E+02 -0.19028556182E+03  0.20762588636E+03  0.00000000000E+00 0. -1.
         -5    1    5    5    0  502  0.11205024914E+03  0.76879685910E+02 -0.63377567269E+02  0.15001516747E+03  0.47000000000E+01 0.  1.
         13    1    6    6    0    0  0.14902221484E+03  0.44411889939E+02 -0.99103416270E+02  0.18439502054E+03  0.00000000000E+00 0. -1.
        -14    1    6    6    0    0  0.20809739228E+03 -0.33323887459E+02 -0.57261629550E+02  0.21838933208E+03  0.00000000000E+00 0.  1.
</event>
<event>
12    1  0.1066489E+000  0.2194264E+03  0.7818608E-02  0.1135349E+00
         21   -1    0    0  501  502  0.00000000000E+00  0.00000000000E+00  0.20488440153E+04  0.20488440153E+04  0.00000000000E+00 0. -1.
         21   -1    0    0  502  503 -0.00000000000E+00 -0.00000000000E+00 -0.96053963593E+02  0.96053963593E+02  0.00000000000E+00 0. -1.
         -6    2    1    2    0  503 -0.60840004257E+02 -0.11139681586E+03  0.19151253206E+04  0.19276547821E+04  0.17898940974E+03 0.  0.
        -24    2    3    3    0    0 -0.98986989012E+02 -0.53712961670E+02  0.92724538209E+03  0.93734600080E+03  0.78422065586E+02 0.  0.
          6    2    1    2  501    0  0.60840004257E+02  0.11139681586E+03  0.37664731128E+02  0.21724319677E+03  0.17223593665E+03 0.  0.
         24    2    5    5    0    0 -0.21271097246E+02  0.10188244600E+03  0.20810138233E+02  0.13275104610E+03  0.79732590616E+02 0.  0.
          5    1    5    5  501    0  0.82111101502E+02  0.95143698515E+01  0.16854592895E+02  0.84492150672E+02  0.47000000000E+01 0. -1.
        -13    1    6    6    0    0 -0.28713054981E+01  0.63512992633E+02  0.50223449408E+02  0.81021845813E+02  0.00000000000E+00 0.  1.
         14    1    6    6    0    0 -0.18399791747E+02  0.38369453371E+02 -0.29413311175E+02  0.51729200290E+02  0.00000000000E+00 0. -1.
         -5    1    3    3    0  503  0.38146984755E+02 -0.57683854185E+02  0.98787993848E+03  0.99030878130E+03  0.47000000000E+01 0.  1.
         11    1    4    4    0    0 -0.24465018596E+02 -0.33492771387E+02  0.58633640870E+03  0.58780157114E+03  0.00000000000E+00 0. -1.
        -12    1    4    4    0    0 -0.74521970415E+02 -0.20220190283E+02  0.34090897339E+03  0.34954442966E+03  0.00000000000E+00 0.  1.
</event>
<event>
12    1  0.1066489E+000  0.3681831E+03  0.7818608E-02  0.1056252E+00
         21   -1    0    0  501  502  0.00000000000E+00  0.00000000000E+00  0.30067685778E+03  0.30067685778E+03  0.00000000000E+00 0. -1.
         21   -1    0    0  502  503 -0.00000000000E+00 -0.00000000000E+00 -0.48290579267E+03  0.48290579267E+03  0.00000000000E+00 0.  1.
         -6    2    1    2    0  503 -0.26052113865E+03  0.19550387247E+03 -0.20677557190E+03  0.41458216537E+03  0.15175377055E+03 0.  0.
        -24    2    3    3    0    0 -0.26956120307E+03  0.16759318379E+03 -0.20226160002E+03  0.38452895840E+03  0.78753079652E+02 0.  0.
          6    2    1    2  501    0  0.26052113865E+03 -0.19550387247E+03  0.24546637020E+02  0.36900048508E+03  0.17165603037E+03 0.  0.
         24    2    5    5    0    0  0.18163783350E+03 -0.65947338034E+02 -0.67589635323E+01  0.21405016377E+03  0.91817400694E+02 0.  0.
          5    1    5    5  501    0  0.78883305146E+02 -0.12955653443E+03  0.31305600552E+02  0.15495032130E+03  0.47000000000E+01 0. -1.
        -11    1    6    6    0    0  0.12551989781E+03 -0.18050071231E+02 -0.40221805377E+02  0.13303700029E+03  0.00000000000E+00 0.  1.
         12    1    6    6    0    0  0.56117935690E+02 -0.47897266803E+02  0.33462841845E+02  0.81013163484E+02  0.00000000000E+00 0. -1.
         -5    1    3    3    0  503  0.90400644179E+01  0.27910688675E+02 -0.45139718826E+01  0.30053206969E+02  0.47000000000E+01 0.  1.
         13    1    4    4    0    0 -0.21320973975E+03  0.90690729641E+02 -0.14377869201E+03  0.27268207466E+03  0.00000000000E+00 0. -1.
        -14    1    4    4    0    0 -0.56351463316E+02  0.76902454153E+02 -0.58482908014E+02  0.11184688374E+03  0.00000000000E+00 0.  1.
</event>
<event>
12    1  0.1066489E+000  0.1913137E+03  0.7818608E-02  0.1157597E+00
         21   -1    0    0  503  502  0.00000000000E+00  0.00000000000E+00  0.13691651426E+03  0.13691651426E+03  0.00000000000E+00 0. -1.
         21   -1    0    0  501  503 -0.00000000000E+00 -0.00000000000E+00 -0.29956613504E+03  0.29956613504E+03  0.00000000000E+00 0. -1.
          6    2    1    2  501    0 -0.38269863133E+02 -0.73087559223E+02 -0.78499688243E+01  0.19147467629E+03  0.17261099592E+03 0.  0.
         24    2    3    3    0    0 -0.59393674883E+01 -0.10275220292E+03 -0.41055431288E+02  0.13624837122E+03  0.79276597621E+02 0.  0.
         -6    2    1    2    0  502  0.38269863133E+02  0.73087559223E+02 -0.15479965196E+03  0.24500797301E+03  0.17105437982E+03 0.  0.
        -24    2    5    5    0    0 -0.11859334992E+02  0.97366920603E+02 -0.73265939051E+02  0.14615322990E+03  0.79824230231E+02 0.  0.
          5    1    3    3  501    0 -0.32330495644E+02  0.29664643698E+02  0.33205462464E+02  0.55226305071E+02  0.47000000000E+01 0. -1.
        -11    1    4    4    0    0  0.50666485175E+01 -0.68258103668E+02 -0.63734217984E+02  0.93524810535E+02  0.00000000000E+00 0.  1.
         12    1    4    4    0    0 -0.11006016006E+02 -0.34494099252E+02  0.22678786695E+02  0.42723560684E+02  0.00000000000E+00 0. -1.
         -5    1    5    5    0  502  0.50129198125E+02 -0.24279361380E+02 -0.81533712913E+02  0.98854743108E+02  0.47000000000E+01 0.  1.
         13    1    6    6    0    0  0.19350055387E+01 -0.12037608804E+02  0.23900072004E+01  0.12424186354E+02  0.00000000000E+00 0. -1.
        -14    1    6    6    0    0 -0.13794340531E+02  0.10940452941E+03 -0.75655946251E+02  0.13372904355E+03  0.00000000000E+00 0.  1.
</event>
<event>
12    1  0.1066489E+000  0.1846127E+03  0.7818608E-02  0.1165744E+00
         21   -1    0    0  503  502  0.00000000000E+00  0.00000000000E+00  0.79961360909E+02  0.79961360909E+02  0.00000000000E+00 0. -1.
         21   -1    0    0  501  503 -0.00000000000E+00 -0.00000000000E+00 -0.46509826785E+03  0.46509826785E+03  0.00000000000E+00 0. -1.
          6    2    1    2  501    0 -0.79372088931E+00 -0.31796576845E+02 -0.89465279815E+02  0.19648604462E+03  0.17202057186E+03 0.  0.
         24    2    3    3    0    0  0.37867962974E+02 -0.65421364665E+02 -0.93606666982E+02  0.14486634641E+03  0.80685269069E+02 0.  0.
         -6    2    1    2    0  502  0.79372088931E+00  0.31796576845E+02 -0.29567162712E+03  0.34857358414E+03  0.18185208325E+03 0.  0.
        -24    2    5    5    0    0 -0.27301211135E+02  0.84090203324E+02 -0.23258428048E+03  0.26182076354E+03  0.81474819845E+02 0.  0.
          5    1    3    3  501    0 -0.38661683863E+02  0.33624787820E+02  0.41413871668E+01  0.51619698205E+02  0.47000000000E+01 0. -1.
        -11    1    4    4    0    0 -0.60056127549E+01  0.55613919035E+01 -0.50089232435E+02  0.50753597611E+02  0.00000000000E+00 0.  1.
         12    1    4    4    0    0  0.43873575729E+02 -0.70982756569E+02 -0.43517434546E+02  0.94112748801E+02  0.00000000000E+00 0. -1.
         -5    1    5    5    0  502  0.28094932024E+02 -0.52293626479E+02 -0.63087346640E+02  0.86752820599E+02  0.47000000000E+01 0.  1.
         13    1    6    6    0    0 -0.41458761463E+02  0.16979899590E+02 -0.51930717533E+02  0.68585314140E+02  0.00000000000E+00 0. -1.
        -14    1    6    6    0    0  0.14157550329E+02  0.67110303734E+02 -0.18065356295E+03  0.19323544940E+03  0.00000000000E+00 0.  1.
</event>
<event>
12    1  0.1066489E+000  0.2637321E+03  0.7818608E-02  0.1104967E+00
         21   -1    0    0  501  502  0.00000000000E+00  0.00000000000E+00  0.73220812282E+02  0.73220812282E+02  0.00000000000E+00 0.  1.
         21   -1    0    0  502  503 -0.00000000000E+00 -0.00000000000E+00 -0.97725067726E+03  0.97725067726E+03  0.00000000000E+00 0.  1.
         -6    2    1    2    0  503  0.64993950296E+02 -0.18857785860E+03 -0.36216459939E+03  0.44783344610E+03  0.17206329089E+03 0.  0.
        -24    2    3    3    0    0  0.41168651469E+02 -0.19045547381E+03 -0.36663925323E+03  0.42306889825E+03  0.81208406525E+02 0.  0.
          6    2    1    2  501    0 -0.64993950296E+02  0.18857785860E+03 -0.54186526560E+03  0.60263804344E+03  0.17253643968E+03 0.  0.
         24    2    5    5    0    0 -0.13314530634E+02  0.17040991401E+03 -0.29898788308E+03  0.35361525419E+03  0.80207096019E+02 0.  0.
          5    1    5    5  501    0 -0.51679419663E+02  0.18167944591E+02 -0.24287738252E+03  0.24902278925E+03  0.47000000000E+01 0. -1.
        -13    1    6    6    0    0  0.28935776895E+02  0.11777753847E+03 -0.19553699854E+03  0.23009464477E+03  0.00000000000E+00 0.  1.
         14    1    6    6    0    0 -0.42250307529E+02  0.52632375542E+02 -0.10345088453E+03  0.12352060942E+03  0.00000000000E+00 0. -1.
         -5    1    3    3    0  503  0.23825298827E+02  0.18776152125E+01  0.44746538483E+01  0.24764547849E+02  0.47000000000E+01 0.  1.
         13    1    4    4    0    0  0.40512270949E+02 -0.17670512020E+03 -0.26852261219E+03  0.32399126047E+03  0.00000000000E+00 0. -1.
        -14    1    4    4    0    0  0.65638052068E+00 -0.13750353612E+02 -0.98116641042E+02  0.99077637786E+02  0.00000000000E+00 0.  1.
</event>
<event>
12    1  0.1066489E+000  0.1816807E+03  0.7818608E-02  0.1166626E+00
         21   -1    0    0  503  502  0.00000000000E+00  0.00000000000E+00  0.21204530552E+03  0.21204530552E+03  0.00000000000E+00 0. -1.
         21   -1    0    0  501  503 -0.00000000000E+00 -0.00000000000E+00 -0.15571983895E+03  0.15571983895E+03  0.00000000000E+00 0. -1.
          6    2    1    2  501    0 -0.54498648441E+01 -0.57264571150E+02  0.46779180037E+02  0.18583379038E+03  0.17040238797E+03 0.  0.
         24    2    3    3    0    0  0.31358974965E+02 -0.47829869731E+02 -0.28839259255E+02  0.10107446853E+03  0.78187361925E+02 0.  0.
         -6    2    1    2    0  502  0.54498648441E+01  0.57264571150E+02  0.95462865380E+01  0.18193135409E+03  0.17233384427E+03 0.  0.
        -24    2    5    5    0    0  0.19482791675E+02  0.10043471691E+03  0.27599612945E+02  0.13285389374E+03  0.80135553387E+02 0.  0.
          5    1    3    3  501    0 -0.36808839810E+02 -0.94347014192E+01  0.75618439292E+02  0.84759321847E+02  0.47000000000E+01 0. -1.
        -13    1    4    4    0    0  0.31674818905E+02 -0.66542764512E+02 -0.34707212528E+02  0.81460568762E+02  0.00000000000E+00 0.  1.
         14    1    4    4    0    0 -0.31584393946E+00  0.18712894781E+02  0.58679532727E+01  0.19613899768E+02  0.00000000000E+00 0. -1.
         -5    1    5    5    0  502 -0.14032926831E+02 -0.43170145756E+02 -0.18053326407E+02  0.49077460350E+02  0.47000000000E+01 0.  1.
         11    1    6    6    0    0  0.39908169891E+02  0.35882910286E+02 -0.11191797928E+02  0.54822455395E+02  0.00000000000E+00 0. -1.
        -12    1    6    6    0    0 -0.20425378217E+02  0.64551806620E+02  0.38791410873E+02  0.78031438348E+02  0.00000000000E+00 0.  1.
</event>
<event>
12    1  0.1066489E+000  0.3117699E+03  0.7818608E-02  0.1079561E+00
         21   -1    0    0  503  502  0.00000000000E+00  0.00000000000E+00  0.12161770993E+03  0.12161770993E+03  0.00000000000E+00 0.  1.
         21   -1    0    0  501  503 -0.00000000000E+00 -0.00000000000E+00 -0.97102398555E+03  0.97102398555E+03  0.00000000000E+00 0.  1.
          6    2    1    2  501    0  0.11648827173E+03 -0.23187466120E+03 -0.19433097788E+03  0.36737584267E+03  0.17281523329E+03 0.  0.
         24    2    3    3    0    0 -0.44983830859E+01 -0.12647609807E+03 -0.11914173288E+03  0.19011292969E+03  0.77017755680E+02 0.  0.
         -6    2    1    2    0  502 -0.11648827173E+03  0.23187466120E+03 -0.65507529774E+03  0.72526585281E+03  0.17190560081E+03 0.  0.
        -24    2    5    5    0    0 -0.64300386232E+02  0.11549877722E+03 -0.50574113451E+03  0.52882322995E+03  0.80033781625E+02 0.  0.
          5    1    3    3  501    0  0.12098665481E+03 -0.10539856314E+03 -0.75189245006E+02  0.17726291298E+03  0.47000000000E+01 0. -1.
        -13    1    4    4    0    0 -0.19782531877E+02 -0.45105053185E+02 -0.89529004807E+02  0.10218246959E+03  0.00000000000E+00 0.  1.
         14    1    4    4    0    0  0.15284148791E+02 -0.81371044882E+02 -0.29612728071E+02  0.87930460099E+02  0.00000000000E+00 0. -1.
         -5    1    5    5    0  502 -0.52187885496E+02  0.11637588399E+03 -0.14933416323E+03  0.19644262285E+03  0.47000000000E+01 0.  1.
         11    1    6    6    0    0 -0.65644573787E+02  0.86753661355E+02 -0.26638675980E+03  0.28774522346E+03  0.00000000000E+00 0. -1.
        -12    1    6    6    0    0  0.13441875546E+01  0.28745115861E+02 -0.23935437470E+03  0.24107800649E+03  0.00000000000E+00 0.  1.
</event>
<event>
12    1  0.1066489E+000  0.2949922E+03  0.7818608E-02  0.1087952E+00
         21   -1    0    0  503  502  0.00000000000E+00  0.00000000000E+00  0.63553543488E+03  0.63553543488E+03  0.00000000000E+00 0.  1.
         21   -1    0    0  501  503 -0.00000000000E+00 -0.00000000000E+00 -0.15050320610E+03  0.15050320610E+03  0.00000000000E+00 0.  1.
          6    2    1    2  501    0  0.60220299692E+02  0.23057284032E+03  0.12217305123E+03  0.31929090036E+03  0.17386806901E+03 0.  0.
         24    2    3    3    0    0  0.51863971409E+02  0.18527508894E+03  0.15748133764E+03  0.26106307547E+03  0.79604193097E+02 0.  0.
         -6    2    1    2    0  502 -0.60220299692E+02 -0.23057284032E+03  0.36285917755E+03  0.46674774062E+03  0.17145364231E+03 0.  0.
        -24    2    5    5    0    0 -0.62017118886E+02 -0.25196404355E+03  0.32828433811E+03  0.42578041636E+03  0.78653379023E+02 0.  0.
          5    1    3    3  501    0  0.83563282833E+01  0.45297751379E+02 -0.35308286411E+02  0.58227824892E+02  0.47000000000E+01 0. -1.
        -11    1    4    4    0    0  0.19038440926E+01  0.72535892426E+02  0.10362094285E+03  0.12650051426E+03  0.00000000000E+00 0.  1.
         12    1    4    4    0    0  0.49960127316E+02  0.11273919651E+03  0.53860394793E+02  0.13456256121E+03  0.00000000000E+00 0. -1.
         -5    1    5    5    0  502  0.17968191936E+01  0.21391203234E+02  0.34574839436E+02  0.40967324260E+02  0.47000000000E+01 0.  1.
         11    1    6    6    0    0 -0.45471800449E+02 -0.76805625800E+02  0.70800271732E+02  0.11392746494E+03  0.00000000000E+00 0. -1.
        -12    1    6    6    0    0 -0.16545318437E+02 -0.17515841775E+03  0.25748406638E+03  0.31185295142E+03  0.00000000000E+00 0.  1.
</event>
<event>
12    1  0.1066489E+000  0.1885737E+03  0.7818608E-02  0.1160216E+00
         21   -1    0    0  503  502  0.00000000000E+00  0.00000000000E+00  0.29305233873E+03  0.29305233873E+03  0.00000000000E+00 0.  1.
         21   -1    0    0  501  503 -0.00000000000E+00 -0.00000000000E+00 -0.12761373413E+03  0.12761373413E+03  0.00000000000E+00 0.  1.
          6    2    1    2  501    0  0.65294690749E+02  0.41322344138E+02  0.13435084604E+03  0.23153877280E+03  0.17201488515E+03 0.  0.
         24    2    3    3    0    0  0.52946357380E+02  0.15025375409E+02  0.43825549602E+01  0.98280157368E+02  0.81306235175E+02 0.  0.
         -6    2    1    2    0  502 -0.65294690749E+02 -0.41322344138E+02  0.31087758558E+02  0.18912730006E+03  0.16979915822E+03 0.  0.
        -24    2    5    5    0    0  0.89859178347E+01 -0.22981567816E+02  0.64423558389E+02  0.10553687933E+03  0.79867007234E+02 0.  0.
          5    1    3    3  501    0  0.12348333369E+02  0.26296968728E+02  0.12996829108E+03  0.13325861543E+03  0.47000000000E+01 0. -1.
        -11    1    4    4    0    0  0.66585116279E+02  0.34039847446E+02  0.34915835452E+01  0.74863075543E+02  0.00000000000E+00 0.  1.
         12    1    4    4    0    0 -0.13638758899E+02 -0.19014472037E+02  0.89097141501E+00  0.23417081825E+02  0.00000000000E+00 0. -1.
         -5    1    5    5    0  502 -0.74280608584E+02 -0.18340776322E+02 -0.33335799831E+02  0.83590420731E+02  0.47000000000E+01 0.  1.
         13    1    6    6    0    0 -0.59005279237E+01 -0.43539172009E+02  0.93857884500E+01  0.44928484883E+02  0.00000000000E+00 0. -1.
        -14    1    6    6    0    0  0.14886445758E+02  0.20557604194E+02  0.55037769939E+02  0.60608394447E+02  0.00000000000E+00 0.  1.
</event>
<event>
12    1  0.1066489E+000  0.2646931E+03  0.7818608E-02  0.1104418E+00
         21   -1    0    0  501  502  0.00000000000E+00  0.00000000000E+00  0.26286487122E+03  0.26286487122E+03  0.00000000000E+00 0. -1.
         21   -1    0    0  502  503 -0.00000000000E+00 -0.00000000000E+00 -0.28840003897E+03  0.28840003897E+03  0.00000000000E+00 0. -1.
         -6    2    1    2    0  503 -0.11108421558E+03  0.16612286070E+03  0.63867773256E+02  0.27188104667E+03  0.17292687264E+03 0.  0.
        -24    2    3    3    0    0 -0.93718875290E+02  0.48442932924E+02 -0.10504082702E+02  0.13151230584E+03  0.77815200941E+02 0.  0.
          6    2    1    2  501    0  0.11108421558E+03 -0.16612286070E+03 -0.89402941005E+02  0.27938386352E+03  0.17356828494E+03 0.  0.
         24    2    5    5    0    0  0.12382651338E+03 -0.63361195833E+02 -0.38378859155E+02  0.16385086889E+03  0.77630688843E+02 0.  0.
          5    1    5    5  501    0 -0.12742297808E+02 -0.10276166487E+03 -0.51024081850E+02  0.11553299463E+03  0.47000000000E+01 0. -1.
        -13    1    6    6    0    0  0.49706855442E+02 -0.63785913095E+02 -0.38881256469E+02  0.89728291480E+02  0.00000000000E+00 0.  1.
         14    1    6    6    0    0  0.74119657943E+02  0.42471726165E+00  0.50239731401E+00  0.74122577406E+02  0.00000000000E+00 0. -1.
         -5    1    3    3    0  503 -0.17365340286E+02  0.11767992778E+03  0.74371855958E+02  0.14036874084E+03  0.47000000000E+01 0.  1.
         11    1    4    4    0    0  0.72654414700E+01  0.26256921535E+02  0.22480183379E+01  0.27336169349E+02  0.00000000000E+00 0. -1.
        -12    1    4    4    0    0 -0.10098431676E+03  0.22186011389E+02 -0.12752101040E+02  0.10417613649E+03  0.00000000000E+00 0.  1.
</event>
<event>
12    1  0.1066489E+000  0.2049590E+03  0.7818608E-02  0.1145972E+00
         21   -1    0    0  501  502  0.00000000000E+00  0.00000000000E+00  0.20206446188E+03  0.20206446188E+03  0.00000000000E+00 0. -1.
         21   -1    0    0  502  503 -0.00000000000E+00 -0.00000000000E+00 -0.20899208622E+03  0.20899208622E+03  0.00000000000E+00 0. -1.
         -6    2    1    2    0  503 -0.79658888195E+02  0.77069973855E+02  0.20447655453E+02  0.20427740283E+03  0.17036969024E+03 0.  0.
        -24    2    3    3    0    0  0.74201504744E+01 -0.16564899706E+01 -0.15415284573E+02  0.81440700048E+02  0.79606243686E+02 0.  0.
          6    2    1    2  501    0  0.79658888195E+02 -0.77069973855E+02 -0.27375279794E+02  0.20677914527E+03  0.17240327618E+03 0.  0.
         24    2    5    5    0    0  0.96985542937E+02 -0.67100206639E+00 -0.48823272387E+01  0.12513945658E+03  0.78926552512E+02 0.  0.
          5    1    5    5  501    0 -0.17326654742E+02 -0.76398971788E+02 -0.22492952555E+02  0.81639688691E+02  0.47000000000E+01 0. -1.
        -11    1    6    6    0    0  0.56175480139E+02 -0.37590334092E+02  0.95068618627E+01  0.68257587186E+02  0.00000000000E+00 0.  1.
         12    1    6    6    0    0  0.40810062798E+02  0.36919332026E+02 -0.14389189101E+02  0.56881869394E+02  0.00000000000E+00 0. -1.
         -5    1    3    3    0  503 -0.87079038669E+02  0.78726463826E+02  0.35862940026E+02  0.12283670278E+03  0.47000000000E+01 0.  1.
         11    1    4    4    0    0  0.15559086536E+02  0.17692671581E+02  0.25952357843E+02  0.35051971116E+02  0.00000000000E+00 0. -1.
        -12    1    4    4    0    0 -0.81389360617E+01 -0.19349161551E+02 -0.41367642415E+02  0.46388728932E+02  0.00000000000E+00 0.  1.
</event>
<event>
12    1  0.1066489E+000  0.2406934E+03  0.7818608E-02  0.1119442E+00
         21   -1    0    0  501  502  0.00000000000E+00  0.00000000000E+00  0.10343862396E+03  0.10343862396E+03  0.00000000000E+00 0.  1.
         21   -1    0    0  502  503 -0.00000000000E+00 -0.00000000000E+00 -0.59241582986E+03  0.59241582986E+03  0.00000000000E+00 0.  1.
         -6    2    1    2    0  503 -0.14692813668E+02  0.16760382255E+03 -0.16160021325E+03  0.28991023030E+03  0.17212319019E+03 0.  0.
        -24    2    3    3    0    0 -0.28242439420E+01  0.32687834602E+02 -0.12023473209E+03  0.14821908808E+03  0.80224911247E+02 0.  0.
          6    2    1    2  501    0  0.14692813668E+02 -0.16760382255E+03 -0.32737699265E+03  0.40594422352E+03  0.17119607817E+03 0.  0.
         24    2    5    5    0    0 -0.34821918773E+02 -0.11602591842E+03 -0.13639024219E+03  0.20195888636E+03  0.86663220815E+02 0.  0.
          5    1    5    5  501    0  0.49514732442E+02 -0.51577904130E+02 -0.19098675046E+03  0.20398533715E+03  0.47000000000E+01 0. -1.
        -11    1    6    6    0    0 -0.49514831429E+02 -0.10054239533E+03 -0.14100632872E+03  0.18012017247E+03  0.00000000000E+00 0.  1.
         12    1    6    6    0    0  0.14692912656E+02 -0.15483523097E+02  0.46160865284E+01  0.21838713896E+02  0.00000000000E+00 0. -1.
         -5    1    3    3    0  503 -0.11868569726E+02  0.13491598795E+03 -0.41365481161E+02  0.14169114222E+03  0.47000000000E+01 0.  1.
         11    1    4    4    0    0 -0.37462288319E+02  0.23224272001E+02 -0.36923094598E+02  0.57498737123E+02  0.00000000000E+00 0. -1.
        -12    1    4    4    0    0  0.34638044377E+02  0.94635626007E+01 -0.83311637492E+02  0.90720350952E+02  0.00000000000E+00 0.  1.
</event>
<event>
12    1  0.1066489E+000  0.2709605E+03  0.7818608E-02  0.1100791E+00
         21   -1    0    0  501  502  0.00000000000E+00  0.00000000000E+00  0.42906695604E+02  0.42906695604E+02  0.00000000000E+00 0.  1.
         21   -1    0    0  502  503 -0.00000000000E+00 -0.00000000000E+00 -0.17348537834E+04  0.17348537834E+04  0.00000000000E+00 0.  1.
         -6    2    1    2    0  503  0.75409446870E+02 -0.19457581479E+03 -0.95492494590E+03  0.99250814284E+03  0.17217557583E+03 0.  0.
        -24    2    3    3    0    0 -0.21324518424E+02 -0.12888653409E+03 -0.57083955005E+03  0.59099074228E+03  0.79660478331E+02 0.  0.
          6    2    1    2  501    0 -0.75409446870E+02  0.19457581479E+03 -0.73702214192E+03  0.78525233619E+03  0.17283883081E+03 0.  0.
         24    2    5    5    0    0 -0.11698209421E+02  0.39304902521E+02 -0.38444926778E+03  0.39474254175E+03  0.79616024180E+02 0.  0.
          5    1    5    5  501    0 -0.63711237449E+02  0.15527091227E+03 -0.35257287414E+03  0.39050979444E+03  0.47000000000E+01 0. -1.
        -11    1    6    6    0    0 -0.79475436290E+01  0.62833542568E+02 -0.23404976071E+03  0.24246754012E+03  0.00000000000E+00 0.  1.
         12    1    6    6    0    0 -0.37506657922E+01 -0.23528640047E+02 -0.15039950707E+03  0.15227500164E+03  0.00000000000E+00 0. -1.
         -5    1    3    3    0  503  0.96733965294E+02 -0.65689280698E+02 -0.38408539586E+03  0.40151740056E+03  0.47000000000E+01 0.  1.
         11    1    4    4    0    0 -0.13303709016E+02 -0.13682610844E+03 -0.47512487142E+03  0.49461299626E+03  0.00000000000E+00 0. -1.
        -12    1    4    4    0    0 -0.80208094086E+01  0.79395743428E+01 -0.95714678627E+02  0.96377746025E+02  0.00000000000E+00 0.  1.
</event>
<event>
12    1  0.1066489E+000  0.3171012E+03  0.7818608E-02  0.1077359E+00
         21   -1    0    0  503  502  0.00000000000E+00  0.00000000000E+00  0.21442841026E+03  0.21442841026E+03  0.00000000000E+00 0. -1.
         21   -1    0    0  501  503 -0.00000000000E+00 -0.00000000000E+00 -0.49136225511E+03  0.49136225511E+03  0.00000000000E+00 0.  1.
          6    2    1    2  501    0 -0.63338436513E+02  0.25838449973E+03 -0.22193552296E+03  0.38705112807E+03  0.17256561694E+03 0.  0.
         24    2    3    3    0    0 -0.12511571809E+02  0.32269919694E+02 -0.66692735548E+01  0.70708241931E+02  0.61296730100E+02 0.  0.
         -6    2    1    2    0  502  0.63338436513E+02 -0.25838449973E+03 -0.54998321888E+02  0.31873953730E+03  0.16672063455E+03 0.  0.
        -24    2    5    5    0    0 -0.11747463568E+02 -0.81121085536E+02 -0.53341569086E+02  0.12616475901E+03  0.79709409757E+02 0.  0.
          5    1    3    3  501    0 -0.50826864704E+02  0.22611458004E+03 -0.21526624940E+03  0.31634288614E+03  0.47000000000E+01 0. -1.
        -11    1    4    4    0    0 -0.32395841165E+02  0.98281996251E+01 -0.18376826462E+02  0.38520017957E+02  0.00000000000E+00 0.  1.
         12    1    4    4    0    0  0.19884269356E+02  0.22441720069E+02  0.11707552907E+02  0.32188223973E+02  0.00000000000E+00 0. -1.
         -5    1    5    5    0  502  0.75085900081E+02 -0.17726341420E+03 -0.16567528022E+01  0.19257477829E+03  0.47000000000E+01 0.  1.
         13    1    6    6    0    0  0.26861709672E+02 -0.68737082286E+01 -0.15963446255E+01  0.27773145798E+02  0.00000000000E+00 0. -1.
        -14    1    6    6    0    0 -0.38609173241E+02 -0.74247377308E+02 -0.51745224460E+02  0.98391613209E+02  0.00000000000E+00 0.  1.
</event>
<event>
12    1  0.1066489E+000  0.1990123E+03  0.7818608E-02  0.1151049E+00
         21   -1    0    0  501  502  0.00000000000E+00  0.00000000000E+00  0.14926720085E+03  0.14926720085E+03  0.00000000000E+00 0. -1.
         21   -1    0    0  502  503 -0.00000000000E+00 -0.00000000000E+00 -0.27120690723E+03  0.27120690723E+03  0.00000000000E+00 0. -1.
         -6    2    1    2    0  503 -0.20934602052E+02 -0.95621043918E+02 -0.99217508644E+02  0.22237357166E+03  0.17327506961E+03 0.  0.
        -24    2    3    3    0    0 -0.78102700757E+01 -0.11489393475E+03 -0.21054744728E+02  0.14067167405E+03  0.77997442548E+02 0.  0.
          6    2    1    2  501    0  0.20934602052E+02  0.95621043918E+02 -0.22722197733E+02  0.19810053642E+03  0.17072165257E+03 0.  0.
         24    2    5    5    0    0 -0.96970107771E+00  0.12987110603E+03 -0.17411308796E+01  0.15210966323E+03  0.79163587645E+02 0.  0.
          5    1    5    5  501    0  0.21904303130E+02 -0.34250062113E+02 -0.20981066853E+02  0.45990873188E+02  0.47000000000E+01 0. -1.
        -13    1    6    6    0    0 -0.25713694872E+02  0.71489308987E+02  0.29403829518E+02  0.81464719933E+02  0.00000000000E+00 0.  1.
         14    1    6    6    0    0  0.24743993795E+02  0.58381797043E+02 -0.31144960398E+02  0.70644943295E+02  0.00000000000E+00 0. -1.
         -5    1    3    3    0  503 -0.13124331976E+02  0.19272890829E+02 -0.78162763916E+02  0.81701897614E+02  0.47000000000E+01 0.  1.
         13    1    4    4    0    0  0.76803753040E+01 -0.10764428135E+03 -0.40051229474E+02  0.11511029691E+03  0.00000000000E+00 0. -1.
        -14    1    4    4    0    0 -0.15490645380E+02 -0.72496533993E+01  0.18996484746E+02  0.25561377142E+02  0.00000000000E+00 0.  1.
</event>
<event>
12    1  0.1066489E+000  0.1927554E+03  0.7818608E-02  0.1156158E+00
         21   -1    0    0  501  502  0.00000000000E+00  0.00000000000E+00  0.26764728015E+03  0.26764728015E+03  0.00000000000E+00 0. -1.
         21   -1    0    0  502  503 -0.00000000000E+00 -0.00000000000E+00 -0.14183796860E+03  0.14183796860E+03  0.00000000000E+00 0. -1.
         -6    2    1    2    0  503  0.86777570537E+02 -0.30319254855E+01  0.95336291009E+02  0.21504340317E+03  0.17209043421E+03 0.  0.
        -24    2    3    3    0    0  0.67502911993E+02 -0.67965140759E+02  0.65999400691E+02  0.14108004710E+03  0.79823275510E+02 0.  0.
          6    2    1    2  501    0 -0.86777570537E+02  0.30319254855E+01  0.30473020538E+02  0.19444184558E+03  0.17128773164E+03 0.  0.
         24    2    5    5    0    0 -0.19607815209E+02 -0.47384858559E+02 -0.21734992787E+02  0.95439851659E+02  0.77502026653E+02 0.  0.
          5    1    5    5  501    0 -0.67169755328E+02  0.50416784044E+02  0.52208013325E+02  0.99001993917E+02  0.47000000000E+01 0. -1.
        -11    1    6    6    0    0 -0.20637682666E+02 -0.14620640286E+02 -0.47454690035E+02  0.53773828900E+02  0.00000000000E+00 0.  1.
         12    1    6    6    0    0  0.10298674579E+01 -0.32764218272E+02  0.25719697248E+02  0.41666022758E+02  0.00000000000E+00 0. -1.
         -5    1    3    3    0  503  0.19274658544E+02  0.64933215274E+02  0.29336890319E+02  0.73963356072E+02  0.47000000000E+01 0.  1.
         13    1    4    4    0    0 -0.15662507407E+02  0.17865687828E+01  0.12207685572E+02  0.19938243486E+02  0.00000000000E+00 0. -1.
        -14    1    4    4    0    0  0.83165419400E+02 -0.69751709542E+02  0.53791715119E+02  0.12114180362E+03  0.00000000000E+00 0.  1.
</event>
<event>
12    1  0.1066489E+000  0.2038486E+03  0.7818608E-02  0.1148778E+00
         21   -1    0    0  501  502  0.00000000000E+00  0.00000000000E+00  0.10119613947E+03  0.10119613947E+03  0.00000000000E+00 0. -1.
         21   -1    0    0  502  503 -0.00000000000E+00 -0.00000000000E+00 -0.43726412119E+03  0.43726412119E+03  0.00000000000E+00 0. -1.
         -6    2    1    2    0  503  0.10127792718E+03 -0.35048531821E+02 -0.25294987987E+03  0.31831739955E+03  0.16080020838E+03 0.  0.
        -24    2    3    3    0    0  0.65217860429E+02  0.36431266203E+02 -0.12251122300E+03  0.16519645668E+03  0.81855134612E+02 0.  0.
          6    2    1    2  501    0 -0.10127792718E+03  0.35048531821E+02 -0.83118101852E+02  0.22014286111E+03  0.17340312086E+03 0.  0.
         24    2    5    5    0    0 -0.10133934987E+03 -0.33579658109E+02 -0.46706405293E+02  0.14231141584E+03  0.81693289272E+02 0.  0.
          5    1    5    5  501    0  0.61422694569E-01  0.68628189931E+02 -0.36411696559E+02  0.77831445266E+02  0.47000000000E+01 0. -1.
        -11    1    6    6    0    0 -0.26731654388E+02  0.17667317001E+02 -0.40420912397E+02  0.51580670753E+02  0.00000000000E+00 0.  1.
         12    1    6    6    0    0 -0.74607695485E+02 -0.51246975110E+02 -0.62854928962E+01  0.90730745089E+02  0.00000000000E+00 0. -1.
         -5    1    3    3    0  503  0.36060066749E+02 -0.71479798024E+02 -0.13043865687E+03  0.15312094287E+03  0.47000000000E+01 0.  1.
         11    1    4    4    0    0  0.72313902307E+02  0.27550750028E+02 -0.13020853071E+03  0.15146816749E+03  0.00000000000E+00 0. -1.
        -12    1    4    4    0    0 -0.70960418785E+01  0.88805161755E+01  0.76973077132E+01  0.13728289184E+02  0.00000000000E+00 0.  1.
</event>
<event>
12    1  0.1066489E+000  0.4401123E+03  0.7818608E-02  0.1030720E+00
         21   -1    0    0  501  502  0.00000000000E+00  0.00000000000E+00  0.26587694164E+03  0.26587694164E+03  0.00000000000E+00 0. -1.
         21   -1    0    0  502  503 -0.00000000000E+00 -0.00000000000E+00 -0.79780205358E+03  0.79780205358E+03  0.00000000000E+00 0. -1.
         -6    2    1    2    0  503 -0.38270720095E+03 -0.13193387840E+03 -0.10903350574E+03  0.45332163702E+03  0.17245536026E+03 0.  0.
        -24    2    3    3    0    0 -0.10157541201E+03 -0.37476753038E+01 -0.39766288698E+02  0.13664068910E+03  0.82205296696E+02 0.  0.
          6    2    1    2  501    0  0.38270720095E+03  0.13193387840E+03 -0.42289160620E+03  0.61035735820E+03  0.17270623668E+03 0.  0.
         24    2    5    5    0    0  0.20345775797E+03  0.11556524835E+03 -0.16996555937E+03  0.29988679595E+03  0.79331034980E+02 0.  0.
          5    1    5    5  501    0  0.17924944299E+03  0.16368630057E+02 -0.25292604683E+03  0.31047056225E+03  0.47000000000E+01 0. -1.
        -13    1    6    6    0    0  0.12132109806E+03  0.40122711214E+02 -0.12760510640E+03  0.18058710909E+03  0.00000000000E+00 0.  1.
         14    1    6    6    0    0  0.82136659904E+02  0.75442537133E+02 -0.42360452972E+02  0.11929968686E+03  0.00000000000E+00 0. -1.
         -5    1    3    3    0  503 -0.28113178894E+03 -0.12818620310E+03 -0.69267217041E+02  0.31668094792E+03  0.47000000000E+01 0.  1.
         11    1    4    4    0    0 -0.24950534835E+02  0.67159473666E+00  0.25652647611E+02  0.35791598979E+02  0.00000000000E+00 0. -1.
        -12    1    4    4    0    0 -0.76624877179E+02 -0.44192700405E+01 -0.65418936309E+02  0.10084909012E+03  0.00000000000E+00 0.  1.
</event>
<event>
12    1  0.1066489E+000  0.1785336E+03  0.7818608E-02  0.1169335E+00
         21   -1    0    0  501  502  0.00000000000E+00  0.00000000000E+00  0.98850022151E+02  0.98850022151E+02  0.00000000000E+00 0.  1.
         21   -1    0    0  502  503 -0.00000000000E+00 -0.00000000000E+00 -0.36657962402E+03  0.36657962402E+03  0.00000000000E+00 0.  1.
         -6    2    1    2    0  503  0.11889895196E+02 -0.48109098262E+02 -0.21516961544E+03  0.27931998125E+03  0.17107259739E+03 0.  0.
        -24    2    3    3    0    0 -0.23010920377E+02 -0.83384006795E+02 -0.10554457303E+03  0.15889520796E+03  0.81398004715E+02 0.  0.
          6    2    1    2  501    0 -0.11889895196E+02  0.48109098262E+02 -0.52559986429E+02  0.18610966491E+03  0.17151792984E+03 0.  0.
         24    2    5    5    0    0 -0.26642730541E+02  0.95581533618E+02 -0.33359950337E+02  0.13261191117E+03  0.81408648429E+02 0.  0.
          5    1    5    5  501    0  0.14752835345E+02 -0.47472435356E+02 -0.19200036091E+02  0.53497753740E+02  0.47000000000E+01 0. -1.
        -13    1    6    6    0    0 -0.39315297036E+02  0.33905430068E+02  0.14062254519E+02  0.53786780637E+02  0.00000000000E+00 0.  1.
         14    1    6    6    0    0  0.12672566495E+02  0.61676103550E+02 -0.47422204856E+02  0.78825130536E+02  0.00000000000E+00 0. -1.
         -5    1    3    3    0  503  0.34900815574E+02  0.35274908533E+02 -0.10962504241E+03  0.12042477329E+03  0.47000000000E+01 0.  1.
         11    1    4    4    0    0 -0.26413750750E+02 -0.47753555023E+02 -0.11003287744E+03  0.12282232030E+03  0.00000000000E+00 0. -1.
        -12    1    4    4    0    0  0.34028303723E+01 -0.35630451771E+02  0.44883044085E+01  0.36072887664E+02  0.00000000000E+00 0.  1.
</event>
<event>
12    1  0.1738188E+000  0.1977656E+03  0.7818608E-02  0.1152289E+00
         21   -1    0    0  501  502  0.00000000000E+00  0.00000000000E+00  0.31739809051E+03  0.31739809051E+03  0.00000000000E+00 0.  1.
         21   -1    0    0  502  503 -0.00000000000E+00 -0.00000000000E+00 -0.15460639526E+04  0.15460639526E+04  0.00000000000E+00 0.  1.
         -6    2    1    2    0  503  0.88217867882E+02 -0.23552173681E+02  0.27971219938E+03  0.34256407370E+03  0.17542557684E+03 0.  0.
        -24    2    3    3    0    0  0.65624148742E+02 -0.44179443840E+02  0.28911513914E+03  0.31021495169E+03  0.79921213790E+02 0.  0.
          6    2    1    2  501    0 -0.88217867882E+02  0.23552173681E+02 -0.15083780615E+04  0.15208979694E+04  0.17201499919E+03 0.  0.
         24    2    5    5    0    0 -0.62936861958E+02  0.28545633435E+02 -0.49460038421E+03  0.50678193423E+03  0.86153856692E+02 0.  0.
          5    1    5    5  501    0 -0.25281005924E+02 -0.49934597540E+01 -0.10137776772E+04  0.10141160352E+04  0.47000000000E+01 0. -1.
        -13    1    6    6    0    0 -0.84924147993E+00  0.20877195242E+02 -0.33052292497E+03  0.33118270249E+03  0.00000000000E+00 0.  1.
         14    1    6    6    0    0 -0.62087620478E+02  0.76684381935E+01 -0.16407745924E+03  0.17559923175E+03  0.00000000000E+00 0. -1.
         -5    1    3    3    0  503  0.22593719139E+02  0.20627270159E+02 -0.94029397626E+01  0.32349122012E+02  0.47000000000E+01 0.  1.
         11    1    4    4    0    0  0.66902292331E+02  0.12098393711E+01  0.16477302979E+03  0.17784131066E+03  0.00000000000E+00 0. -1.
        -12    1    4    4    0    0 -0.12781435888E+01 -0.45389283211E+02  0.12434210935E+03  0.13237364103E+03  0.00000000000E+00 0.  1.
</event>
<event>
12    1  0.1066489E+000  0.4857083E+03  0.7818608E-02  0.1017594E+00
         21   -1    0    0  503  502  0.00000000000E+00  0.00000000000E+00  0.16037973749E+04  0.16037973749E+04  0.00000000000E+00 0.  1.
         21   -1    0    0  501  503 -0.00000000000E+00 -0.00000000000E+00 -0.17584037492E+03  0.17584037492E+03  0.00000000000E+00 0. -1.
          6    2    1    2  501    0  0.14965571252E+03  0.42930209569E+03  0.35361727327E+03  0.60060490757E+03  0.17024675441E+03 0.  0.
         24    2    3    3    0    0  0.15537383170E+03  0.42269403820E+03  0.36498923779E+03  0.58551269475E+03  0.82442067590E+02 0.  0.
         -6    2    1    2    0  502 -0.14965571252E+03 -0.42930209569E+03  0.10743397267E+04  0.11790328422E+04  0.17092534353E+03 0.  0.
        -24    2    5    5    0    0 -0.12943993886E+03 -0.17969796035E+03  0.54294342438E+03  0.59156793095E+03  0.78224037989E+02 0.  0.
          5    1    3    3  501    0 -0.57181191807E+01  0.66080574942E+01 -0.11371964518E+02  0.15092212820E+02  0.47000000000E+01 0. -1.
        -11    1    4    4    0    0  0.46973358682E+00  0.89431294394E+02  0.57351047538E+02  0.10624179837E+03  0.00000000000E+00 0.  1.
         12    1    4    4    0    0  0.15490409812E+03  0.33326274380E+03  0.30763819025E+03  0.47927089638E+03  0.00000000000E+00 0. -1.
         -5    1    5    5    0  502 -0.20215773662E+02 -0.24960413534E+03  0.53139630230E+03  0.58746491127E+03  0.47000000000E+01 0.  1.
         13    1    6    6    0    0 -0.42764648358E+02 -0.12481034131E+03  0.28940437895E+03  0.31805869112E+03  0.00000000000E+00 0. -1.
        -14    1    6    6    0    0 -0.86675290503E+02 -0.54887619042E+02  0.25353904544E+03  0.27350923982E+03  0.00000000000E+00 0.  1.
</event>
<event>
12    1  0.1066489E+000  0.2528745E+03  0.7818608E-02  0.1111609E+00
         21   -1    0    0  503  502  0.00000000000E+00  0.00000000000E+00  0.13097041615E+03  0.13097041615E+03  0.00000000000E+00 0. -1.
         21   -1    0    0  501  503 -0.00000000000E+00 -0.00000000000E+00 -0.48792144075E+03  0.48792144075E+03  0.00000000000E+00 0. -1.
          6    2    1    2  501    0  0.15881310488E+03  0.96344881465E+02 -0.19231749903E+03  0.31714737229E+03  0.17056522756E+03 0.  0.
         24    2    3    3    0    0  0.18350980720E+03  0.82854867654E+02 -0.19485462901E+03  0.28850414260E+03  0.68742529910E+02 0.  0.
         -6    2    1    2    0  502 -0.15881310488E+03 -0.96344881465E+02 -0.16463352557E+03  0.30174448461E+03  0.17158554073E+03 0.  0.
        -24    2    5    5    0    0 -0.42520346193E+02 -0.43235704148E+02 -0.92994181191E+01  0.10050988179E+03  0.79614390696E+02 0.  0.
          5    1    3    3  501    0 -0.24696702321E+02  0.13490013811E+02  0.25371299887E+01  0.28643229684E+02  0.47000000000E+01 0. -1.
        -11    1    4    4    0    0  0.10593636956E+03  0.68325486573E+02 -0.80537688577E+02  0.14959012599E+03  0.00000000000E+00 0.  1.
         12    1    4    4    0    0  0.77573437636E+02  0.14529381082E+02 -0.11431694044E+03  0.13891401662E+03  0.00000000000E+00 0. -1.
         -5    1    5    5    0  502 -0.11629275869E+03 -0.53109177317E+02 -0.15533410745E+03  0.20123460283E+03  0.47000000000E+01 0.  1.
         11    1    6    6    0    0 -0.55478130610E+01  0.10243395652E+02 -0.30077902084E+02  0.32255008573E+02  0.00000000000E+00 0. -1.
        -12    1    6    6    0    0 -0.36972533132E+02 -0.53479099800E+02  0.20778483965E+02  0.68254873214E+02  0.00000000000E+00 0.  1.
</event>
<event>
12    1  0.1066489E+000  0.1779036E+03  0.7818608E-02  0.1170482E+00
         21   -1    0    0  503  502  0.00000000000E+00  0.00000000000E+00  0.15996386045E+03  0.15996386045E+03  0.00000000000E+00 0. -1.
         21   -1    0    0  501  503 -0.00000000000E+00 -0.00000000000E+00 -0.26201934206E+03  0.26201934206E+03  0.00000000000E+00 0. -1.
          6    2    1    2  501    0  0.69176690826E+01 -0.33974796988E+02  0.55392100792E+02  0.18632758862E+03  0.17449224761E+03 0.  0.
         24    2    3    3    0    0 -0.51488137710E+02 -0.76576669020E+01  0.73243206468E+02  0.11965989347E+03  0.79020596205E+02 0.  0.
         -6    2    1    2    0  502 -0.69176690826E+01  0.33974796988E+02 -0.15744758240E+03  0.23565561388E+03  0.17187695068E+03 0.  0.
        -24    2    5    5    0    0 -0.17902877224E+02 -0.47971369821E+02 -0.10294818185E+03  0.13651872008E+03  0.73602088632E+02 0.  0.
          5    1    3    3  501    0  0.58405806792E+02 -0.26317130086E+02 -0.17851105677E+02  0.66667695152E+02  0.47000000000E+01 0. -1.
        -11    1    4    4    0    0 -0.50695703503E+02  0.24430460291E+02  0.24683494928E+02  0.61450603460E+02  0.00000000000E+00 0.  1.
         12    1    4    4    0    0 -0.79243420656E+00 -0.32088127193E+02  0.48559711540E+02  0.58209290011E+02  0.00000000000E+00 0. -1.
         -5    1    5    5    0  502  0.10985208141E+02  0.81946166808E+02 -0.54499400545E+02  0.99136893800E+02  0.47000000000E+01 0.  1.
         13    1    6    6    0    0 -0.97638014430E+01 -0.52510659090E+02 -0.11165047577E+03  0.12376804869E+03  0.00000000000E+00 0. -1.
        -14    1    6    6    0    0 -0.81390757810E+01  0.45392892690E+01  0.87022939159E+01  0.12750671395E+02  0.00000000000E+00 0.  1.
</event>
<event>
12    1  0.1066489E+000  0.2791950E+03  0.7818608E-02  0.1096519E+00
         21   -1    0    0  503  502  0.00000000000E+00  0.00000000000E+00  0.37393227946E+03  0.37393227946E+03  0.00000000000E+00 0.  1.
         21   -1    0    0  501  503 -0.00000000000E+00 -0.00000000000E+00 -0.30538485789E+03  0.30538485789E+03  0.00000000000E+00 0.  1.
          6    2    1    2  501    0  0.19507594056E+03  0.10338589108E+03  0.22781294412E+03  0.36034506927E+03  0.17089928724E+03 0.  0.
         24    2    3    3    0    0  0.76249773631E+02  0.33870281814E+02  0.18129500806E+03  0.21495563962E+03  0.79855012921E+02 0.  0.
         -6    2    1    2    0  502 -0.19507594056E+03 -0.10338589108E+03 -0.15926552255E+03  0.31897206808E+03  0.16623600236E+03 0.  0.
        -24    2    5    5    0    0 -0.11700506628E+03 -0.12407642446E+03 -0.14414367452E+03  0.23666824149E+03  0.78417555352E+02 0.  0.
          5    1    3    3  501    0  0.11882616693E+03  0.69515609266E+02  0.46517936064E+02  0.14538942965E+03  0.47000000000E+01 0. -1.
        -11    1    4    4    0    0 -0.50366120947E+01  0.30019436747E+02  0.27802125109E+02  0.41224897873E+02  0.00000000000E+00 0.  1.
         12    1    4    4    0    0  0.81286385726E+02  0.38508450671E+01  0.15349288295E+03  0.17373074175E+03  0.00000000000E+00 0. -1.
         -5    1    5    5    0  502 -0.78070874284E+02  0.20690533380E+02 -0.15121848039E+02  0.82303826588E+02  0.47000000000E+01 0.  1.
         13    1    6    6    0    0 -0.89932110105E+02 -0.94298436278E+02 -0.14685444741E+03  0.19633188288E+03  0.00000000000E+00 0. -1.
        -14    1    6    6    0    0 -0.27072956174E+02 -0.29777988183E+02  0.27107728963E+01  0.40336358610E+02  0.00000000000E+00 0.  1.
</event>
<event>
12    1  0.1066489E+000  0.3011457E+03  0.7818608E-02  0.1084719E+00
         21   -1    0    0  501  502  0.00000000000E+00  0.00000000000E+00  0.95959732967E+02  0.95959732967E+02  0.00000000000E+00 0.  1.
         21   -1    0    0  502  503 -0.00000000000E+00 -0.00000000000E+00 -0.95627710206E+03  0.95627710206E+03  0.00000000000E+00 0.  1.
         -6    2    1    2    0  503 -0.23327155450E+03  0.81817532833E+02 -0.48991948774E+03  0.57486554812E+03  0.17128796551E+03 0.  0.
        -24    2    3    3    0    0 -0.17977612944E+03  0.11138844256E+03 -0.30473620085E+03  0.37979853669E+03  0.81583910844E+02 0.  0.
          6    2    1    2  501    0  0.23327155450E+03 -0.81817532833E+02 -0.37039788135E+03  0.47737128690E+03  0.17198554659E+03 0.  0.
         24    2    5    5    0    0  0.38937311239E+02 -0.54793914671E+02 -0.10623914362E+03  0.14828466797E+03  0.78632689300E+02 0.  0.
          5    1    5    5  501    0  0.19433424326E+03 -0.27023618162E+02 -0.26415873773E+03  0.32908661893E+03  0.47000000000E+01 0. -1.
        -13    1    6    6    0    0  0.51354351393E+02 -0.67565193286E+02 -0.94167757607E+02  0.12676707508E+03  0.00000000000E+00 0.  1.
         14    1    6    6    0    0 -0.12417040154E+02  0.12771278615E+02 -0.12071386012E+02  0.21517592893E+02  0.00000000000E+00 0. -1.
         -5    1    3    3    0  503 -0.53495425062E+02 -0.29570909732E+02 -0.18518328689E+03  0.19506701143E+03  0.47000000000E+01 0.  1.
         13    1    4    4    0    0 -0.15760570104E+03  0.77579436607E+02 -0.28504943305E+03  0.33483026336E+03  0.00000000000E+00 0. -1.
        -14    1    4    4    0    0 -0.22170428403E+02  0.33809005958E+02 -0.19686767807E+02  0.44968273328E+02  0.00000000000E+00 0.  1.
</event>
<event>
12    1  0.1066489E+000  0.2080661E+03  0.7818608E-02  0.1143353E+00
         21   -1    0    0  503  502  0.00000000000E+00  0.00000000000E+00  0.60609865976E+03  0.60609865976E+03  0.00000000000E+00 0. -1.
         21   -1    0    0  501  503 -0.00000000000E+00 -0.00000000000E+00 -0.91248364088E+02  0.91248364088E+02  0.00000000000E+00 0. -1.
          6    2    1    2  501    0  0.42205105167E+01 -0.11572787848E+03  0.93795245925E+02  0.22823024957E+03  0.17286047580E+03 0.  0.
         24    2    3    3    0    0  0.91057417171E+01 -0.13400631731E+03  0.11934968477E+03  0.19608859195E+03  0.78522487389E+02 0.  0.
         -6    2    1    2    0  502 -0.42205105167E+01  0.11572787848E+03  0.42105504975E+03  0.46911677428E+03  0.17138389197E+03 0.  0.
        -24    2    5    5    0    0 -0.27548500449E+02  0.13060571218E+03  0.23758975463E+03  0.28351734120E+03  0.78207540063E+02 0.  0.
          5    1    3    3  501    0 -0.48852312004E+01  0.18278438832E+02 -0.25554438844E+02  0.32141657621E+02  0.47000000000E+01 0. -1.
        -13    1    4    4    0    0 -0.10673890778E+02 -0.16269473725E+02 -0.84378292391E+01  0.21209070746E+02  0.00000000000E+00 0.  1.
         14    1    4    4    0    0  0.19779632495E+02 -0.11773684358E+03  0.12778751401E+03  0.17487952120E+03  0.00000000000E+00 0. -1.
         -5    1    5    5    0  502  0.23327989932E+02 -0.14877833700E+02  0.18346529511E+03  0.18559943308E+03  0.47000000000E+01 0.  1.
         11    1    6    6    0    0 -0.45530308921E+02  0.64321885740E+02  0.83502880366E+02  0.11481744225E+03  0.00000000000E+00 0. -1.
        -12    1    6    6    0    0  0.17981808473E+02  0.66283826437E+02  0.15408687427E+03  0.16869989895E+03  0.00000000000E+00 0.  1.
</event>
<event>
12    1  0.1066489E+000  0.2324458E+03  0.7818608E-02  0.1124943E+00
         21   -1    0    0  501  502  0.00000000000E+00  0.00000000000E+00  0.38652165781E+02  0.38652165781E+02  0.00000000000E+00 0.  1.
         21   -1    0    0  502  503 -0.00000000000E+00 -0.00000000000E+00 -0.16547376413E+04  0.16547376413E+04  0.00000000000E+00 0.  1.
         -6    2    1    2    0  503  0.13878130947E+03 -0.72284291059E+02 -0.47427539367E+03  0.52817438318E+03  0.17188879957E+03 0.  0.
        -24    2    3    3    0    0  0.25901883650E+02  0.14102604010E+02 -0.23276603172E+03  0.24790072705E+03  0.80030956086E+02 0.  0.
          6    2    1    2  501    0 -0.13878130947E+03  0.72284291059E+02 -0.11418100818E+04  0.11652154239E+04  0.17178897079E+03 0.  0.
         24    2    5    5    0    0 -0.37545436868E+02  0.72968369746E+02 -0.38080296822E+03  0.39748950479E+03  0.79075678973E+02 0.  0.
          5    1    5    5  501    0 -0.10123587260E+03 -0.68407868658E+00 -0.76100711363E+03  0.76772591910E+03  0.47000000000E+01 0. -1.
        -11    1    6    6    0    0  0.19577636558E+01  0.32303740014E+02 -0.27978241988E+03  0.28164794857E+03  0.00000000000E+00 0.  1.
         12    1    6    6    0    0 -0.39503200524E+02  0.40664629732E+02 -0.10102054833E+03  0.11584155622E+03  0.00000000000E+00 0. -1.
         -5    1    3    3    0  503  0.11287942582E+03 -0.86386895069E+02 -0.24150936194E+03  0.28027365613E+03  0.47000000000E+01 0.  1.
         13    1    4    4    0    0  0.40680244685E+02 -0.22015398177E+02 -0.12834201327E+03  0.13642299086E+03  0.00000000000E+00 0. -1.
        -14    1    4    4    0    0 -0.14778361035E+02  0.36118002187E+02 -0.10442401845E+03  0.11147773619E+03  0.00000000000E+00 0.  1.
</event>
<event>
12    1  0.1066489E+000  0.4121117E+03  0.7818608E-02  0.1039717E+00
         21   -1    0    0  503  502  0.00000000000E+00  0.00000000000E+00  0.10397886622E+04  0.10397886622E+04  0.00000000000E+00 0. -1.
         21   -1    0    0  501  503 -0.00000000000E+00 -0.00000000000E+00 -0.17330352097E+03  0.17330352097E+03  0.00000000000E+00 0. -1.
          6    2    1    2  501    0 -0.12901714095E+03  0.35120444533E+03  0.28568649215E+03  0.50093832176E+03  0.17126717529E+03 0.  0.
         24    2    3    3    0    0 -0.15278716818E+03  0.23218529968E+03  0.20763596394E+03  0.35656191725E+03  0.82278643407E+02 0.  0.
         -6    2    1    2    0  502  0.12901714095E+03 -0.35120444533E+03  0.58079864912E+03  0.71215386146E+03  0.17276014149E+03 0.  0.
        -24    2    5    5    0    0  0.11401810414E+03 -0.28022469569E+03  0.34715592472E+03  0.46746199680E+03  0.80482757380E+02 0.  0.
          5    1    3    3  501    0  0.23770027231E+02  0.11901914565E+03  0.78050528211E+02  0.14437640451E+03  0.47000000000E+01 0. -1.
        -13    1    4    4    0    0 -0.13805079469E+03  0.20004565336E+03  0.20988217535E+03  0.32113363709E+03  0.00000000000E+00 0.  1.
         14    1    4    4    0    0 -0.14736373497E+02  0.32139646321E+02 -0.22462114039E+01  0.35428280161E+02  0.00000000000E+00 0. -1.
         -5    1    5    5    0  502  0.14999036812E+02 -0.70979749639E+02  0.23364272440E+03  0.24469186466E+03  0.47000000000E+01 0.  1.
         11    1    6    6    0    0  0.23270340083E+02 -0.15239386335E+03  0.19934658728E+03  0.25200091304E+03  0.00000000000E+00 0. -1.
        -12    1    6    6    0    0  0.90747764059E+02 -0.12783083234E+03  0.14780933744E+03  0.21546108375E+03  0.00000000000E+00 0.  1.
</event>
<event>
12    1  0.1066489E+000  0.2883448E+03  0.7818608E-02  0.1091248E+00
         21   -1    0    0  503  502  0.00000000000E+00  0.00000000000E+00  0.87842249911E+03  0.87842249911E+03  0.00000000000E+00 0. -1.
         21   -1    0    0  501  503 -0.00000000000E+00 -0.00000000000E+00 -0.10293435833E+03  0.10293435833E+03  0.00000000000E+00 0. -1.
          6    2    1    2  501    0  0.22617968175E+03 -0.49148972445E+02  0.52746029934E+03  0.60101422914E+03  0.17155426639E+03 0.  0.
         24    2    3    3    0    0  0.13731841351E+03 -0.90679016482E+02  0.39866896906E+03  0.43905631390E+03  0.82185577626E+02 0.  0.
         -6    2    1    2    0  502 -0.22617968175E+03  0.49148972445E+02  0.24802784144E+03  0.38034262830E+03  0.17195881729E+03 0.  0.
        -24    2    5    5    0    0 -0.77782844760E+02  0.80794770418E+02  0.10439232113E+03  0.17135379976E+03  0.76722891740E+02 0.  0.
          5    1    3    3  501    0  0.88861268238E+02  0.41530044037E+02  0.12879133028E+03  0.16195791523E+03  0.47000000000E+01 0. -1.
        -13    1    4    4    0    0  0.12215380863E+03 -0.49849223073E+02  0.34839483445E+03  0.37253920421E+03  0.00000000000E+00 0.  1.
         14    1    4    4    0    0  0.15164604878E+02 -0.40829793409E+02  0.50274134607E+02  0.66517109690E+02  0.00000000000E+00 0. -1.
         -5    1    5    5    0  502 -0.14839683699E+03 -0.31645797973E+02  0.14363552031E+03  0.20898882853E+03  0.47000000000E+01 0.  1.
         13    1    6    6    0    0  0.13489959606E+02  0.25217411641E+02  0.27744798573E+02  0.39845585802E+02  0.00000000000E+00 0. -1.
        -14    1    6    6    0    0 -0.91272804366E+02  0.55577358777E+02  0.76647522556E+02  0.13150821396E+03  0.00000000000E+00 0.  1.
</event>
<event>
12    1  0.1066489E+000  0.1854943E+03  0.7818608E-02  0.1162875E+00
         21   -1    0    0  503  502  0.00000000000E+00  0.00000000000E+00  0.12312423591E+03  0.12312423591E+03  0.00000000000E+00 0.  1.
         21   -1    0    0  501  503 -0.00000000000E+00 -0.00000000000E+00 -0.43669231303E+03  0.43669231303E+03  0.00000000000E+00 0.  1.
          6    2    1    2  501    0 -0.21241931243E+02  0.65428037793E+02  0.11824237275E+02  0.18587076539E+03  0.17226746956E+03 0.  0.
         24    2    3    3    0    0 -0.72921499397E+02  0.23236960837E+02  0.33631452146E+02  0.11552512331E+03  0.79733795345E+02 0.  0.
         -6    2    1    2    0  502  0.21241931243E+02 -0.65428037793E+02 -0.32539231440E+03  0.37394578355E+03  0.17094807104E+03 0.  0.
        -24    2    5    5    0    0  0.46725795398E+02 -0.10275295199E+03 -0.22110082241E+03  0.26018558905E+03  0.77906982867E+02 0.  0.
          5    1    3    3  501    0  0.51679568154E+02  0.42191076955E+02 -0.21807214871E+02  0.70345642080E+02  0.47000000000E+01 0. -1.
        -13    1    4    4    0    0  0.17008995910E+02  0.88313161674E+01  0.27851336767E+01  0.19366338237E+02  0.00000000000E+00 0.  1.
         14    1    4    4    0    0 -0.89930495307E+02  0.14405644670E+02  0.30846318469E+02  0.96158785077E+02  0.00000000000E+00 0. -1.
         -5    1    5    5    0  502 -0.25483864155E+02  0.37324914198E+02 -0.10429149198E+03  0.11376019450E+03  0.47000000000E+01 0.  1.
         13    1    6    6    0    0  0.46211477375E+02 -0.83724878909E+02 -0.22137588223E+03  0.24114857914E+03  0.00000000000E+00 0. -1.
        -14    1    6    6    0    0  0.51431802312E+00 -0.19028073082E+02  0.27505981951E+00  0.19037009905E+02  0.00000000000E+00 0.  1.
</event>
<event>
12    1  0.1066489E+000  0.1880506E+03  0.7818608E-02  0.1161099E+00
         21   -1    0    0  503  502  0.00000000000E+00  0.00000000000E+00  0.31031071805E+03  0.31031071805E+03  0.00000000000E+00 0. -1.
         21   -1    0    0  501  503 -0.00000000000E+00 -0.00000000000E+00 -0.11775962347E+03  0.11775962347E+03  0.00000000000E+00 0. -1.
          6    2    1    2  501    0 -0.57672424119E+02 -0.40169021699E+02  0.46786798963E+02  0.19014120560E+03  0.17036729352E+03 0.  0.
         24    2    3    3    0    0 -0.16302901892E+02  0.35360696018E+02 -0.57063041573E+01  0.89176897538E+02  0.80023707203E+02 0.  0.
         -6    2    1    2    0  502  0.57672424119E+02  0.40169021699E+02  0.14576429561E+03  0.23792913592E+03  0.17442300603E+03 0.  0.
        -24    2    5    5    0    0 -0.10310876759E+02 -0.18694117145E+02  0.11685396570E+03  0.14335379300E+03  0.80247594796E+02 0.  0.
          5    1    3    3  501    0 -0.41369522228E+02 -0.75529717717E+02  0.52493103120E+02  0.10096430806E+03  0.47000000000E+01 0. -1.
        -13    1    4    4    0    0 -0.48222747280E+01 -0.20961304392E+02 -0.20617084493E+02  0.29794207295E+02  0.00000000000E+00 0.  1.
         14    1    4    4    0    0 -0.11480627164E+02  0.56322000410E+02  0.14910780336E+02  0.59382690243E+02  0.00000000000E+00 0. -1.
         -5    1    5    5    0  502  0.67983300879E+02  0.58863138843E+02  0.28910329912E+02  0.94575342920E+02  0.47000000000E+01 0.  1.
         11    1    6    6    0    0 -0.22991369512E+02 -0.29259008770E+02  0.14918177831E+02  0.40090456421E+02  0.00000000000E+00 0. -1.
        -12    1    6    6    0    0  0.12680492753E+02  0.10564891626E+02  0.10193578787E+03  0.10326333658E+03  0.00000000000E+00 0.  1.
</event>
<event>
12    1  0.1066489E+000  0.2937158E+03  0.7818608E-02  0.1088552E+00
         21   -1    0    0  503  502  0.00000000000E+00  0.00000000000E+00  0.58961754492E+03  0.58961754492E+03  0.00000000000E+00 0. -1.
         21   -1    0    0  501  503 -0.00000000000E+00 -0.00000000000E+00 -0.16779498037E+03  0.16779498037E+03  0.00000000000E+00 0. -1.
          6    2    1    2  501    0  0.98778974013E+02 -0.21553019779E+03  0.34826936389E+03  0.45558811486E+03  0.17337366787E+03 0.  0.
         24    2    3    3    0    0  0.85273710585E+02 -0.14864652365E+03  0.13366152142E+03  0.23034505935E+03  0.76328561807E+02 0.  0.
         -6    2    1    2    0  502 -0.98778974013E+02  0.21553019779E+03  0.73553200665E+02  0.30182441043E+03  0.17168968967E+03 0.  0.
        -24    2    5    5    0    0  0.10628305181E+02  0.63912725452E+02  0.47047564364E+02  0.11292642364E+03  0.79631064901E+02 0.  0.
          5    1    3    3  501    0  0.13505263427E+02 -0.66883674134E+02  0.21460784247E+03  0.22524305551E+03  0.47000000000E+01 0. -1.
        -11    1    4    4    0    0  0.42317120167E+02 -0.13431070295E+02  0.44033645573E+02  0.62530746445E+02  0.00000000000E+00 0.  1.
         12    1    4    4    0    0  0.42956590418E+02 -0.13521545336E+03  0.89627875851E+02  0.16781431291E+03  0.00000000000E+00 0. -1.
         -5    1    5    5    0  502 -0.10940727919E+03  0.15161747233E+03  0.26505636301E+02  0.18889798679E+03  0.47000000000E+01 0.  1.
         11    1    6    6    0    0 -0.35096991821E-02  0.56508039645E+02  0.67924032864E+02  0.88356283293E+02  0.00000000000E+00 0. -1.
        -12    1    6    6    0    0  0.10631814881E+02  0.74046858075E+01 -0.20876468500E+02  0.24570140345E+02  0.00000000000E+00 0.  1.
</event>
<event>
12    1  0.1066489E+000  0.1978157E+03  0.7818608E-02  0.1151719E+00
         21   -1    0    0  501  502  0.00000000000E+00  0.00000000000E+00  0.15760265545E+04  0.15760265545E+04  0.00000000000E+00 0.  1.
         21   -1    0    0  502  503 -0.00000000000E+00 -0.00000000000E+00 -0.33961270908E+02  0.33961270908E+02  0.00000000000E+00 0.  1.
         -6    2    1    2    0  503  0.35149079021E+02  0.89679622889E+02  0.11909446708E+04  0.12072614659E+04  0.17278062852E+03 0.  0.
        -24    2    3    3    0    0 -0.37464877050E+02  0.35419453501E+02  0.40834065695E+03  0.41941117231E+03  0.80656584605E+02 0.  0.
          6    2    1    2  501    0 -0.35149079021E+02 -0.89679622889E+02  0.35112061277E+03  0.40272635949E+03  0.17211898038E+03 0.  0.
         24    2    5    5    0    0  0.17147847006E+01 -0.68643711974E+01  0.71885009343E+02  0.10910769084E+03  0.81773917325E+02 0.  0.
          5    1    5    5  501    0 -0.36863863722E+02 -0.82815251692E+02  0.27923560342E+03  0.29361866865E+03  0.47000000000E+01 0. -1.
        -13    1    6    6    0    0 -0.56386010359E+01 -0.36855919013E+02  0.79745357114E+01  0.38128018670E+02  0.00000000000E+00 0.  1.
         14    1    6    6    0    0  0.73533857365E+01  0.29991547815E+02  0.63910473632E+02  0.70979672175E+02  0.00000000000E+00 0. -1.
         -5    1    3    3    0  503  0.72613956071E+02  0.54260169388E+02  0.78260401389E+03  0.78785029361E+03  0.47000000000E+01 0.  1.
         13    1    4    4    0    0  0.14645802544E+02  0.37488092796E+02  0.23404942976E+03  0.23748471994E+03  0.00000000000E+00 0. -1.
        -14    1    4    4    0    0 -0.52110679594E+02 -0.20686392951E+01  0.17429122719E+03  0.18192645237E+03  0.00000000000E+00 0.  1.
</event>
<event>
12    1  0.1066489E+000  0.3436140E+03  0.7818608E-02  0.1065307E+00
         21   -1    0    0  501  502  0.00000000000E+00  0.00000000000E+00  0.12282092703E+03  0.12282092703E+03  0.00000000000E+00 0. -1.
         21   -1    0    0  502  503 -0.00000000000E+00 -0.00000000000E+00 -0.10002792486E+04  0.10002792486E+04  0.00000000000E+00 0. -1.
         -6    2    1    2    0  503 -0.26670148603E+03  0.13140520314E+03 -0.32664830693E+03  0.47409882595E+03  0.17226018195E+03 0.  0.
        -24    2    3    3    0    0 -0.17731994843E+03  0.69462297580E+02 -0.11644054274E+03  0.23738089900E+03  0.80770764034E+02 0.  0.
          6    2    1    2  501    0  0.26670148603E+03 -0.13140520314E+03 -0.55081001465E+03  0.64900134968E+03  0.17150530483E+03 0.  0.
         24    2    5    5    0    0  0.45884118144E+02 -0.14109527960E+02 -0.16212660752E+03  0.18681581729E+03  0.79439798876E+02 0.  0.
          5    1    5    5  501    0  0.22081736789E+03 -0.11729567518E+03 -0.38868340713E+03  0.46218553239E+03  0.47000000000E+01 0. -1.
        -13    1    6    6    0    0  0.67227241529E+02 -0.92642904346E+01 -0.99196739365E+02  0.12018869407E+03  0.00000000000E+00 0.  1.
         14    1    6    6    0    0 -0.21343123386E+02 -0.48452375252E+01 -0.62929868156E+02  0.66627123221E+02  0.00000000000E+00 0. -1.
         -5    1    3    3    0  503 -0.89381537604E+02  0.61942905560E+02 -0.21020776418E+03  0.23671792694E+03  0.47000000000E+01 0.  1.
         11    1    4    4    0    0 -0.35309192103E+02  0.50982433430E+02 -0.49255199864E+02  0.79196100150E+02  0.00000000000E+00 0. -1.
        -12    1    4    4    0    0 -0.14201075632E+03  0.18479864150E+02 -0.67185342880E+02  0.15818479885E+03  0.00000000000E+00 0.  1.
</event>
<event>
12    1  0.1066489E+000  0.2353822E+03  0.7818608E-02  0.1123113E+00
         21   -1    0    0  503  502  0.00000000000E+00  0.00000000000E+00  0.10222729291E+03  0.10222729291E+03  0.00000000000E+00 0. -1.
         21   -1    0    0  501  503 -0.00000000000E+00 -0.00000000000E+00 -0.54132369134E+03  0.54132369134E+03  0.00000000000E+00 0. -1.
          6    2    1    2  501    0 -0.51023605420E+02  0.15059068615E+03 -0.19893481554E+03  0.30727378363E+03  0.17193357499E+03 0.  0.
         24    2    3    3    0    0 -0.25411056544E+02  0.17728043054E+03 -0.17569314933E+03  0.26333507446E+03  0.80020034171E+02 0.  0.
         -6    2    1    2    0  502  0.51023605420E+02 -0.15059068615E+03 -0.24016158289E+03  0.33627720062E+03  0.17356211192E+03 0.  0.
        -24    2    5    5    0    0  0.70388070030E+02 -0.16790491924E+03 -0.17063956989E+03  0.26191211843E+03  0.79583620538E+02 0.  0.
          5    1    3    3  501    0 -0.25612548877E+02 -0.26689744394E+02 -0.23241666203E+02  0.43938709172E+02  0.47000000000E+01 0. -1.
        -11    1    4    4    0    0 -0.16885080615E+02  0.42006704825E+02 -0.95901262855E+02  0.10605056065E+03  0.00000000000E+00 0.  1.
         12    1    4    4    0    0 -0.85259759284E+01  0.13527372572E+03 -0.79791886480E+02  0.15728451380E+03  0.00000000000E+00 0. -1.
         -5    1    5    5    0  502 -0.19364464610E+02  0.17314233097E+02 -0.69522013003E+02  0.74365082192E+02  0.47000000000E+01 0.  1.
         11    1    6    6    0    0  0.23827468526E+02 -0.10804968861E+02 -0.11789294358E+01  0.26189415478E+02  0.00000000000E+00 0. -1.
        -12    1    6    6    0    0  0.46560601504E+02 -0.15709995038E+03 -0.16946064045E+03  0.23572270295E+03  0.00000000000E+00 0.  1.
</event>
<event>
12    1  0.1066489E+000  0.3636614E+03  0.7818608E-02  0.1057311E+00
         21   -1    0    0  501  502  0.00000000000E+00  0.00000000000E+00  0.38846480157E+03  0.38846480157E+03  0.00000000000E+00 0. -1.
         21   -1    0    0  502  503 -0.00000000000E+00 -0.00000000000E+00 -0.41365546672E+03  0.41365546672E+03  0.00000000000E+00 0.  1.
         -6    2    1    2    0  503 -0.51942213816E+02 -0.31596273839E+03  0.15798586518E+03  0.39493084644E+03  0.16876135292E+03 0.  0.
        -24    2    3    3    0    0  0.33981258143E+02 -0.12247500836E+03  0.57384638607E+02  0.16048886748E+03  0.79428120085E+02 0.  0.
          6    2    1    2  501    0  0.51942213816E+02  0.31596273839E+03 -0.18317653033E+03  0.40718942185E+03  0.17239239650E+03 0.  0.
         24    2    5    5    0    0  0.62668112643E+02  0.26003086792E+03 -0.81157904425E+02  0.29025649632E+03  0.78223293149E+02 0.  0.
          5    1    5    5  501    0 -0.10725898828E+02  0.55931870470E+02 -0.10201862591E+03  0.11693292553E+03  0.47000000000E+01 0. -1.
        -11    1    6    6    0    0  0.62059294838E+02  0.15600069337E+03 -0.80569141053E+02  0.18622287426E+03  0.00000000000E+00 0.  1.
         12    1    6    6    0    0  0.60881780543E+00  0.10403017456E+03 -0.58876337145E+00  0.10403362207E+03  0.00000000000E+00 0. -1.
         -5    1    3    3    0  503 -0.85923471959E+02 -0.19348773003E+03  0.10060122657E+03  0.23444197895E+03  0.47000000000E+01 0.  1.
         11    1    4    4    0    0  0.84252165522E+01 -0.37767878325E+02 -0.19446406227E+02  0.43307731668E+02  0.00000000000E+00 0. -1.
        -12    1    4    4    0    0  0.25556041591E+02 -0.84707130035E+02  0.76831044834E+02  0.11718113581E+03  0.00000000000E+00 0.  1.
</event>
<event>
12    1  0.1066489E+000  0.1976225E+03  0.7818608E-02  0.1152937E+00
         21   -1    0    0  503  502  0.00000000000E+00  0.00000000000E+00  0.15253414024E+03  0.15253414024E+03  0.00000000000E+00 0. -1.
         21   -1    0    0  501  503 -0.00000000000E+00 -0.00000000000E+00 -0.26869254947E+03  0.26869254947E+03  0.00000000000E+00 0. -1.
          6    2    1    2  501    0  0.82920848123E+02 -0.34532534198E+02 -0.43169517917E+00  0.19221291359E+03  0.16993308924E+03 0.  0.
         24    2    3    3    0    0  0.10695774584E+03 -0.71715658639E+02 -0.13297903586E+02  0.14586653818E+03  0.67209505528E+02 0.  0.
         -6    2    1    2    0  502 -0.82920848123E+02  0.34532534198E+02 -0.11572671405E+03  0.22901377612E+03  0.17602918604E+03 0.  0.
        -24    2    5    5    0    0 -0.10609425613E+02 -0.41270138012E+02 -0.52519279115E+02  0.10657090466E+03  0.82360784593E+02 0.  0.
          5    1    3    3  501    0 -0.24036897714E+02  0.37183124441E+02  0.12866208407E+02  0.46346375411E+02  0.47000000000E+01 0. -1.
        -13    1    4    4    0    0  0.83094236032E+02 -0.51452109644E+02 -0.39132204917E+02  0.10527725828E+03  0.00000000000E+00 0.  1.
         14    1    4    4    0    0  0.23863509806E+02 -0.20263548995E+02  0.25834301331E+02  0.40589279907E+02  0.00000000000E+00 0. -1.
         -5    1    5    5    0  502 -0.72311422509E+02  0.75802672210E+02 -0.63207434931E+02  0.12244287145E+03  0.47000000000E+01 0.  1.
         13    1    6    6    0    0 -0.26707123365E+01  0.20562813886E+02  0.54533444659E+01  0.21440638637E+02  0.00000000000E+00 0. -1.
        -14    1    6    6    0    0 -0.79387132770E+01 -0.61832951898E+02 -0.57972623581E+02  0.85130266027E+02  0.00000000000E+00 0.  1.
</event>
<event>
12    1  0.1066489E+000  0.2688642E+03  0.7818608E-02  0.1102004E+00
         21   -1    0    0  503  502  0.00000000000E+00  0.00000000000E+00  0.42971745650E+03  0.42971745650E+03  0.00000000000E+00 0. -1.
         21   -1    0    0  501  503 -0.00000000000E+00 -0.00000000000E+00 -0.17326724802E+03  0.17326724802E+03  0.00000000000E+00 0. -1.
          6    2    1    2  501    0  0.19835579956E+03  0.56934433831E+02  0.75075351655E+02  0.27866267056E+03  0.17155180723E+03 0.  0.
         24    2    3    3    0    0  0.83928569273E+02  0.91256197202E+02  0.57183416620E+02  0.15777517819E+03  0.79065576888E+02 0.  0.
         -6    2    1    2    0  502 -0.19835579956E+03 -0.56934433831E+02  0.18137485683E+03  0.32432203397E+03  0.17234091230E+03 0.  0.
        -24    2    5    5    0    0 -0.10488266769E+03 -0.22571956968E+02  0.17921947989E+03  0.22459870748E+03  0.82553559617E+02 0.  0.
          5    1    3    3  501    0  0.11442723029E+03 -0.34321763371E+02  0.17891935035E+02  0.12088749237E+03  0.47000000000E+01 0. -1.
        -13    1    4    4    0    0  0.83081766105E+02  0.59007251780E+02  0.12506593402E+02  0.10266864419E+03  0.00000000000E+00 0.  1.
         14    1    4    4    0    0  0.84680316850E+00  0.32248945422E+02  0.44676823218E+02  0.55106533998E+02  0.00000000000E+00 0. -1.
         -5    1    5    5    0  502 -0.93473131864E+02 -0.34362476863E+02  0.21553769400E+01  0.99723326491E+02  0.47000000000E+01 0.  1.
         13    1    6    6    0    0 -0.10759051061E+03 -0.57731038139E+01  0.17730511491E+03  0.20747566237E+03  0.00000000000E+00 0. -1.
        -14    1    6    6    0    0  0.27078429159E+01 -0.16798853154E+02  0.19143649740E+01  0.17123045109E+02  0.00000000000E+00 0.  1.
</event>
<event>
12    1  0.1066489E+000  0.1963305E+03  0.7818608E-02  0.1153674E+00
         21   -1    0    0  501  502  0.00000000000E+00  0.00000000000E+00  0.32789738130E+03  0.32789738130E+03  0.00000000000E+00 0.  1.
         21   -1    0    0  502  503 -0.00000000000E+00 -0.00000000000E+00 -0.18956682117E+03  0.18956682117E+03  0.00000000000E+00 0. -1.
         -6    2    1    2    0  503 -0.80658734863E+02 -0.30897881094E+02  0.23143234131E+03  0.30349066273E+03  0.17630979325E+03 0.  0.
        -24    2    3    3    0    0 -0.22206340845E+02  0.49648165514E+02  0.11734689643E+03  0.15202473678E+03  0.79894709327E+02 0.  0.
          6    2    1    2  501    0  0.80658734863E+02  0.30897881094E+02 -0.93101781176E+02  0.21397353974E+03  0.17220982400E+03 0.  0.
         24    2    5    5    0    0  0.97157704313E+01 -0.30418821020E+02 -0.49778842770E+01  0.85208042162E+02  0.78841171033E+02 0.  0.
          5    1    5    5  501    0  0.70942964432E+02  0.61316702114E+02 -0.88123896899E+02  0.12876549757E+03  0.47000000000E+01 0. -1.
        -13    1    6    6    0    0  0.13798909314E+02 -0.38853885851E+02  0.28709072640E+02  0.50241866962E+02  0.00000000000E+00 0.  1.
         14    1    6    6    0    0 -0.40831388823E+01  0.84350648309E+01 -0.33686956917E+02  0.34966175201E+02  0.00000000000E+00 0. -1.
         -5    1    3    3    0  503 -0.58452394019E+02 -0.80546046609E+02  0.11408544489E+03  0.15146592596E+03  0.47000000000E+01 0.  1.
         11    1    4    4    0    0 -0.55869516303E+01  0.63438164216E+01 -0.11962539143E+02  0.14647879644E+02  0.00000000000E+00 0. -1.
        -12    1    4    4    0    0 -0.16619389214E+02  0.43304349093E+02  0.12930943557E+03  0.13737685713E+03  0.00000000000E+00 0.  1.
</event>
<event>
12    1  0.1066489E+000  0.2609965E+03  0.7818608E-02  0.1106828E+00
         21   -1    0    0  503  502  0.00000000000E+00  0.00000000000E+00  0.42019298640E+03  0.42019298640E+03  0.00000000000E+00 0.  1.
         21   -1    0    0  501  503 -0.00000000000E+00 -0.00000000000E+00 -0.19191202873E+03  0.19191202873E+03  0.00000000000E+00 0. -1.
          6    2    1    2  501    0  0.17125685542E+03 -0.92188612798E+02 -0.91369796571E+01  0.25927864492E+03  0.17121413627E+03 0.  0.
         24    2    3    3    0    0  0.16280976910E+03 -0.58441139382E+02  0.43255360382E+02  0.19621286558E+03  0.81890626641E+02 0.  0.
         -6    2    1    2    0  502 -0.17125685542E+03  0.92188612798E+02  0.23741793733E+03  0.35282637020E+03  0.17404459109E+03 0.  0.
        -24    2    5    5    0    0 -0.19083711008E+03  0.10805311103E+03  0.19862873115E+03  0.30633162649E+03  0.79318441500E+02 0.  0.
          5    1    3    3  501    0  0.84470863212E+01 -0.33747473416E+02 -0.52392340039E+02  0.63065779342E+02  0.47000000000E+01 0. -1.
        -13    1    4    4    0    0  0.12250238832E+02 -0.35107947837E+02  0.19591285778E+02  0.42029214021E+02  0.00000000000E+00 0.  1.
         14    1    4    4    0    0  0.15055953026E+03 -0.23333191545E+02  0.23664074604E+02  0.15418365156E+03  0.00000000000E+00 0. -1.
         -5    1    5    5    0  502  0.19580254666E+02 -0.15864498231E+02  0.38789206180E+02  0.46494743713E+02  0.47000000000E+01 0.  1.
         11    1    6    6    0    0 -0.12367735758E+03  0.85025462882E+02  0.17709907415E+03  0.23214112126E+03  0.00000000000E+00 0. -1.
        -12    1    6    6    0    0 -0.67159752500E+02  0.23027648146E+02  0.21529656998E+02  0.74190505225E+02  0.00000000000E+00 0.  1.
</event>
<event>
12    1  0.1066489E+000  0.2820239E+03  0.7818608E-02  0.1094697E+00
         21   -1    0    0  501  502  0.00000000000E+00  0.00000000000E+00  0.10428209208E+03  0.10428209208E+03  0.00000000000E+00 0. -1.
         21   -1    0    0  502  503 -0.00000000000E+00 -0.00000000000E+00 -0.90507465180E+03  0.90507465180E+03  0.00000000000E+00 0. -1.
         -6    2    1    2    0  503  0.22061844613E+03 -0.25550497033E+02 -0.19825409780E+03  0.34408229901E+03  0.17251844693E+03 0.  0.
        -24    2    3    3    0    0  0.12894942324E+03  0.31968622629E+02 -0.61110866125E+02  0.16931956020E+03  0.85350037615E+02 0.  0.
          6    2    1    2  501    0 -0.22061844613E+03  0.25550497033E+02 -0.60253846192E+03  0.66527444487E+03  0.17381646136E+03 0.  0.
         24    2    5    5    0    0 -0.10358095120E+03  0.70724164580E+02 -0.24924776999E+03  0.29034133289E+03  0.80266542420E+02 0.  0.
          5    1    5    5  501    0 -0.11703749492E+03 -0.45173667547E+02 -0.35329069193E+03  0.37493311198E+03  0.47000000000E+01 0. -1.
        -13    1    6    6    0    0 -0.25541006160E+02  0.39567181255E+02 -0.30755728914E+02  0.56247841639E+02  0.00000000000E+00 0.  1.
         14    1    6    6    0    0 -0.78039945045E+02  0.31156983326E+02 -0.21849204108E+03  0.23409349125E+03  0.00000000000E+00 0. -1.
         -5    1    3    3    0  503  0.91669022881E+02 -0.57519119662E+02 -0.13714323167E+03  0.17476273881E+03  0.47000000000E+01 0.  1.
         13    1    4    4    0    0  0.28996031172E+02 -0.27897489591E+02 -0.69385741650E+01  0.40831159188E+02  0.00000000000E+00 0. -1.
        -14    1    4    4    0    0  0.99953392073E+02  0.59866112220E+02 -0.54172291960E+02  0.12848840101E+03  0.00000000000E+00 0.  1.
</event>
<event>
12    1  0.1066489E+000  0.2055272E+03  0.7818608E-02  0.1146008E+00
         21   -1    0    0  503  502  0.00000000000E+00  0.00000000000E+00  0.59582540703E+03  0.59582540703E+03  0.00000000000E+00 0. -1.
         21   -1    0    0  501  503 -0.00000000000E+00 -0.00000000000E+00 -0.75626015539E+02  0.75626015539E+02  0.00000000000E+00 0. -1.
          6    2    1    2  501    0  0.59853185269E+02  0.94852023286E+02  0.16194883108E+03  0.25843219943E+03  0.16727363122E+03 0.  0.
         24    2    3    3    0    0  0.11181997571E+02  0.93785417835E+02  0.16958028148E+03  0.20893117727E+03  0.77291806164E+02 0.  0.
         -6    2    1    2    0  502 -0.59853185269E+02 -0.94852023286E+02  0.35825056041E+03  0.41301922314E+03  0.17222689843E+03 0.  0.
        -24    2    5    5    0    0 -0.82945705464E+02 -0.69834819490E+02  0.35378318915E+03  0.37836128927E+03  0.78979922886E+02 0.  0.
          5    1    3    3  501    0  0.48671187698E+02  0.10666054503E+01 -0.76314504000E+01  0.49501022155E+02  0.47000000000E+01 0. -1.
        -13    1    4    4    0    0  0.42559336199E+02  0.72690202404E+02  0.11759425975E+03  0.14464982734E+03  0.00000000000E+00 0.  1.
         14    1    4    4    0    0 -0.31377338628E+02  0.21095215431E+02  0.51986021729E+02  0.64281349929E+02  0.00000000000E+00 0. -1.
         -5    1    5    5    0  502  0.23092520195E+02 -0.25017203795E+02  0.44673712545E+01  0.34657933877E+02  0.47000000000E+01 0.  1.
         11    1    6    6    0    0  0.13291644811E+02 -0.21260111320E+02  0.48390239885E+02  0.54500233681E+02  0.00000000000E+00 0. -1.
        -12    1    6    6    0    0 -0.96237350275E+02 -0.48574708170E+02  0.30539294927E+03  0.32386105558E+03  0.00000000000E+00 0.  1.
</event>
<event>
12    1  0.1066489E+000  0.3194304E+03  0.7818608E-02  0.1075995E+00
         21   -1    0    0  503  502  0.00000000000E+00  0.00000000000E+00  0.13040935264E+04  0.13040935264E+04  0.00000000000E+00 0. -1.
         21   -1    0    0  501  503 -0.00000000000E+00 -0.00000000000E+00 -0.22135319369E+03  0.22135319369E+03  0.00000000000E+00 0. -1.
          6    2    1    2  501    0  0.26146868208E+03  0.60844705841E+02  0.11552466225E+04  0.11985952293E+04  0.17311214526E+03 0.  0.
         24    2    3    3    0    0  0.27240170291E+03  0.58036905894E+02  0.11485909504E+04  0.11846739270E+04  0.81364438626E+02 0.  0.
         -6    2    1    2    0  502 -0.26146868208E+03 -0.60844705841E+02 -0.72506289810E+02  0.32685149083E+03  0.17177539131E+03 0.  0.
        -24    2    5    5    0    0 -0.13916699333E+03 -0.95406194040E+02 -0.63893302126E+02  0.19938199215E+03  0.84858887825E+02 0.  0.
          5    1    3    3  501    0 -0.10933020829E+02  0.28077999471E+01  0.66556721710E+01  0.13921302275E+02  0.47000000000E+01 0. -1.
        -11    1    4    4    0    0  0.93323407810E+02  0.54456475572E+01  0.25003788218E+03  0.26694167162E+03  0.00000000000E+00 0.  1.
         12    1    4    4    0    0  0.17907829510E+03  0.52591258337E+02  0.89855306818E+03  0.91773225538E+03  0.00000000000E+00 0. -1.
         -5    1    5    5    0  502 -0.12230168874E+03  0.34561488199E+02 -0.86129876837E+01  0.12746949868E+03  0.47000000000E+01 0.  1.
         13    1    6    6    0    0 -0.70986549115E+02 -0.42425906796E+02 -0.75847096077E+02  0.11221332232E+03  0.00000000000E+00 0. -1.
        -14    1    6    6    0    0 -0.68180444218E+02 -0.52980287244E+02  0.11953793951E+02  0.87168669831E+02  0.00000000000E+00 0.  1.
</event>
<event>
12    1  0.1066489E+000  0.5156007E+03  0.7818608E-02  0.1009807E+00
         21   -1    0    0  501  502  0.00000000000E+00  0.00000000000E+00  0.64176928627E+03  0.64176928627E+03  0.00000000000E+00 0.  1.
         21   -1    0    0  502  503 -0.00000000000E+00 -0.00000000000E+00 -0.43804084617E+03  0.43804084617E+03  0.00000000000E+00 0. -1.
         -6    2    1    2    0  503 -0.46525806733E+03 -0.13965182786E+03  0.22847422324E+03  0.56395436255E+03  0.17284776569E+03 0.  0.
        -24    2    3    3    0    0 -0.22344666026E+03 -0.11732040297E+03  0.66135899313E+02  0.27181181079E+03  0.76257566015E+02 0.  0.
          6    2    1    2  501    0  0.46525806733E+03  0.13965182786E+03 -0.24745783153E+02  0.51585576989E+03  0.17183456958E+03 0.  0.
         24    2    5    5    0    0  0.26007787247E+03  0.79678854811E+02  0.35404755404E+02  0.29373902773E+03  0.10507092868E+03 0.  0.
          5    1    5    5  501    0  0.20518019486E+03  0.59972973052E+02 -0.60150538557E+02  0.22211674216E+03  0.47000000000E+01 0. -1.
        -11    1    6    6    0    0  0.15151331715E+03  0.62299386325E+02 -0.28924627280E+02  0.16635544137E+03  0.00000000000E+00 0.  1.
         12    1    6    6    0    0  0.10856455532E+03  0.17379468486E+02  0.64329382685E+02  0.12738358636E+03  0.00000000000E+00 0. -1.
         -5    1    3    3    0  503 -0.24181140708E+03 -0.22331424893E+02  0.16233832393E+03  0.29214255176E+03  0.47000000000E+01 0.  1.
         11    1    4    4    0    0 -0.21754974328E+03 -0.10017418521E+03  0.75866451955E+02  0.25123390837E+03  0.00000000000E+00 0. -1.
        -12    1    4    4    0    0 -0.58969169804E+01 -0.17146217761E+02 -0.97305526419E+01  0.20577902422E+02  0.00000000000E+00 0.  1.
</event>
<event>
12    1  0.1066489E+000  0.1993186E+03  0.7818608E-02  0.1150445E+00
         21   -1    0    0  503  502  0.00000000000E+00  0.00000000000E+00  0.24264341746E+03  0.24264341746E+03  0.00000000000E+00 0.  1.
         21   -1    0    0  501  503 -0.00000000000E+00 -0.00000000000E+00 -0.20814791281E+03  0.20814791281E+03  0.00000000000E+00 0.  1.
          6    2    1    2  501    0 -0.24068803319E+02  0.96088179750E+02  0.12193608005E+03  0.23313617046E+03  0.17225510378E+03 0.  0.
         24    2    3    3    0    0 -0.26160706372E+02  0.74436464041E+01  0.24094229288E+01  0.84237073374E+02  0.79688699212E+02 0.  0.
         -6    2    1    2    0  502  0.24068803319E+02 -0.96088179750E+02 -0.87440575399E+02  0.21765515982E+03  0.17296146619E+03 0.  0.
        -24    2    5    5    0    0  0.85909661048E+01 -0.28017581576E+02 -0.11543954238E+03  0.14229467990E+03  0.77863331598E+02 0.  0.
          5    1    3    3  501    0  0.20919030525E+01  0.88644533346E+02  0.11952665712E+03  0.14889909709E+03  0.47000000000E+01 0. -1.
        -11    1    4    4    0    0 -0.10538834433E+02 -0.13519780987E+02  0.37058542404E+02  0.40831202214E+02  0.00000000000E+00 0.  1.
         12    1    4    4    0    0 -0.15621871938E+02  0.20963427391E+02 -0.34649119475E+02  0.43405871161E+02  0.00000000000E+00 0. -1.
         -5    1    5    5    0  502  0.15477837214E+02 -0.68070598175E+02  0.27998966983E+02  0.75360479914E+02  0.47000000000E+01 0.  1.
         11    1    6    6    0    0  0.15556071841E+02  0.25013065193E+02 -0.46412838701E+02  0.54970868628E+02  0.00000000000E+00 0. -1.
        -12    1    6    6    0    0 -0.69651057359E+01 -0.53030646769E+02 -0.69026703681E+02  0.87323811276E+02  0.00000000000E+00 0.  1.
</event>
<event>
12    1  0.1066489E+000  0.2182833E+03  0.7818608E-02  0.1135177E+00
         21   -1    0    0  501  502  0.00000000000E+00  0.00000000000E+00  0.23400622973E+03  0.23400622973E+03  0.00000000000E+00 0.  1.
         21   -1    0    0  502  503 -0.00000000000E+00 -0.00000000000E+00 -0.21592560327E+03  0.21592560327E+03  0.00000000000E+00 0.  1.
         -6    2    1    2    0  503 -0.13290400682E+03  0.18492714608E+02 -0.44750966820E+02  0.22282336612E+03  0.17216895172E+03 0.  0.
        -24    2    3    3    0    0 -0.15463259291E+03  0.34986327033E+02 -0.90845386727E+01  0.17767522329E+03  0.79691117822E+02 0.  0.
          6    2    1    2  501    0  0.13290400682E+03 -0.18492714608E+02  0.62831593285E+02  0.22710846688E+03  0.17211911890E+03 0.  0.
         24    2    5    5    0    0  0.32738966270E+02 -0.64278185958E+02  0.21906895488E+02  0.10952332486E+03  0.79447602325E+02 0.  0.
          5    1    5    5  501    0  0.10016504055E+03  0.45785471351E+02  0.40924697796E+02  0.11758514203E+03  0.47000000000E+01 0. -1.
        -13    1    6    6    0    0  0.84967860046E+01  0.14965703428E+02  0.20334413464E+02  0.26639369783E+02  0.00000000000E+00 0.  1.
         14    1    6    6    0    0  0.24242180266E+02 -0.79243889386E+02  0.15724820243E+01  0.82883955074E+02  0.00000000000E+00 0. -1.
         -5    1    3    3    0  503  0.21728586088E+02 -0.16493612426E+02 -0.35666428147E+02  0.45148142830E+02  0.47000000000E+01 0.  1.
         13    1    4    4    0    0 -0.11247251548E+03  0.11497109804E+02 -0.40494919260E+02  0.12009200123E+03  0.00000000000E+00 0. -1.
        -14    1    4    4    0    0 -0.42160077425E+02  0.23489217229E+02  0.31410380587E+02  0.57583222063E+02  0.00000000000E+00 0.  1.
</event>
<event>
12    1  0.1066489E+000  0.2669062E+03  0.7818608E-02  0.1103505E+00
         21   -1    0    0  503  502  0.00000000000E+00  0.00000000000E+00  0.14349271362E+03  0.14349271362E+03  0.00000000000E+00 0.  1.
         21   -1    0    0  501  503 -0.00000000000E+00 -0.00000000000E+00 -0.63214054718E+03  0.63214054718E+03  0.00000000000E+00 0.  1.
          6    2    1    2  501    0 -0.10159186587E+03 -0.17710534934E+03 -0.42874478467E+03  0.50503565135E+03  0.17190609873E+03 0.  0.
         24    2    3    3    0    0 -0.27352022697E+02 -0.32260678567E+02 -0.23467134938E+03  0.25170164011E+03  0.80586530439E+02 0.  0.
         -6    2    1    2    0  502  0.10159186587E+03  0.17710534934E+03 -0.59903048895E+02  0.27059760945E+03  0.16717499513E+03 0.  0.
        -24    2    5    5    0    0  0.70034862472E+02  0.19828570650E+03 -0.43371401051E+02  0.22888625161E+03  0.79282623452E+02 0.  0.
          5    1    3    3  501    0 -0.74239843168E+02 -0.14484467078E+03 -0.19407343529E+03  0.25333401124E+03  0.47000000000E+01 0. -1.
        -13    1    4    4    0    0 -0.55691008874E+02 -0.19298901968E+02 -0.16968347334E+03  0.17962855344E+03  0.00000000000E+00 0.  1.
         14    1    4    4    0    0  0.28338986177E+02 -0.12961776598E+02 -0.64987876041E+02  0.72073086672E+02  0.00000000000E+00 0. -1.
         -5    1    5    5    0  502  0.31557003393E+02 -0.21180357160E+02 -0.16531647844E+02  0.41711357842E+02  0.47000000000E+01 0.  1.
         13    1    6    6    0    0  0.50882820745E+02  0.46358176140E+02 -0.30273277867E+02  0.75197162810E+02  0.00000000000E+00 0. -1.
        -14    1    6    6    0    0  0.19152041727E+02  0.15192753036E+03 -0.13098123184E+02  0.15368908880E+03  0.00000000000E+00 0.  1.
</event>
<event>
12    1  0.1066489E+000  0.2153231E+03  0.7818608E-02  0.1137573E+00
         21   -1    0    0  501  502  0.00000000000E+00  0.00000000000E+00  0.34426887877E+03  0.34426887877E+03  0.00000000000E+00 0. -1.
         21   -1    0    0  502  503 -0.00000000000E+00 -0.00000000000E+00 -0.13428601834E+03  0.13428601834E+03  0.00000000000E+00 0. -1.
         -6    2    1    2    0  503 -0.75317476319E+02  0.10478054448E+03  0.11213204300E+03  0.24277076202E+03  0.17237274461E+03 0.  0.
        -24    2    3    3    0    0 -0.11606873375E+03  0.98096399540E+02  0.75110181030E+02  0.18711062333E+03  0.79208531803E+02 0.  0.
          6    2    1    2  501    0  0.75317476319E+02 -0.10478054448E+03  0.97850817434E+02  0.23578413508E+03  0.17137004156E+03 0.  0.
         24    2    5    5    0    0  0.64600856076E+02 -0.13858018395E+03  0.10172936186E+03  0.19980643804E+03  0.78714748463E+02 0.  0.
          5    1    5    5  501    0  0.10716620244E+02  0.33799639473E+02 -0.38785444288E+01  0.35977697048E+02  0.47000000000E+01 0. -1.
        -11    1    6    6    0    0  0.76388340404E+02 -0.74534641645E+02  0.59507520947E+02  0.12219548438E+03  0.00000000000E+00 0.  1.
         12    1    6    6    0    0 -0.11787484329E+02 -0.64045542308E+02  0.42221840916E+02  0.77610953651E+02  0.00000000000E+00 0. -1.
         -5    1    3    3    0  503  0.40751257431E+02  0.66841449391E+01  0.37021861968E+02  0.55660138693E+02  0.47000000000E+01 0.  1.
         13    1    4    4    0    0 -0.21751380551E+02 -0.91736799667E+01  0.28178913196E+02  0.36760442175E+02  0.00000000000E+00 0. -1.
        -14    1    4    4    0    0 -0.94317353199E+02  0.10727007951E+03  0.46931267834E+02  0.15035018115E+03  0.00000000000E+00 0.  1.
</event>
<event>
12    1  0.1066489E+000  0.1920458E+03  0.7818608E-02  0.1156715E+00
         21   -1    0    0  503  502  0.00000000000E+00  0.00000000000E+00  0.58512525377E+02  0.58512525377E+02  0.00000000000E+00 0.  1.
         21   -1    0    0  501  503 -0.00000000000E+00 -0.00000000000E+00 -0.77102541758E+03  0.77102541758E+03  0.00000000000E+00 0.  1.
          6    2    1    2  501    0 -0.84016720340E+02  0.16983058905E+02 -0.53452724215E+03  0.56797970405E+03  0.17185557316E+03 0.  0.
         24    2    3    3    0    0 -0.10134634254E+03 -0.30692971731E+02 -0.29728319423E+03  0.32532738493E+03  0.79040939716E+02 0.  0.
         -6    2    1    2    0  502  0.84016720340E+02 -0.16983058905E+02 -0.17798565005E+03  0.26155823891E+03  0.17142516481E+03 0.  0.
        -24    2    5    5    0    0  0.11793286295E+02 -0.56542403616E+02 -0.13723595107E+03  0.16955935768E+03  0.81120555374E+02 0.  0.
          5    1    3    3  501    0  0.17329622198E+02  0.47676030636E+02 -0.23724404792E+03  0.24265231912E+03  0.47000000000E+01 0. -1.
        -11    1    4    4    0    0  0.70122588182E+01 -0.19657722505E+02 -0.28591181870E+02  0.35398495852E+02  0.00000000000E+00 0.  1.
         12    1    4    4    0    0 -0.10835860136E+03 -0.11035249225E+02 -0.26869201236E+03  0.28992888907E+03  0.00000000000E+00 0. -1.
         -5    1    5    5    0  502  0.72223434045E+02  0.39559344711E+02 -0.40749698986E+02  0.91998881225E+02  0.47000000000E+01 0.  1.
         11    1    6    6    0    0  0.39459818030E+02 -0.34940513380E+01 -0.50326412667E+02  0.64047118949E+02  0.00000000000E+00 0. -1.
        -12    1    6    6    0    0 -0.27666531735E+02 -0.53048352278E+02 -0.86909538401E+02  0.10551223873E+03  0.00000000000E+00 0.  1.
</event>
<event>
12    1  0.1066489E+000  0.2144903E+03  0.7818608E-02  0.1138603E+00
         21   -1    0    0  503  502  0.00000000000E+00  0.00000000000E+00  0.56806978043E+02  0.56806978043E+02  0.00000000000E+00 0. -1.
         21   -1    0    0  501  503 -0.00000000000E+00 -0.00000000000E+00 -0.12100891332E+04  0.12100891332E+04  0.00000000000E+00 0. -1.
          6    2    1    2  501    0 -0.10559512404E+03  0.70528885772E+02 -0.20507494561E+03  0.29473204093E+03  0.16937115658E+03 0.  0.
         24    2    3    3    0    0 -0.13858577302E+03  0.67784283426E+02 -0.19189627216E+03  0.25879204654E+03  0.79676963536E+02 0.  0.
         -6    2    1    2    0  502  0.10559512404E+03 -0.70528885772E+02 -0.94820720956E+03  0.97216407034E+03  0.17286241188E+03 0.  0.
        -24    2    5    5    0    0  0.83082279474E+02  0.24091449883E+02 -0.51871479710E+03  0.53177145181E+03  0.78947913908E+02 0.  0.
          5    1    3    3  501    0  0.32990648985E+02  0.27446023457E+01 -0.13178673450E+02  0.35939994386E+02  0.47000000000E+01 0. -1.
        -13    1    4    4    0    0 -0.73200022129E+02  0.11717246970E+02 -0.40153493874E+02  0.84308007844E+02  0.00000000000E+00 0.  1.
         14    1    4    4    0    0 -0.65385750893E+02  0.56067036456E+02 -0.15174277829E+03  0.17448403870E+03  0.00000000000E+00 0. -1.
         -5    1    5    5    0  502  0.22512844563E+02 -0.94620335655E+02 -0.42949241247E+03  0.44039261853E+03  0.47000000000E+01 0.  1.
         11    1    6    6    0    0  0.93563672885E+02  0.34918287390E+01 -0.39809331612E+03  0.40895555026E+03  0.00000000000E+00 0. -1.
        -12    1    6    6    0    0 -0.10481393411E+02  0.20599621144E+02 -0.12062148098E+03  0.12281590154E+03  0.00000000000E+00 0.  1.
</event>
<event>
12    1  0.1066489E+000  0.1791160E+03  0.7818608E-02  0.1169100E+00
         21   -1    0    0  503  502  0.00000000000E+00  0.00000000000E+00  0.17046179393E+03  0.17046179393E+03  0.00000000000E+00 0.  1.
         21   -1    0    0  501  503 -0.00000000000E+00 -0.00000000000E+00 -0.20244547721E+03  0.20244547721E+03  0.00000000000E+00 0.  1.
          6    2    1    2  501    0 -0.27087610630E+02  0.42063647521E+02  0.36687120115E+02  0.18107862121E+03  0.17011887956E+03 0.  0.
         24    2    3    3    0    0 -0.77543965396E+02  0.23917051047E+02  0.50714891458E+02  0.12545478577E+03  0.81128362226E+02 0.  0.
         -6    2    1    2    0  502  0.27087610630E+02 -0.42063647521E+02 -0.68670803397E+02  0.19182864994E+03  0.17198680939E+03 0.  0.
        -24    2    5    5    0    0 -0.59932804229E+01  0.36473628183E+02 -0.59348309438E+02  0.10597151324E+03  0.79633503141E+02 0.  0.
          5    1    3    3  501    0  0.50456354765E+02  0.18146596474E+02 -0.14027771342E+02  0.55623835436E+02  0.47000000000E+01 0. -1.
        -11    1    4    4    0    0 -0.29011970390E+02 -0.10275066127E+02 -0.17193794146E+02  0.35254758075E+02  0.00000000000E+00 0.  1.
         12    1    4    4    0    0 -0.48531995006E+02  0.34192117174E+02  0.67908685604E+02  0.90200027697E+02  0.00000000000E+00 0. -1.
         -5    1    5    5    0  502  0.33080891053E+02 -0.78537275704E+02 -0.93224939588E+01  0.85857136695E+02  0.47000000000E+01 0.  1.
         11    1    6    6    0    0  0.36920503537E+02  0.16290582716E+02 -0.28290535005E+02  0.49283476313E+02  0.00000000000E+00 0. -1.
        -12    1    6    6    0    0 -0.42913783960E+02  0.20183045467E+02 -0.31057774433E+02  0.56688036928E+02  0.00000000000E+00 0.  1.
</event>
<event>
12    1  0.1066489E+000  0.2137424E+03  0.7818608E-02  0.1139096E+00
         21   -1    0    0  501  502  0.00000000000E+00  0.00000000000E+00  0.12713094624E+03  0.12713094624E+03  0.00000000000E+00 0.  1.
         21   -1    0    0  502  503 -0.00000000000E+00 -0.00000000000E+00 -0.49015508078E+03  0.49015508078E+03  0.00000000000E+00 0.  1.
         -6    2    1    2    0  503  0.53107425529E+02 -0.11234761592E+03 -0.34261115223E+03  0.40257110691E+03  0.17099330114E+03 0.  0.
        -24    2    3    3    0    0  0.76974045484E+02 -0.15727095134E+02 -0.20673893150E+03  0.23408226172E+03  0.76688814414E+02 0.  0.
          6    2    1    2  501    0 -0.53107425529E+02  0.11234761592E+03 -0.20412982302E+02  0.21471492011E+03  0.17390635878E+03 0.  0.
         24    2    5    5    0    0 -0.20406967832E+02  0.64687459712E+02 -0.80543319591E+02  0.13117715688E+03  0.78226008308E+02 0.  0.
          5    1    5    5  501    0 -0.32700457697E+02  0.47660156211E+02  0.60130337290E+02  0.83537763235E+02  0.47000000000E+01 0. -1.
        -13    1    6    6    0    0  0.12582273836E+02 -0.13550025339E+02 -0.17082885800E+02  0.25174228664E+02  0.00000000000E+00 0.  1.
         14    1    6    6    0    0 -0.32989241668E+02  0.78237485052E+02 -0.63460433791E+02  0.10600292821E+03  0.00000000000E+00 0. -1.
         -5    1    3    3    0  503 -0.23866619954E+02 -0.96620520789E+02 -0.13587222073E+03  0.16848884519E+03  0.47000000000E+01 0.  1.
         13    1    4    4    0    0  0.18956545397E+02 -0.80091861299E+01 -0.14692127845E+01  0.20631438682E+02  0.00000000000E+00 0. -1.
        -14    1    4    4    0    0  0.58017500086E+02 -0.77179090042E+01 -0.20526971871E+03  0.21345082304E+03  0.00000000000E+00 0.  1.
</event>
<event>
12    1  0.1066489E+000  0.3221281E+03  0.7818608E-02  0.1074743E+00
         21   -1    0    0  503  502  0.00000000000E+00  0.00000000000E+00  0.59142043901E+03  0.59142043901E+03  0.00000000000E+00 0. -1.
         21   -1    0    0  501  503 -0.00000000000E+00 -0.00000000000E+00 -0.18111141905E+03  0.18111141905E+03  0.00000000000E+00 0. -1.
          6    2    1    2  501    0  0.21786676866E+03  0.16198741470E+03  0.27556573007E+03  0.42391390486E+03  0.17338014803E+03 0.  0.
         24    2    3    3    0    0  0.39164454405E+02  0.14960800900E+02  0.47457706837E+02  0.98942055997E+02  0.76023788739E+02 0.  0.
         -6    2    1    2    0  502 -0.21786676866E+03 -0.16198741470E+03  0.13474328988E+03  0.34861795321E+03  0.17225815430E+03 0.  0.
        -24    2    5    5    0    0 -0.14914874058E+03 -0.18014189948E+03  0.12432860661E+03  0.27662970188E+03  0.79811896221E+02 0.  0.
          5    1    3    3  501    0  0.17870231426E+03  0.14702661380E+03  0.22810802324E+03  0.32497184886E+03  0.47000000000E+01 0. -1.
        -13    1    4    4    0    0  0.32164668613E+02  0.35423952780E+02  0.57745085778E+02  0.74992781446E+02  0.00000000000E+00 0.  1.
         14    1    4    4    0    0  0.69997857921E+01 -0.20463151880E+02 -0.10287378942E+02  0.23949274550E+02  0.00000000000E+00 0. -1.
         -5    1    5    5    0  502 -0.68718028082E+02  0.18154484780E+02  0.10414683275E+02  0.71988251325E+02  0.47000000000E+01 0.  1.
         13    1    6    6    0    0 -0.29286283543E+02 -0.64314336679E+02  0.34918355287E+01  0.70754598589E+02  0.00000000000E+00 0. -1.
        -14    1    6    6    0    0 -0.11986245704E+03 -0.11582756280E+03  0.12083677108E+03  0.20587510329E+03  0.00000000000E+00 0.  1.
</event>
<event>
12    1  0.1066489E+000  0.2072871E+03  0.7818608E-02  0.1144078E+00
         21   -1    0    0  503  502  0.00000000000E+00  0.00000000000E+00  0.45823168948E+03  0.45823168948E+03  0.00000000000E+00 0. -1.
         21   -1    0    0  501  503 -0.00000000000E+00 -0.00000000000E+00 -0.97050878013E+02  0.97050878013E+02  0.00000000000E+00 0. -1.
          6    2    1    2  501    0  0.56628604072E+00 -0.11483369997E+03  0.12456373630E+03  0.24183479344E+03  0.17257127103E+03 0.  0.
         24    2    3    3    0    0 -0.42951353187E+02 -0.12195417347E+03  0.59173199610E+02  0.16282531074E+03  0.79328274263E+02 0.  0.
         -6    2    1    2    0  502 -0.56628604072E+00  0.11483369997E+03  0.23661707516E+03  0.31344777406E+03  0.17051324720E+03 0.  0.
        -24    2    5    5    0    0  0.44405198264E+02  0.34330064213E+02  0.44548870945E+02  0.10033851841E+03  0.70234189908E+02 0.  0.
          5    1    3    3  501    0  0.43517639228E+02  0.71204734979E+01  0.65390536692E+02  0.79009482695E+02  0.47000000000E+01 0. -1.
        -11    1    4    4    0    0 -0.46618059283E+02 -0.36521252415E+02  0.68433043491E+00  0.59224265613E+02  0.00000000000E+00 0.  1.
         12    1    4    4    0    0  0.36667060954E+01 -0.85432921058E+02  0.58488869175E+02  0.10360104513E+03  0.00000000000E+00 0. -1.
         -5    1    5    5    0  502 -0.44971484305E+02  0.80503635762E+02  0.19206820422E+03  0.21310925565E+03  0.47000000000E+01 0.  1.
         11    1    6    6    0    0  0.20522433243E+02  0.13950995677E+01 -0.16914201445E+02  0.26630936513E+02  0.00000000000E+00 0. -1.
        -12    1    6    6    0    0  0.23882765021E+02  0.32934964645E+02  0.61463072390E+02  0.73707581895E+02  0.00000000000E+00 0.  1.
</event>
<event>
12    1  0.1066489E+000  0.1960159E+03  0.7818608E-02  0.1153522E+00
         21   -1    0    0  503  502  0.00000000000E+00  0.00000000000E+00  0.18140726501E+04  0.18140726501E+04  0.00000000000E+00 0. -1.
         21   -1    0    0  501  503 -0.00000000000E+00 -0.00000000000E+00 -0.21577771197E+02  0.21577771197E+02  0.00000000000E+00 0. -1.
          6    2    1    2  501    0 -0.91329895828E+02 -0.17340352208E+02  0.74125585399E+03  0.76629279376E+03  0.17059474497E+03 0.  0.
         24    2    3    3    0    0 -0.97860903071E+02 -0.18844253858E+02  0.31300193803E+03  0.33796065358E+03  0.79469037406E+02 0.  0.
         -6    2    1    2    0  502  0.91329895828E+02  0.17340352208E+02  0.10512390249E+04  0.10693576275E+04  0.17257001588E+03 0.  0.
        -24    2    5    5    0    0  0.20577593020E+02  0.75261402084E+02  0.65784377151E+03  0.66544841525E+03  0.63051167009E+02 0.  0.
          5    1    3    3  501    0  0.65310072435E+01  0.15039016495E+01  0.42825391596E+03  0.42833214018E+03  0.47000000000E+01 0. -1.
        -13    1    4    4    0    0 -0.30335910303E+02 -0.34280395528E+02  0.20198474001E+03  0.20710685205E+03  0.00000000000E+00 0.  1.
         14    1    4    4    0    0 -0.67524992768E+02  0.15436141671E+02  0.11101719802E+03  0.13085380153E+03  0.00000000000E+00 0. -1.
         -5    1    5    5    0  502  0.70752302808E+02 -0.57921049875E+02  0.39339525338E+03  0.40390921227E+03  0.47000000000E+01 0.  1.
         11    1    6    6    0    0  0.23119407965E+02  0.63224995223E+01  0.30394714300E+03  0.30489071281E+03  0.00000000000E+00 0. -1.
        -12    1    6    6    0    0 -0.25418149453E+01  0.68938902561E+02  0.35389662852E+03  0.36055770243E+03  0.00000000000E+00 0.  1.
</event>
<event>
12    1  0.1066489E+000  0.3081115E+03  0.7818608E-02  0.1081471E+00
         21   -1    0    0  503  502  0.00000000000E+00  0.00000000000E+00  0.63850437888E+03  0.63850437888E+03  0.00000000000E+00 0.  1.
         21   -1    0    0  501  503 -0.00000000000E+00 -0.00000000000E+00 -0.14986695621E+03  0.14986695621E+03  0.00000000000E+00 0. -1.
          6    2    1    2  501    0 -0.16594342120E+03 -0.19231990027E+03  0.29110508029E+03  0.42388071444E+03  0.17438041524E+03 0.  0.
         24    2    3    3    0    0 -0.74204278652E+02 -0.39353374658E+02  0.17871349779E+03  0.21300448047E+03  0.79858821323E+02 0.  0.
         -6    2    1    2    0  502  0.16594342120E+03  0.19231990027E+03  0.19753234238E+03  0.36449062065E+03  0.17120228731E+03 0.  0.
        -24    2    5    5    0    0  0.23735750420E+02  0.45871453317E+02  0.28981487663E+02  0.99723459040E+02  0.80232571804E+02 0.  0.
          5    1    3    3  501    0 -0.91739142548E+02 -0.15296652561E+03  0.11239158251E+03  0.21087623397E+03  0.47000000000E+01 0. -1.
        -11    1    4    4    0    0  0.56551203430E+01 -0.28304272934E+02  0.82923638284E+02  0.87803428399E+02  0.00000000000E+00 0.  1.
         12    1    4    4    0    0 -0.79859398995E+02 -0.11049101724E+02  0.95789859502E+02  0.12520105207E+03  0.00000000000E+00 0. -1.
         -5    1    5    5    0  502  0.14220767078E+03  0.14644844695E+03  0.16855085472E+03  0.26476716161E+03  0.47000000000E+01 0.  1.
         13    1    6    6    0    0  0.38929156382E+02  0.61361116125E+02  0.15898398214E+02  0.74386993853E+02  0.00000000000E+00 0. -1.
        -14    1    6    6    0    0 -0.15193405962E+02 -0.15489662808E+02  0.13083089449E+02  0.25336465187E+02  0.00000000000E+00 0.  1.
</event>
<event>
12    1  0.1066489E+000  0.3821428E+03  0.7818608E-02  0.1050199E+00
         21   -1    0    0  503  502  0.00000000000E+00  0.00000000000E+00  0.10435363788E+03  0.10435363788E+03  0.00000000000E+00 0.  1.
         21   -1    0    0  501  503 -0.00000000000E+00 -0.00000000000E+00 -0.14998596024E+04  0.14998596024E+04  0.00000000000E+00 0.  1.
          6    2    1    2  501    0 -0.28751867315E+03 -0.18318326649E+03 -0.90805122400E+03  0.98518531841E+03  0.17265569688E+03 0.  0.
         24    2    3    3    0    0 -0.29688102452E+03 -0.16271664917E+03 -0.89297968731E+03  0.95769391492E+03  0.71762539559E+02 0.  0.
         -6    2    1    2    0  502  0.28751867315E+03  0.18318326649E+03 -0.48745474049E+03  0.61902792184E+03  0.17134861381E+03 0.  0.
        -24    2    5    5    0    0  0.25237575528E+03  0.89813727946E+02 -0.32727232341E+03  0.43025983092E+03  0.79096908023E+02 0.  0.
          5    1    3    3  501    0  0.93623513730E+01 -0.20466617315E+02 -0.15071536688E+02  0.27491403487E+02  0.47000000000E+01 0. -1.
        -13    1    4    4    0    0 -0.56444935384E+02 -0.65946433052E+02 -0.23346560843E+03  0.24908061563E+03  0.00000000000E+00 0.  1.
         14    1    4    4    0    0 -0.24043608914E+03 -0.96770216120E+02 -0.65951407888E+03  0.70861329929E+03  0.00000000000E+00 0. -1.
         -5    1    5    5    0  502  0.35142917874E+02  0.93369538540E+02 -0.16018241709E+03  0.18876809091E+03  0.47000000000E+01 0.  1.
         13    1    6    6    0    0  0.40708264276E+02 -0.13527732514E+02 -0.63404981011E+02  0.76552948632E+02  0.00000000000E+00 0. -1.
        -14    1    6    6    0    0  0.21166749100E+03  0.10334146046E+03 -0.26386734240E+03  0.35370688229E+03  0.00000000000E+00 0.  1.
</event>
<event>
12    1  0.1066489E+000  0.2096652E+03  0.7818608E-02  0.1141843E+00
         21   -1    0    0  501  502  0.00000000000E+00  0.00000000000E+00  0.18635527132E+03  0.18635527132E+03  0.00000000000E+00 0.  1.
         21   -1    0    0  502  503 -0.00000000000E+00 -0.00000000000E+00 -0.29263938343E+03  0.29263938343E+03  0.00000000000E+00 0.  1.
         -6    2    1    2    0  503 -0.38663353017E+02 -0.11262110982E+03 -0.15866380838E+03  0.26288563420E+03  0.17250009663E+03 0.  0.
        -24    2    3    3    0    0 -0.51025415064E+02 -0.82291869069E+02 -0.18314985065E+03  0.22172327653E+03  0.79005055943E+02 0.  0.
          6    2    1    2  501    0  0.38663353017E+02  0.11262110982E+03  0.52379696273E+02  0.21610902055E+03  0.17257203405E+03 0.  0.
         24    2    5    5    0    0 -0.21008551530E+02  0.22762774797E+01  0.23918905624E+02  0.87389073290E+02  0.81352291963E+02 0.  0.
          5    1    5    5  501    0  0.59671904547E+02  0.11034483235E+03  0.28460790649E+02  0.12871994726E+03  0.47000000000E+01 0. -1.
        -11    1    6    6    0    0 -0.47651056009E+02 -0.55584606585E+00 -0.50602175711E+01  0.47922206809E+02  0.00000000000E+00 0.  1.
         12    1    6    6    0    0  0.26642504478E+02  0.28321235456E+01  0.28979123195E+02  0.39466866481E+02  0.00000000000E+00 0. -1.
         -5    1    3    3    0  503  0.12362062047E+02 -0.30329240756E+02  0.24486042274E+02  0.41162357672E+02  0.47000000000E+01 0.  1.
         11    1    4    4    0    0  0.63869119772E+01 -0.28546003552E+02 -0.89440211067E+01  0.30588600441E+02  0.00000000000E+00 0. -1.
        -12    1    4    4    0    0 -0.57412327041E+02 -0.53745865517E+02 -0.17420582955E+03  0.19113467609E+03  0.00000000000E+00 0.  1.
</event>
<event>
12    1  0.1066489E+000  0.5032993E+03  0.7818608E-02  0.1012924E+00
         21   -1    0    0  503  502  0.00000000000E+00  0.00000000000E+00  0.16529328038E+04  0.16529328038E+04  0.00000000000E+00 0.  1.
         21   -1    0    0  501  503 -0.00000000000E+00 -0.00000000000E+00 -0.19251156232E+03  0.19251156232E+03  0.00000000000E+00 0.  1.
          6    2    1    2  501    0  0.16469754613E+03  0.44302650854E+03  0.11470057289E+04  0.12525703021E+04  0.17295216320E+03 0.  0.
         24    2    3    3    0    0  0.71425357832E+02  0.26564751717E+03  0.51456029867E+03  0.58911546578E+03  0.81329858857E+02 0.  0.
         -6    2    1    2    0  502 -0.16469754613E+03 -0.44302650854E+03  0.31341551259E+03  0.59287406397E+03  0.17283692668E+03 0.  0.
        -24    2    5    5    0    0 -0.38404917549E+02 -0.12204940424E+03  0.60429140494E+02  0.16508869257E+03  0.85038818348E+02 0.  0.
          5    1    3    3  501    0  0.93272188295E+02  0.17737899137E+03  0.63244543022E+03  0.66345483636E+03  0.47000000000E+01 0. -1.
        -13    1    4    4    0    0  0.17631306309E+02  0.13702637352E+03  0.18187007103E+03  0.22839398578E+03  0.00000000000E+00 0.  1.
         14    1    4    4    0    0  0.53794051524E+02  0.12862114364E+03  0.33269022764E+03  0.36072148001E+03  0.00000000000E+00 0. -1.
         -5    1    5    5    0  502 -0.12629262858E+03 -0.32097710430E+03  0.25298637209E+03  0.42778537140E+03  0.47000000000E+01 0.  1.
         13    1    6    6    0    0 -0.35268820716E+02 -0.13094255060E+03  0.69169657731E+02  0.15223101794E+03  0.00000000000E+00 0. -1.
        -14    1    6    6    0    0 -0.31360968333E+01  0.88931463546E+01 -0.87405172367E+01  0.12857674634E+02  0.00000000000E+00 0.  1.
</event>
<event>
12    1  0.1066489E+000  0.3823692E+03  0.7818608E-02  0.1050393E+00
         21   -1    0    0  503  502  0.00000000000E+00  0.00000000000E+00  0.17451698938E+03  0.17451698938E+03  0.00000000000E+00 0. -1.
         21   -1    0    0  501  503 -0.00000000000E+00 -0.00000000000E+00 -0.83449222216E+03  0.83449222216E+03  0.00000000000E+00 0. -1.
          6    2    1    2  501    0 -0.15264425464E+03  0.30569015301E+03 -0.29104945917E+03  0.47767841080E+03  0.16346295707E+03 0.  0.
         24    2    3    3    0    0 -0.35066515799E+02  0.11699903231E+03 -0.49984159095E+02  0.14970976503E+03  0.70683544716E+02 0.  0.
         -6    2    1    2    0  502  0.15264425464E+03 -0.30569015301E+03 -0.36892577361E+03  0.53133080074E+03  0.17163756948E+03 0.  0.
        -24    2    5    5    0    0  0.40675017199E+02 -0.10283631362E+03 -0.69498972295E+02  0.15269470944E+03  0.79093632599E+02 0.  0.
          5    1    3    3  501    0 -0.11757773884E+03  0.18869112070E+03 -0.24106530008E+03  0.32796864577E+03  0.47000000000E+01 0. -1.
        -11    1    4    4    0    0 -0.48602217626E+02  0.11719360666E+03 -0.49430741442E+02  0.13616135722E+03  0.00000000000E+00 0.  1.
         12    1    4    4    0    0  0.13535701828E+02 -0.19457435050E+00 -0.55341765281E+00  0.13548407812E+02  0.00000000000E+00 0. -1.
         -5    1    5    5    0  502  0.11196923744E+03 -0.20285383939E+03 -0.29942680132E+03  0.37863609130E+03  0.47000000000E+01 0.  1.
         11    1    6    6    0    0  0.33245154223E+02 -0.79902724430E+02 -0.83254455377E+01  0.86942502230E+02  0.00000000000E+00 0. -1.
        -12    1    6    6    0    0  0.74298629763E+01 -0.22933589190E+02 -0.61173526758E+02  0.65752207210E+02  0.00000000000E+00 0.  1.
</event>
<event>
12    1  0.1066489E+000  0.1914462E+03  0.7818608E-02  0.1158022E+00
         21   -1    0    0  501  502  0.00000000000E+00  0.00000000000E+00  0.14576086777E+02  0.14576086777E+02  0.00000000000E+00 0.  1.
         21   -1    0    0  502  503 -0.00000000000E+00 -0.00000000000E+00 -0.26317926144E+04  0.26317926144E+04  0.00000000000E+00 0.  1.
         -6    2    1    2    0  503  0.25554954518E+01 -0.82144450583E+02 -0.98761622998E+03  0.10060007332E+04  0.17290869300E+03 0.  0.
        -24    2    3    3    0    0  0.49643392422E+02 -0.93081684359E+02 -0.84616401708E+03  0.85644234439E+03  0.79820292422E+02 0.  0.
          6    2    1    2  501    0 -0.25554954518E+01  0.82144450583E+02 -0.16296002976E+04  0.16403679680E+04  0.16868817102E+03 0.  0.
         24    2    5    5    0    0  0.40693468890E+02  0.91248196540E+02 -0.14372229650E+04  0.14429230915E+04  0.80218484959E+02 0.  0.
          5    1    5    5  501    0 -0.43248964341E+02 -0.91037459564E+01 -0.19237733268E+03  0.19744487645E+03  0.47000000000E+01 0. -1.
        -11    1    6    6    0    0 -0.20855983917E+02  0.42385965745E+02 -0.67801926135E+03  0.67966290241E+03  0.00000000000E+00 0.  1.
         12    1    6    6    0    0  0.61549452807E+02  0.48862230795E+02 -0.75920370362E+03  0.76326018914E+03  0.00000000000E+00 0. -1.
         -5    1    3    3    0  503 -0.47087896970E+02  0.10937233775E+02 -0.14145221290E+03  0.14955838879E+03  0.47000000000E+01 0.  1.
         11    1    4    4    0    0  0.25596754066E+02 -0.38959921718E+02 -0.13510107853E+03  0.14291735632E+03  0.00000000000E+00 0. -1.
        -12    1    4    4    0    0  0.24046638356E+02 -0.54121762641E+02 -0.71106293856E+03  0.71352498807E+03  0.00000000000E+00 0.  1.
</event>
<event>
12    1  0.1066489E+000  0.2106990E+03  0.7818608E-02  0.1141237E+00
         21   -1    0    0  501  502  0.00000000000E+00  0.00000000000E+00  0.12505737767E+03  0.12505737767E+03  0.00000000000E+00 0. -1.
         21   -1    0    0  502  503 -0.00000000000E+00 -0.00000000000E+00 -0.49365180329E+03  0.49365180329E+03  0.00000000000E+00 0.  1.
         -6    2    1    2    0  503 -0.37242519357E+02  0.11420034525E+03 -0.18870354797E+02  0.21041887366E+03  0.17173027689E+03 0.  0.
        -24    2    3    3    0    0 -0.63919948505E+01  0.74150038787E+02  0.53662601218E+02  0.12188130188E+03  0.80226498909E+02 0.  0.
          6    2    1    2  501    0  0.37242519357E+02 -0.11420034525E+03 -0.34972407083E+03  0.40829030730E+03  0.17310495434E+03 0.  0.
         24    2    5    5    0    0 -0.15754396776E+02 -0.10816814777E+03 -0.31864306732E+03  0.34637763247E+03  0.80594731279E+02 0.  0.
          5    1    5    5  501    0  0.52996916133E+02 -0.60321974713E+01 -0.31081003502E+02  0.61912674830E+02  0.47000000000E+01 0. -1.
        -13    1    6    6    0    0 -0.28428472084E+02 -0.99717855920E+01 -0.36275386134E+02  0.47154195700E+02  0.00000000000E+00 0.  1.
         14    1    6    6    0    0  0.12674075308E+02 -0.98196362183E+02 -0.28236768119E+03  0.29922343677E+03  0.00000000000E+00 0. -1.
         -5    1    3    3    0  503 -0.30850524506E+02  0.40050306459E+02 -0.72532956015E+02  0.88537571788E+02  0.47000000000E+01 0.  1.
         13    1    4    4    0    0 -0.39644660209E+01 -0.17108971706E+02  0.42251727169E+01  0.18063388059E+02  0.00000000000E+00 0. -1.
        -14    1    4    4    0    0 -0.24275288296E+01  0.91259010493E+02  0.49437428501E+02  0.10381791382E+03  0.00000000000E+00 0.  1.
</event>
<event>
12    1  0.1066489E+000  0.4136197E+03  0.7818608E-02  0.1039198E+00
         21   -1    0    0  501  502  0.00000000000E+00  0.00000000000E+00  0.83021130097E+03  0.83021130097E+03  0.00000000000E+00 0. -1.
         21   -1    0    0  502  503 -0.00000000000E+00 -0.00000000000E+00 -0.27156507179E+03  0.27156507179E+03  0.00000000000E+00 0. -1.
         -6    2    1    2    0  503 -0.76935458874E+02  0.36806302674E+03  0.55019257673E+03  0.68807026870E+03  0.17128738042E+03 0.  0.
        -24    2    3    3    0    0  0.47083083383E+01  0.11494716147E+03  0.25414663433E+03  0.29007700746E+03  0.79493021212E+02 0.  0.
          6    2    1    2  501    0  0.76935458874E+02 -0.36806302674E+03  0.84536524427E+01  0.41370610406E+03  0.17231314463E+03 0.  0.
         24    2    5    5    0    0 -0.15670204580E+02 -0.16813171698E+03 -0.32411011679E+02  0.18956251549E+03  0.79810049696E+02 0.  0.
          5    1    5    5  501    0  0.92605663454E+02 -0.19993130975E+03  0.40864664122E+02  0.22414358857E+03  0.47000000000E+01 0. -1.
        -13    1    6    6    0    0 -0.36379751534E+02 -0.15381436955E+03 -0.14617271981E+02  0.15873251476E+03  0.00000000000E+00 0.  1.
         14    1    6    6    0    0  0.20709546954E+02 -0.14317347438E+02 -0.17793739698E+02  0.30830000732E+02  0.00000000000E+00 0. -1.
         -5    1    3    3    0  503 -0.81643767212E+02  0.25311586527E+03  0.29604594240E+03  0.39799326123E+03  0.47000000000E+01 0.  1.
         11    1    4    4    0    0  0.37101733904E+02  0.77767087249E+02  0.19418196926E+03  0.21244033446E+03  0.00000000000E+00 0. -1.
        -12    1    4    4    0    0 -0.32393425566E+02  0.37180074223E+02  0.59964665065E+02  0.77636673006E+02  0.00000000000E+00 0.  1.
</event>
<event>
12    1  0.1066489E+000  0.2162119E+03  0.7818608E-02  0.1136767E+00
         21   -1    0    0  503  502  0.00000000000E+00  0.00000000000E+00  0.33171930479E+03  0.33171930479E+03  0.00000000000E+00 0. -1.
         21   -1    0    0  501  503 -0.00000000000E+00 -0.00000000000E+00 -0.30397622496E+03  0.30397622496E+03  0.00000000000E+00 0. -1.
          6    2    1    2  501    0  0.11374915970E+03 -0.63547148627E+02 -0.21898569088E+03  0.30763657928E+03  0.17236130852E+03 0.  0.
         24    2    3    3    0    0  0.84934069472E+02  0.13667098038E+01 -0.57656300982E+02  0.13130342731E+03  0.81857662607E+02 0.  0.
         -6    2    1    2    0  502 -0.11374915970E+03  0.63547148627E+02  0.24672877070E+03  0.32805895048E+03  0.17254123352E+03 0.  0.
        -24    2    5    5    0    0 -0.68391193221E+02  0.32416256746E+02  0.45031618330E+02  0.11894102004E+03  0.79943421168E+02 0.  0.
          5    1    3    3  501    0  0.28815090225E+02 -0.64913858430E+02 -0.16132938989E+03  0.17633315197E+03  0.47000000000E+01 0. -1.
        -13    1    4    4    0    0  0.84080216632E+02 -0.24144722779E+02 -0.59366415282E+02  0.10572048870E+03  0.00000000000E+00 0.  1.
         14    1    4    4    0    0  0.85385284005E+00  0.25511432583E+02  0.17101143000E+01  0.25582938612E+02  0.00000000000E+00 0. -1.
         -5    1    5    5    0  502 -0.45357966475E+02  0.31130891881E+02  0.20169715237E+03  0.20911793043E+03  0.47000000000E+01 0.  1.
         11    1    6    6    0    0  0.10704670661E+02  0.24462154979E+02  0.25850272679E+02  0.37164816665E+02  0.00000000000E+00 0. -1.
        -12    1    6    6    0    0 -0.79095863882E+02  0.79541017674E+01  0.19181345651E+02  0.81776203379E+02  0.00000000000E+00 0.  1.
</event>
<event>
12    1  0.1066489E+000  0.2676876E+03  0.7818608E-02  0.1102694E+00
         21   -1    0    0  503  502  0.00000000000E+00  0.00000000000E+00  0.12610007488E+04  0.12610007488E+04  0.00000000000E+00 0. -1.
         21   -1    0    0  501  503 -0.00000000000E+00 -0.00000000000E+00 -0.14093161313E+03  0.14093161313E+03  0.00000000000E+00 0. -1.
          6    2    1    2  501    0 -0.23333676528E+02  0.20305328139E+03  0.11016956291E+04  0.11336148957E+04  0.17197202368E+03 0.  0.
         24    2    3    3    0    0  0.40988860622E+02  0.11662475833E+03  0.79853278742E+03  0.81184311790E+03  0.78442428236E+02 0.  0.
         -6    2    1    2    0  502  0.23333676528E+02 -0.20305328139E+03  0.18373506550E+02  0.26831746625E+03  0.17286289772E+03 0.  0.
        -24    2    5    5    0    0  0.12482513648E+02 -0.57113659780E+02 -0.44481064121E+02  0.10897849441E+03  0.80498222956E+02 0.  0.
          5    1    3    3  501    0 -0.64322537150E+02  0.86428523062E+02  0.30316284171E+03  0.32177177778E+03  0.47000000000E+01 0. -1.
        -11    1    4    4    0    0 -0.19777233914E+02  0.50480033119E+02  0.23318738237E+03  0.23940703419E+03  0.00000000000E+00 0.  1.
         12    1    4    4    0    0  0.60766094537E+02  0.66144725211E+02  0.56534540505E+03  0.57243608371E+03  0.00000000000E+00 0. -1.
         -5    1    5    5    0  502  0.10851162879E+02 -0.14593962161E+03  0.62854570671E+02  0.15933897184E+03  0.47000000000E+01 0.  1.
         13    1    6    6    0    0  0.25542166648E+01 -0.19095249398E+02  0.23543258276E+02  0.30421005615E+02  0.00000000000E+00 0. -1.
        -14    1    6    6    0    0  0.99282969837E+01 -0.38018410382E+02 -0.68024322397E+02  0.78557488800E+02  0.00000000000E+00 0.  1.
</event>
<event>
12    1  0.1066489E+000  0.2052671E+03  0.7818608E-02  0.1145731E+00
         21   -1    0    0  503  502  0.00000000000E+00  0.00000000000E+00  0.43087620172E+03  0.43087620172E+03  0.00000000000E+00 0. -1.
         21   -1    0    0  501  503 -0.00000000000E+00 -0.00000000000E+00 -0.14121805839E+03  0.14121805839E+03  0.00000000000E+00 0. -1.
          6    2    1    2  501    0 -0.37685555511E+02 -0.10126221270E+03  0.30541250424E+03  0.36798286649E+03  0.17452895311E+03 0.  0.
         24    2    3    3    0    0 -0.70223541029E+02 -0.10218101112E+03  0.15412051871E+03  0.21315741776E+03  0.79439572688E+02 0.  0.
         -6    2    1    2    0  502  0.37685555511E+02  0.10126221270E+03 -0.15754360903E+02  0.20411139361E+03  0.17245006321E+03 0.  0.
        -24    2    5    5    0    0  0.35458111039E+02  0.87209365731E+02  0.51934071749E+02  0.13478421329E+03  0.81282748685E+02 0.  0.
          5    1    3    3  501    0  0.32537985518E+02  0.91879842140E+00  0.15129198552E+03  0.15482544873E+03  0.47000000000E+01 0. -1.
        -11    1    4    4    0    0 -0.25341096273E+02 -0.81811402711E+02  0.13584474079E+03  0.16058975800E+03  0.00000000000E+00 0.  1.
         12    1    4    4    0    0 -0.44882444756E+02 -0.20369608410E+02  0.18275777926E+02  0.52567659762E+02  0.00000000000E+00 0. -1.
         -5    1    5    5    0  502  0.22274444718E+01  0.14052846969E+02 -0.67688432652E+02  0.69327180325E+02  0.47000000000E+01 0.  1.
         13    1    6    6    0    0 -0.24408356300E+02  0.30632226730E+02  0.30577096375E+02  0.49689636691E+02  0.00000000000E+00 0. -1.
        -14    1    6    6    0    0  0.59866467340E+02  0.56577139001E+02  0.21356975373E+02  0.85094576598E+02  0.00000000000E+00 0.  1.
</event>
<event>
12    1  0.1066489E+000  0.2101028E+03  0.7818608E-02  0.1141642E+00
         21   -1    0    0  503  502  0.00000000000E+00  0.00000000000E+00  0.72963276209E+03  0.72963276209E+03  0.00000000000E+00 0. -1.
         21   -1    0    0  501  503 -0.00000000000E+00 -0.00000000000E+00 -0.11706069884E+03  0.11706069884E+03  0.00000000000E+00 0.  1.
          6    2    1    2  501    0  0.39053096510E+02  0.11357348055E+03  0.60144688190E+03  0.63708831732E+03  0.17239226341E+03 0.  0.
         24    2    3    3    0    0  0.22157313437E+02  0.14944761982E+03  0.47448247216E+03  0.50399258976E+03  0.77777738047E+02 0.  0.
         -6    2    1    2    0  502 -0.39053096510E+02 -0.11357348055E+03  0.11125181345E+02  0.20960514361E+03  0.17142481366E+03 0.  0.
        -24    2    5    5    0    0 -0.57216414672E+02 -0.12610070705E+02 -0.23756127662E+02  0.10115095065E+03  0.78958401862E+02 0.  0.
          5    1    3    3  501    0  0.16895783073E+02 -0.35874139272E+02  0.12696440974E+03  0.13309572756E+03  0.47000000000E+01 0. -1.
        -11    1    4    4    0    0  0.25818691588E+02  0.10022102469E+03  0.20087777798E+03  0.22597066250E+03  0.00000000000E+00 0.  1.
         12    1    4    4    0    0 -0.36613781510E+01  0.49226595128E+02  0.27360469418E+03  0.27802192726E+03  0.00000000000E+00 0. -1.
         -5    1    5    5    0  502  0.18163318162E+02 -0.10096340984E+03  0.34881309006E+02  0.10845419296E+03  0.47000000000E+01 0.  1.
         11    1    6    6    0    0 -0.47931849042E+02  0.15756641360E+02  0.14623125728E+02  0.52531606730E+02  0.00000000000E+00 0. -1.
        -12    1    6    6    0    0 -0.92845656295E+01 -0.28366712065E+02 -0.38379253390E+02  0.48619343919E+02  0.00000000000E+00 0.  1.
</event>
<event>
12    1  0.1066489E+000  0.1792692E+03  0.7818608E-02  0.1168973E+00
         21   -1    0    0  503  502  0.00000000000E+00  0.00000000000E+00  0.31523383642E+03  0.31523383642E+03  0.00000000000E+00 0.  1.
         21   -1    0    0  501  503 -0.00000000000E+00 -0.00000000000E+00 -0.12705664085E+03  0.12705664085E+03  0.00000000000E+00 0.  1.
          6    2    1    2  501    0  0.18292322275E+01 -0.49924210886E+02  0.19486293785E+03  0.26478108000E+03  0.17216760106E+03 0.  0.
         24    2    3    3    0    0 -0.37946590897E+02 -0.66865170056E+02  0.71798249191E+02  0.13425859229E+03  0.83423535588E+02 0.  0.
         -6    2    1    2    0  502 -0.18292322275E+01  0.49924210886E+02 -0.66857422716E+01  0.17750939727E+03  0.17020315522E+03 0.  0.
        -24    2    5    5    0    0 -0.54020698272E+02 -0.30036986997E+01 -0.27715013009E+02  0.10011667818E+03  0.79548533966E+02 0.  0.
          5    1    3    3  501    0  0.39775823125E+02  0.16940959170E+02  0.12306468866E+03  0.13052248771E+03  0.47000000000E+01 0. -1.
        -11    1    4    4    0    0 -0.60270677705E+02 -0.28584875057E+02  0.56374749847E+02  0.87337060252E+02  0.00000000000E+00 0.  1.
         12    1    4    4    0    0  0.22324086808E+02 -0.38280294999E+02  0.15423499344E+02  0.46921532041E+02  0.00000000000E+00 0. -1.
         -5    1    5    5    0  502  0.52191466045E+02  0.52927909586E+02  0.21029270737E+02  0.77392719094E+02  0.47000000000E+01 0.  1.
         13    1    6    6    0    0 -0.11599546511E+02  0.34978439647E+02 -0.21930255500E+02  0.42883293084E+02  0.00000000000E+00 0. -1.
        -14    1    6    6    0    0 -0.42421151761E+02 -0.37982138347E+02 -0.57847575088E+01  0.57233385096E+02  0.00000000000E+00 0.  1.
</event>
<event>
12    1  0.1164067E+000  0.2684021E+03  0.7818608E-02  0.1102599E+00
         21   -1    0    0  501  502  0.00000000000E+00  0.00000000000E+00  0.30460919036E+03  0.30460919036E+03  0.00000000000E+00 0.  1.
         21   -1    0    0  502  503 -0.00000000000E+00 -0.00000000000E+00 -0.48107537983E+03  0.48107537983E+03  0.00000000000E+00 0. -1.
         -6    2    1    2    0  503  0.17310797352E+03 -0.10531122459E+03  0.19348192158E+03  0.32862734076E+03  0.17176684951E+03 0.  0.
        -24    2    3    3    0    0  0.85890268621E+02 -0.42118913725E+02  0.18214871480E+03  0.22022656688E+03  0.78552182145E+02 0.  0.
          6    2    1    2  501    0 -0.17310797352E+03  0.10531122459E+03 -0.36994811105E+03  0.45705722944E+03  0.17601954889E+03 0.  0.
         24    2    5    5    0    0 -0.15084269110E+03  0.56425144266E+02 -0.35643751999E+03  0.40146750268E+03  0.90504893157E+02 0.  0.
          5    1    5    5  501    0 -0.22265282429E+02  0.48886080324E+02 -0.13510591059E+02  0.55589726765E+02  0.47000000000E+01 0. -1.
        -11    1    6    6    0    0 -0.25706528973E+02  0.13630813256E+02 -0.10201764361E+02  0.30833434742E+02  0.00000000000E+00 0.  1.
         12    1    6    6    0    0 -0.12513616212E+03  0.42794331010E+02 -0.34623575563E+03  0.37063406794E+03  0.00000000000E+00 0. -1.
         -5    1    3    3    0  503  0.87217704904E+02 -0.63192310865E+02  0.11333206783E+02  0.10840077388E+03  0.47000000000E+01 0.  1.
         13    1    4    4    0    0  0.41170671364E+02 -0.55282262426E+02  0.67552870037E+02  0.96511879941E+02  0.00000000000E+00 0. -1.
        -14    1    4    4    0    0  0.44719597257E+02  0.13163348701E+02  0.11459584476E+03  0.12371468694E+03  0.00000000000E+00 0.  1.
</event>
<event>
12    1  0.1066489E+000  0.2103973E+03  0.7818608E-02  0.1141450E+00
         21   -1    0    0  501  502  0.00000000000E+00  0.00000000000E+00  0.13832262546E+03  0.13832262546E+03  0.00000000000E+00 0.  1.
         21   -1    0    0  502  503 -0.00000000000E+00 -0.00000000000E+00 -0.38296813382E+03  0.38296813382E+03  0.00000000000E+00 0.  1.
         -6    2    1    2    0  503  0.65020626152E+02  0.99718877046E+02 -0.15632101486E+02  0.21097725687E+03  0.17348055815E+03 0.  0.
        -24    2    3    3    0    0  0.51773440263E+02 -0.56094718655E+01 -0.32807871953E+02  0.10333597246E+03  0.83006092857E+02 0.  0.
          6    2    1    2  501    0 -0.65020626152E+02 -0.99718877046E+02 -0.22901340687E+03  0.31031350241E+03  0.17226663341E+03 0.  0.
         24    2    5    5    0    0 -0.80189156139E+00  0.74826852575E+01 -0.12157939482E+03  0.14544877671E+03  0.79480587534E+02 0.  0.
          5    1    5    5  501    0 -0.64218734590E+02 -0.10720156230E+03 -0.10743401205E+03  0.16486472570E+03  0.47000000000E+01 0. -1.
        -11    1    6    6    0    0 -0.76641956781E+01 -0.27607564385E+02 -0.99229626136E+02  0.10328328137E+03  0.00000000000E+00 0.  1.
         12    1    6    6    0    0  0.68623041168E+01  0.35090249643E+02 -0.22349768679E+02  0.42165495346E+02  0.00000000000E+00 0. -1.
         -5    1    3    3    0  503  0.13247185889E+02  0.10532834891E+03  0.17175770467E+02  0.10764128441E+03  0.47000000000E+01 0.  1.
         13    1    4    4    0    0  0.69946418378E+02 -0.13804877538E+02 -0.83504574110E+01  0.71783049717E+02  0.00000000000E+00 0. -1.
        -14    1    4    4    0    0 -0.18172978115E+02  0.81954056722E+01 -0.24457414542E+02  0.31552922746E+02  0.00000000000E+00 0.  1.
</event>
<event>
12    1  0.1066489E+000  0.2011830E+03  0.7818608E-02  0.1148765E+00
         21   -1    0    0  501  502  0.00000000000E+00  0.00000000000E+00  0.42894124278E+03  0.42894124278E+03  0.00000000000E+00 0. -1.
         21   -1    0    0  502  503 -0.00000000000E+00 -0.00000000000E+00 -0.95329262573E+02  0.95329262573E+02  0.00000000000E+00 0. -1.
         -6    2    1    2    0  503  0.13408759115E+02 -0.99977765193E+02  0.13971050353E+03  0.24485612230E+03  0.17395444081E+03 0.  0.
        -24    2    3    3    0    0 -0.13106216533E+01  0.56802455357E+01  0.10547358458E+03  0.13271990148E+03  0.80348691869E+02 0.  0.
          6    2    1    2  501    0 -0.13408759115E+02  0.99977765193E+02  0.19390147668E+03  0.27941438306E+03  0.17406684476E+03 0.  0.
         24    2    5    5    0    0 -0.39750928506E+02  0.41016199970E+02  0.19107992117E+03  0.21460367995E+03  0.79251108476E+02 0.  0.
          5    1    5    5  501    0  0.26342169391E+02  0.58961565222E+02  0.28215555093E+01  0.64810703107E+02  0.47000000000E+01 0. -1.
        -11    1    6    6    0    0  0.16548313721E+02  0.31642661957E+02  0.10845943658E+03  0.11418648837E+03  0.00000000000E+00 0.  1.
         12    1    6    6    0    0 -0.56299242227E+02  0.93735380137E+01  0.82620484590E+02  0.10041719158E+03  0.00000000000E+00 0. -1.
         -5    1    3    3    0  503  0.14719380769E+02 -0.10565801073E+03  0.34236918943E+02  0.11213622082E+03  0.47000000000E+01 0.  1.
         13    1    4    4    0    0  0.24790835252E+02 -0.23082427846E+02  0.21289645085E+02  0.40007911412E+02  0.00000000000E+00 0. -1.
        -14    1    4    4    0    0 -0.26101456905E+02  0.28762673381E+02  0.84183939498E+02  0.92711990066E+02  0.00000000000E+00 0.  1.
</event>
<event>
12    1  0.1066489E+000  0.1862790E+03  0.7818608E-02  0.1162159E+00
         21   -1    0    0  503  502  0.00000000000E+00  0.00000000000E+00  0.72722076228E+02  0.72722076228E+02  0.00000000000E+00 0. -1.
         21   -1    0    0  501  503 -0.00000000000E+00 -0.00000000000E+00 -0.50753327757E+03  0.50753327757E+03  0.00000000000E+00 0. -1.
          6    2    1    2  501    0 -0.21892312570E+02 -0.68089283142E+02 -0.14199481288E+03  0.23320882487E+03  0.17061185564E+03 0.  0.
         24    2    3    3    0    0 -0.10654579475E+02 -0.11146260259E+03 -0.12278116458E+03  0.18423142431E+03  0.79552319164E+02 0.  0.
         -6    2    1    2    0  502  0.21892312570E+02  0.68089283142E+02 -0.29281638846E+03  0.34704652893E+03  0.17200125598E+03 0.  0.
        -24    2    5    5    0    0 -0.19627538093E+02  0.62342487006E+02 -0.79480317357E+02  0.12958091578E+03  0.78754472574E+02 0.  0.
          5    1    3    3  501    0 -0.11237733095E+02  0.43373319452E+02 -0.19213648299E+02  0.48977400568E+02  0.47000000000E+01 0. -1.
        -13    1    4    4    0    0 -0.42769254267E+02 -0.86151534333E+02 -0.80674528343E+02  0.12553754618E+03  0.00000000000E+00 0.  1.
         14    1    4    4    0    0  0.32114674792E+02 -0.25311068261E+02 -0.42106636240E+02  0.58693878122E+02  0.00000000000E+00 0. -1.
         -5    1    5    5    0  502  0.41519850664E+02  0.57467961359E+01 -0.21333607110E+03  0.21746561314E+03  0.47000000000E+01 0.  1.
         11    1    6    6    0    0 -0.11093730356E+02 -0.11210810471E+02  0.56498751422E+01  0.16753334407E+02  0.00000000000E+00 0. -1.
        -12    1    6    6    0    0 -0.85338077369E+01  0.73553297477E+02 -0.85130192499E+02  0.11282758138E+03  0.00000000000E+00 0.  1.
</event>
<event>
12    1  0.1066489E+000  0.1833046E+03  0.7818608E-02  0.1164658E+00
         21   -1    0    0  503  502  0.00000000000E+00  0.00000000000E+00  0.93972407851E+02  0.93972407851E+02  0.00000000000E+00 0. -1.
         21   -1    0    0  501  503 -0.00000000000E+00 -0.00000000000E+00 -0.36806384569E+03  0.36806384569E+03  0.00000000000E+00 0. -1.
          6    2    1    2  501    0 -0.57324843063E+02 -0.41882045601E+02 -0.17628178411E+03  0.25426879413E+03  0.16892930143E+03 0.  0.
         24    2    3    3    0    0 -0.14380987129E+02 -0.68593528400E+02 -0.17311188057E+03  0.20337855573E+03  0.80518499767E+02 0.  0.
         -6    2    1    2    0  502  0.57324843063E+02  0.41882045601E+02 -0.97809653730E+02  0.20776745941E+03  0.16899806346E+03 0.  0.
        -24    2    5    5    0    0  0.89043099108E+02  0.62340192223E+01 -0.10597772211E+03  0.15912964601E+03  0.78252349240E+02 0.  0.
          5    1    3    3  501    0 -0.42943855934E+02  0.26711482799E+02 -0.31699035325E+01  0.50890238398E+02  0.47000000000E+01 0. -1.
        -13    1    4    4    0    0  0.11209838728E+02  0.70821555587E+01 -0.78227492918E+02  0.79343292469E+02  0.00000000000E+00 0.  1.
         14    1    4    4    0    0 -0.25590825857E+02 -0.75675683958E+02 -0.94884387657E+02  0.12403526326E+03  0.00000000000E+00 0. -1.
         -5    1    5    5    0  502 -0.31718256046E+02  0.35648026379E+02  0.81680683818E+01  0.48637813400E+02  0.47000000000E+01 0.  1.
         13    1    6    6    0    0  0.66932651070E+02  0.76499450405E+01 -0.11652009106E+03  0.13459358477E+03  0.00000000000E+00 0. -1.
        -14    1    6    6    0    0  0.22110448038E+02 -0.14159258183E+01  0.10542368953E+02  0.24536061247E+02  0.00000000000E+00 0.  1.
</event>
<event>
12    1  0.1066489E+000  0.2205732E+03  0.7818608E-02  0.1133463E+00
         21   -1    0    0  503  502  0.00000000000E+00  0.00000000000E+00  0.10880248072E+04  0.10880248072E+04  0.00000000000E+00 0.  1.
         21   -1    0    0  501  503 -0.00000000000E+00 -0.00000000000E+00 -0.98094514464E+02  0.98094514464E+02  0.00000000000E+00 0. -1.
          6    2    1    2  501    0 -0.10700721351E+03 -0.87166243185E+02  0.57435077540E+02  0.22789186774E+03  0.17200993448E+03 0.  0.
         24    2    3    3    0    0 -0.85244490876E+02 -0.10139988605E+02 -0.11804280886E+02  0.12195396732E+03  0.85813673178E+02 0.  0.
         -6    2    1    2    0  502  0.10700721351E+03  0.87166243185E+02  0.93249521517E+03  0.95822745389E+03  0.17205821511E+03 0.  0.
        -24    2    5    5    0    0  0.45041876546E+02  0.10163756604E+03  0.79354790014E+03  0.80533020564E+03  0.80495371444E+02 0.  0.
          5    1    3    3  501    0 -0.21762722630E+02 -0.77026254580E+02  0.69239358426E+02  0.10593790042E+03  0.47000000000E+01 0. -1.
        -13    1    4    4    0    0  0.17349619356E+02 -0.36692820769E+01 -0.69335754220E+01  0.19040677270E+02  0.00000000000E+00 0.  1.
         14    1    4    4    0    0 -0.10259411023E+03 -0.64707065280E+01 -0.48707054641E+01  0.10291329005E+03  0.00000000000E+00 0. -1.
         -5    1    5    5    0  502  0.61965336960E+02 -0.14471322858E+02  0.13894731503E+03  0.15289724825E+03  0.47000000000E+01 0.  1.
         11    1    6    6    0    0  0.28693403280E+02  0.26545656138E+02  0.97369038348E+02  0.10492241362E+03  0.00000000000E+00 0. -1.
        -12    1    6    6    0    0  0.16348473266E+02  0.75091909906E+02  0.69617886179E+03  0.70040779202E+03  0.00000000000E+00 0.  1.
</event>
<event>
12    1  0.1066489E+000  0.2366562E+03  0.7818608E-02  0.1122481E+00
         21   -1    0    0  501  502  0.00000000000E+00  0.00000000000E+00  0.11659467146E+04  0.11659467146E+04  0.00000000000E+00 0.  1.
         21   -1    0    0  502  503 -0.00000000000E+00 -0.00000000000E+00 -0.96854378807E+02  0.96854378807E+02  0.00000000000E+00 0. -1.
         -6    2    1    2    0  503 -0.22438305426E+02 -0.16068810433E+03  0.98376942653E+03  0.10112336801E+04  0.16872203987E+03 0.  0.
        -24    2    3    3    0    0 -0.59132675380E+02 -0.38446160373E+02  0.39982663560E+03  0.41348720981E+03  0.78329774633E+02 0.  0.
          6    2    1    2  501    0  0.22438305426E+02  0.16068810433E+03  0.85322909237E+02  0.25156741330E+03  0.17228470672E+03 0.  0.
         24    2    5    5    0    0  0.18136268609E+01  0.13250616489E+03  0.12463016751E+03  0.19877773979E+03  0.80117028179E+02 0.  0.
          5    1    5    5  501    0  0.20624678565E+02  0.28181939433E+02 -0.39307258276E+02  0.52789673510E+02  0.47000000000E+01 0. -1.
        -11    1    6    6    0    0 -0.26411116509E+02  0.50192036659E+02  0.87263474487E+02  0.10407546108E+03  0.00000000000E+00 0.  1.
         12    1    6    6    0    0  0.28224743370E+02  0.82314128234E+02  0.37366693026E+02  0.94702278710E+02  0.00000000000E+00 0. -1.
         -5    1    3    3    0  503  0.36694369954E+02 -0.12224194395E+03  0.58394279093E+03  0.59774647027E+03  0.47000000000E+01 0.  1.
         11    1    4    4    0    0 -0.74553594158E+01 -0.45163396678E+02  0.26529658561E+03  0.26921662861E+03  0.00000000000E+00 0. -1.
        -12    1    4    4    0    0 -0.51677315964E+02  0.67172363050E+01  0.13453004999E+03  0.14427058120E+03  0.00000000000E+00 0.  1.
</event>
<event>
12    1  0.1066489E+000  0.3187820E+03  0.7818608E-02  0.1076372E+00
         21   -1    0    0  501  502  0.00000000000E+00  0.00000000000E+00  0.43646369180E+03  0.43646369180E+03  0.00000000000E+00 0. -1.
         21   -1    0    0  502  503 -0.00000000000E+00 -0.00000000000E+00 -0.23635698828E+03  0.23635698828E+03  0.00000000000E+00 0. -1.
         -6    2    1    2    0  503 -0.21672932766E+03 -0.15702243775E+03  0.53663439859E+02  0.32326724598E+03  0.17318862584E+03 0.  0.
        -24    2    3    3    0    0 -0.17376660876E+03 -0.55645131807E+02  0.71799941629E+02  0.21157939493E+03  0.79494614455E+02 0.  0.
          6    2    1    2  501    0  0.21672932766E+03  0.15702243775E+03  0.14644326365E+03  0.34955343410E+03  0.17062920734E+03 0.  0.
         24    2    5    5    0    0  0.53792409025E+02  0.66714263083E+02  0.10699925915E+03  0.15907528481E+03  0.80695034612E+02 0.  0.
          5    1    5    5  501    0  0.16293691864E+03  0.90308174668E+02  0.39444004506E+02  0.19047814929E+03  0.47000000000E+01 0. -1.
        -11    1    6    6    0    0  0.67630651011E+02  0.75314596184E+02  0.88863809155E+02  0.13469584230E+03  0.00000000000E+00 0.  1.
         12    1    6    6    0    0 -0.13838241986E+02 -0.86003331010E+01  0.18135449993E+02  0.24379442511E+02  0.00000000000E+00 0. -1.
         -5    1    3    3    0  503 -0.42962718899E+02 -0.10137730594E+03 -0.18136501770E+02  0.11168785105E+03  0.47000000000E+01 0.  1.
         11    1    4    4    0    0 -0.51310627365E+02 -0.25080850906E+02  0.63038736251E+02  0.85062987432E+02  0.00000000000E+00 0. -1.
        -12    1    4    4    0    0 -0.12245598140E+03 -0.30564280901E+02  0.87612053772E+01  0.12651640750E+03  0.00000000000E+00 0.  1.
</event>
<event>
12    1  0.1066489E+000  0.2495752E+03  0.7818608E-02  0.1113584E+00
         21   -1    0    0  503  502  0.00000000000E+00  0.00000000000E+00  0.34227233506E+03  0.34227233506E+03  0.00000000000E+00 0.  1.
         21   -1    0    0  501  503 -0.00000000000E+00 -0.00000000000E+00 -0.18221012254E+03  0.18221012254E+03  0.00000000000E+00 0.  1.
          6    2    1    2  501    0  0.18077627310E+03 -0.12222570193E+02  0.69833938937E+02  0.25909794149E+03  0.17153866071E+03 0.  0.
         24    2    3    3    0    0  0.27508725294E+02 -0.55314779649E+02 -0.20280758974E+01  0.84357794694E+02  0.57407922962E+02 0.  0.
         -6    2    1    2    0  502 -0.18077627310E+03  0.12222570193E+02  0.90228273583E+02  0.26538451610E+03  0.17163434358E+03 0.  0.
        -24    2    5    5    0    0 -0.10322152854E+03  0.69490338300E+02  0.28787096390E+02  0.15096666819E+03  0.80490042328E+02 0.  0.
          5    1    3    3  501    0  0.15326754780E+03  0.43092209456E+02  0.71862014834E+02  0.17474014679E+03  0.47000000000E+01 0. -1.
        -13    1    4    4    0    0  0.23778374984E+02 -0.30569940236E+02 -0.28382251543E+02  0.48015461735E+02  0.00000000000E+00 0.  1.
         14    1    4    4    0    0  0.37303503092E+01 -0.24744839413E+02  0.26354175645E+02  0.36342332959E+02  0.00000000000E+00 0. -1.
         -5    1    5    5    0  502 -0.77554744560E+02 -0.57267768107E+02  0.61441177193E+02  0.11441784792E+03  0.47000000000E+01 0.  1.
         11    1    6    6    0    0 -0.81858648060E+02  0.46874141719E+02  0.55943583974E+02  0.10967090777E+03  0.00000000000E+00 0. -1.
        -12    1    6    6    0    0 -0.21362880477E+02  0.22616196582E+02 -0.27156487584E+02  0.41295760412E+02  0.00000000000E+00 0.  1.
</event>
<event>
12    1  0.1066489E+000  0.2372367E+03  0.7818608E-02  0.1121685E+00
         21   -1    0    0  503  502  0.00000000000E+00  0.00000000000E+00  0.12766495037E+03  0.12766495037E+03  0.00000000000E+00 0. -1.
         21   -1    0    0  501  503 -0.00000000000E+00 -0.00000000000E+00 -0.44043474667E+03  0.44043474667E+03  0.00000000000E+00 0. -1.
          6    2    1    2  501    0 -0.13295782896E+03 -0.94753096024E+02 -0.15590410989E+03  0.28369134277E+03  0.17181022378E+03 0.  0.
         24    2    3    3    0    0 -0.59223837220E+02 -0.12109620608E+03 -0.91904627551E+02  0.18245555500E+03  0.81681178763E+02 0.  0.
         -6    2    1    2    0  502  0.13295782896E+03  0.94753096024E+02 -0.15686568640E+03  0.28440835428E+03  0.17212011772E+03 0.  0.
        -24    2    5    5    0    0  0.24023389342E+02  0.60858090561E+02 -0.18757023571E+02  0.10521104325E+03  0.80229092393E+02 0.  0.
          5    1    3    3  501    0 -0.73733991737E+02  0.26343110056E+02 -0.63999482339E+02  0.10123578777E+03  0.47000000000E+01 0. -1.
        -13    1    4    4    0    0 -0.58902124294E+02 -0.92371477485E+02 -0.29037762476E+02  0.11333640963E+03  0.00000000000E+00 0.  1.
         14    1    4    4    0    0 -0.32171292574E+00 -0.28724728594E+02 -0.62866865076E+02  0.69119145368E+02  0.00000000000E+00 0. -1.
         -5    1    5    5    0  502  0.10893443961E+03  0.33895005462E+02 -0.13810866283E+03  0.17919731103E+03  0.47000000000E+01 0.  1.
         13    1    6    6    0    0 -0.27929181592E-01 -0.19552914041E+02 -0.47180941008E+01  0.20114115429E+02  0.00000000000E+00 0. -1.
        -14    1    6    6    0    0  0.24051318524E+02  0.80411004602E+02 -0.14038929470E+02  0.85096927821E+02  0.00000000000E+00 0.  1.
</event>
<event>
12    1  0.1066489E+000  0.2044699E+03  0.7818608E-02  0.1146065E+00
         21   -1    0    0  501  502  0.00000000000E+00  0.00000000000E+00  0.52743649273E+03  0.52743649273E+03  0.00000000000E+00 0.  1.
         21   -1    0    0  502  503 -0.00000000000E+00 -0.00000000000E+00 -0.83274157337E+02  0.83274157337E+02  0.00000000000E+00 0.  1.
         -6    2    1    2    0  503 -0.10393107859E+03 -0.36339395041E+02  0.28964076765E+03  0.35442008568E+03  0.17204534903E+03 0.  0.
        -24    2    3    3    0    0 -0.88898758360E+02 -0.55627089329E+02  0.29990566446E+03  0.32748601973E+03  0.79412362011E+02 0.  0.
          6    2    1    2  501    0  0.10393107859E+03  0.36339395041E+02  0.15452156774E+03  0.25629056438E+03  0.17229543745E+03 0.  0.
         24    2    5    5    0    0  0.59337832045E+02  0.80515541410E+02  0.14419779293E+03  0.19250373289E+03  0.79126183849E+02 0.  0.
          5    1    5    5  501    0  0.44593246541E+02 -0.44176146369E+02  0.10323774805E+02  0.63786831489E+02  0.47000000000E+01 0. -1.
        -11    1    6    6    0    0  0.46928550635E+02  0.93768807189E+02  0.10074883676E+03  0.14541391328E+03  0.00000000000E+00 0.  1.
         12    1    6    6    0    0  0.12409281410E+02 -0.13253265779E+02  0.43448956168E+02  0.47089819611E+02  0.00000000000E+00 0. -1.
         -5    1    3    3    0  503 -0.15032320226E+02  0.19287694289E+02 -0.10264896805E+02  0.26934065953E+02  0.47000000000E+01 0.  1.
         11    1    4    4    0    0 -0.29633698150E+02 -0.63208722595E+02  0.13299489220E+03  0.15020366184E+03  0.00000000000E+00 0. -1.
        -12    1    4    4    0    0 -0.59265060210E+02  0.75816332654E+01  0.16691077225E+03  0.17728235789E+03  0.00000000000E+00 0.  1.
</event>
<event>
12    1  0.1066489E+000  0.1829603E+03  0.7818608E-02  0.1165154E+00
         21   -1    0    0  503  502  0.00000000000E+00  0.00000000000E+00  0.80940957402E+03  0.80940957402E+03  0.00000000000E+00 0. -1.
         21   -1    0    0  501  503 -0.00000000000E+00 -0.00000000000E+00 -0.72527863572E+02  0.72527863572E+02  0.00000000000E+00 0. -1.
          6    2    1    2  501    0 -0.46698261801E+02 -0.38485617809E+02  0.65879615460E+03  0.68373010143E+03  0.17266327881E+03 0.  0.
         24    2    3    3    0    0 -0.75174425133E+01 -0.18621892651E+02  0.15075255194E+03  0.17376922412E+03  0.84060243326E+02 0.  0.
         -6    2    1    2    0  502  0.46698261801E+02  0.38485617809E+02  0.78085555845E+02  0.19820733616E+03  0.17183400025E+03 0.  0.
        -24    2    5    5    0    0  0.13561113901E+02  0.14699812879E+01  0.11217567685E+03  0.13777179804E+03  0.78813838904E+02 0.  0.
          5    1    3    3  501    0 -0.39180819288E+02 -0.19863725158E+02  0.50804360266E+03  0.50996087731E+03  0.47000000000E+01 0. -1.
        -11    1    4    4    0    0  0.36370257443E+02 -0.20599100414E+02  0.62537281540E+02  0.75219878668E+02  0.00000000000E+00 0.  1.
         12    1    4    4    0    0 -0.43887699956E+02  0.19772077633E+01  0.88215270399E+02  0.98549345454E+02  0.00000000000E+00 0. -1.
         -5    1    5    5    0  502  0.33137147900E+02  0.37015636521E+02 -0.34090121006E+02  0.60435538123E+02  0.47000000000E+01 0.  1.
         11    1    6    6    0    0  0.43526150566E+02 -0.12110557221E+02  0.79269668057E+02  0.91240734616E+02  0.00000000000E+00 0. -1.
        -12    1    6    6    0    0 -0.29965036666E+02  0.13580538509E+02  0.32906008793E+02  0.46531063423E+02  0.00000000000E+00 0.  1.
</event>
<event>
12    1  0.1066489E+000  0.2158620E+03  0.7818608E-02  0.1137095E+00
         21   -1    0    0  501  502  0.00000000000E+00  0.00000000000E+00  0.23504461141E+03  0.23504461141E+03  0.00000000000E+00 0. -1.
         21   -1    0    0  502  503 -0.00000000000E+00 -0.00000000000E+00 -0.19849716078E+03  0.19849716078E+03  0.00000000000E+00 0. -1.
         -6    2    1    2    0  503  0.11049220019E+03  0.69002193520E+02  0.30925710849E+02  0.21760655748E+03  0.17154120570E+03 0.  0.
        -24    2    3    3    0    0  0.42785251409E+02 -0.26469534897E+02  0.33675194870E+02  0.10043688776E+03  0.80139476270E+02 0.  0.
          6    2    1    2  501    0 -0.11049220019E+03 -0.69002193520E+02  0.56217397735E+01  0.21593521471E+03  0.17212374613E+03 0.  0.
         24    2    5    5    0    0 -0.96091970496E+02 -0.20981759960E+02 -0.54933286405E+02  0.13718034280E+03  0.78274385663E+02 0.  0.
          5    1    5    5  501    0 -0.14400229694E+02 -0.48020433560E+02  0.60555026178E+02  0.78754871913E+02  0.47000000000E+01 0. -1.
        -13    1    6    6    0    0 -0.68971305728E+02 -0.50551264655E+02 -0.39432724620E+02  0.94166932322E+02  0.00000000000E+00 0.  1.
         14    1    6    6    0    0 -0.27120664769E+02  0.29569504695E+02 -0.15500561785E+02  0.43013410479E+02  0.00000000000E+00 0. -1.
         -5    1    3    3    0  503  0.67706948780E+02  0.95471728417E+02 -0.27494840213E+01  0.11716966972E+03  0.47000000000E+01 0.  1.
         11    1    4    4    0    0 -0.15647592405E+02  0.16000678115E+02  0.84695152426E+01  0.23929093937E+02  0.00000000000E+00 0. -1.
        -12    1    4    4    0    0  0.58432843815E+02 -0.42470213011E+02  0.25205679627E+02  0.76507793819E+02  0.00000000000E+00 0.  1.
</event>
<event>
12    1  0.1066489E+000  0.5194187E+03  0.7818608E-02  0.1008845E+00
         21   -1    0    0  501  502  0.00000000000E+00  0.00000000000E+00  0.72669803721E+03  0.72669803721E+03  0.00000000000E+00 0.  1.
         21   -1    0    0  502  503 -0.00000000000E+00 -0.00000000000E+00 -0.39951185989E+03  0.39951185989E+03  0.00000000000E+00 0. -1.
         -6    2    1    2    0  503 -0.12844632490E+03  0.47256764154E+03  0.31371123317E+03  0.60661648997E+03  0.17248244510E+03 0.  0.
        -24    2    3    3    0    0 -0.95781487882E+02  0.34392242488E+03  0.14931152993E+03  0.39527331933E+03  0.80562623148E+02 0.  0.
          6    2    1    2  501    0  0.12844632490E+03 -0.47256764154E+03  0.13474944145E+02  0.51959340714E+03  0.17313896271E+03 0.  0.
         24    2    5    5    0    0  0.29674616631E+01 -0.13940027979E+03 -0.21413414540E+02  0.16184388075E+03  0.79332613600E+02 0.  0.
          5    1    5    5  501    0  0.12547886324E+03 -0.33316736176E+03  0.34888358686E+02  0.35774952639E+03  0.47000000000E+01 0. -1.
        -11    1    6    6    0    0  0.30673220401E+02 -0.42006983681E+02  0.15169428293E+02  0.54180667054E+02  0.00000000000E+00 0.  1.
         12    1    6    6    0    0 -0.27705758738E+02 -0.97393296105E+02 -0.36582842833E+02  0.10766321370E+03  0.00000000000E+00 0. -1.
         -5    1    3    3    0  503 -0.32664837017E+02  0.12864521667E+03  0.16439970324E+03  0.21134317064E+03  0.47000000000E+01 0.  1.
         11    1    4    4    0    0 -0.14215806359E+02  0.19469786304E+03  0.92053230605E+02  0.21583128663E+03  0.00000000000E+00 0. -1.
        -12    1    4    4    0    0 -0.81565681524E+02  0.14922456183E+03  0.57258299323E+02  0.17944203270E+03  0.00000000000E+00 0.  1.
</event>
<event>
12    1  0.1066489E+000  0.2152203E+03  0.7818608E-02  0.1138010E+00
         21   -1    0    0  501  502  0.00000000000E+00  0.00000000000E+00  0.10307599978E+03  0.10307599978E+03  0.00000000000E+00 0.  1.
         21   -1    0    0  502  503 -0.00000000000E+00 -0.00000000000E+00 -0.53850891046E+03  0.53850891046E+03  0.00000000000E+00 0.  1.
         -6    2    1    2    0  503 -0.10705773367E+03 -0.62340825711E+02 -0.35109801341E+03  0.41043095584E+03  0.17273105569E+03 0.  0.
        -24    2    3    3    0    0 -0.11824444428E+03 -0.57800317966E+02 -0.17575724097E+03  0.23461219920E+03  0.82641701945E+02 0.  0.
          6    2    1    2  501    0  0.10705773367E+03  0.62340825711E+02 -0.84334897268E+02  0.23115395440E+03  0.17598874636E+03 0.  0.
         24    2    5    5    0    0 -0.24226314382E+01 -0.13979177711E+02 -0.19870921995E+02  0.82869135974E+02  0.79190615628E+02 0.  0.
          5    1    5    5  501    0  0.10948036511E+03  0.76320003422E+02 -0.64463975273E+02  0.14828481842E+03  0.47000000000E+01 0. -1.
        -11    1    6    6    0    0 -0.22088438905E+01 -0.29947221295E+02 -0.44399176859E+02  0.53600391421E+02  0.00000000000E+00 0.  1.
         12    1    6    6    0    0 -0.21378754776E+00  0.15968043584E+02  0.24528254864E+02  0.29268744553E+02  0.00000000000E+00 0. -1.
         -5    1    3    3    0  503  0.11186710610E+02 -0.45405077449E+01 -0.17534077245E+03  0.17581875664E+03  0.47000000000E+01 0.  1.
         11    1    4    4    0    0 -0.10033288321E+03 -0.51243508483E+02 -0.18242230261E+03  0.21440727857E+03  0.00000000000E+00 0. -1.
        -12    1    4    4    0    0 -0.17911561073E+02 -0.65568094827E+01  0.66650616478E+01  0.20204920624E+02  0.00000000000E+00 0.  1.
</event>
<event>
12    1  0.1066489E+000  0.1919556E+03  0.7818608E-02  0.1158900E+00
         21   -1    0    0  501  502  0.00000000000E+00  0.00000000000E+00  0.82860653559E+02  0.82860653559E+02  0.00000000000E+00 0. -1.
         21   -1    0    0  502  503 -0.00000000000E+00 -0.00000000000E+00 -0.46495678192E+03  0.46495678192E+03  0.00000000000E+00 0. -1.
         -6    2    1    2    0  503 -0.50918178685E+02  0.23314664775E+02 -0.11301365719E+03  0.22275329102E+03  0.18360475875E+03 0.  0.
        -24    2    3    3    0    0 -0.74858544702E+02 -0.34051493523E+02 -0.11190688939E+03  0.16040481728E+03  0.80269842339E+02 0.  0.
          6    2    1    2  501    0  0.50918178685E+02 -0.23314664775E+02 -0.26908247117E+03  0.32506414446E+03  0.17356580079E+03 0.  0.
         24    2    5    5    0    0 -0.32777416493E+02  0.18740534157E+02 -0.10541640460E+03  0.13643152863E+03  0.77944704702E+02 0.  0.
          5    1    5    5  501    0  0.83695595178E+02 -0.42055198932E+02 -0.16366606657E+03  0.18863261583E+03  0.47000000000E+01 0. -1.
        -11    1    6    6    0    0  0.15133707872E+02  0.30015928347E+02 -0.63213519341E+02  0.71595629028E+02  0.00000000000E+00 0.  1.
         12    1    6    6    0    0 -0.47911124366E+02 -0.11275394189E+02 -0.42202885263E+02  0.64835899598E+02  0.00000000000E+00 0. -1.
         -5    1    3    3    0  503  0.23940366017E+02  0.57366158298E+02 -0.11067678040E+01  0.62348473741E+02  0.47000000000E+01 0.  1.
         13    1    4    4    0    0 -0.17470249866E+02 -0.10791732214E+02 -0.93609409948E+02  0.95835237493E+02  0.00000000000E+00 0. -1.
        -14    1    4    4    0    0 -0.57388294835E+02 -0.23259761309E+02 -0.18297479438E+02  0.64569579788E+02  0.00000000000E+00 0.  1.
</event>
<event>
12    1  0.1066489E+000  0.2174764E+03  0.7818608E-02  0.1136868E+00
         21   -1    0    0  501  502  0.00000000000E+00  0.00000000000E+00  0.51444216670E+02  0.51444216670E+02  0.00000000000E+00 0. -1.
         21   -1    0    0  502  503 -0.00000000000E+00 -0.00000000000E+00 -0.12425630836E+04  0.12425630836E+04  0.00000000000E+00 0. -1.
         -6    2    1    2    0  503  0.44019515082E+02  0.12723752871E+03 -0.93179170344E+03  0.95556003377E+03  0.16349952021E+03 0.  0.
        -24    2    3    3    0    0  0.64077617185E+02  0.11429537365E+03 -0.91029515112E+03  0.92309438116E+03  0.79351124222E+02 0.  0.
          6    2    1    2  501    0 -0.44019515082E+02 -0.12723752871E+03 -0.25932716349E+03  0.33844726650E+03  0.17078895767E+03 0.  0.
         24    2    5    5    0    0 -0.26767691649E+02 -0.14747719335E+03 -0.15349578299E+03  0.22922437269E+03  0.80726858977E+02 0.  0.
          5    1    5    5  501    0 -0.17251823433E+02  0.20239664648E+02 -0.10583138049E+03  0.10922289382E+03  0.47000000000E+01 0. -1.
        -11    1    6    6    0    0 -0.30346565351E+02 -0.13088884067E+02 -0.48289499826E+02  0.58515884238E+02  0.00000000000E+00 0.  1.
         12    1    6    6    0    0  0.35788737019E+01 -0.13438830929E+03 -0.10520628317E+03  0.17070848845E+03  0.00000000000E+00 0. -1.
         -5    1    3    3    0  503 -0.20058102103E+02  0.12942155052E+02 -0.21496552323E+02  0.32465652606E+02  0.47000000000E+01 0.  1.
         13    1    4    4    0    0  0.25889844990E+01  0.14703055847E+02 -0.36842731737E+03  0.36872967181E+03  0.00000000000E+00 0. -1.
        -14    1    4    4    0    0  0.61488632686E+02  0.99592317807E+02 -0.54186783375E+03  0.55436470935E+03  0.00000000000E+00 0.  1.
</event>
<event>
12    1  0.1066489E+000  0.2125971E+03  0.7818608E-02  0.1139775E+00
         21   -1    0    0  501  502  0.00000000000E+00  0.00000000000E+00  0.16315007804E+03  0.16315007804E+03  0.00000000000E+00 0.  1.
         21   -1    0    0  502  503 -0.00000000000E+00 -0.00000000000E+00 -0.28236465578E+03  0.28236465578E+03  0.00000000000E+00 0.  1.
         -6    2    1    2    0  503  0.11991555548E+03  0.29307074746E+02 -0.24371317663E+02  0.21272130039E+03  0.17151602094E+03 0.  0.
        -24    2    3    3    0    0  0.15366770238E+03  0.32493815797E+02 -0.28576960221E+02  0.17823738867E+03  0.79261044930E+02 0.  0.
          6    2    1    2  501    0 -0.11991555548E+03 -0.29307074746E+02 -0.94843260075E+02  0.23279343342E+03  0.17308637608E+03 0.  0.
         24    2    5    5    0    0 -0.25857917024E+01 -0.51420546168E+02 -0.39027193604E+02  0.10091165923E+03  0.77519560375E+02 0.  0.
          5    1    5    5  501    0 -0.11732976378E+03  0.22113471422E+02 -0.55816066470E+02  0.13188177419E+03  0.47000000000E+01 0. -1.
        -11    1    6    6    0    0 -0.10240834538E+02 -0.64610823722E+02 -0.49820145397E+02  0.82228219739E+02  0.00000000000E+00 0.  1.
         12    1    6    6    0    0  0.76550428359E+01  0.13190277553E+02  0.10792951793E+02  0.18683439490E+02  0.00000000000E+00 0. -1.
         -5    1    3    3    0  503 -0.33752146896E+02 -0.31867410512E+01  0.42056425573E+01  0.34483911726E+02  0.47000000000E+01 0.  1.
         11    1    4    4    0    0  0.13843217158E+03 -0.10209117575E+01 -0.16117636270E+02  0.13937103927E+03  0.00000000000E+00 0. -1.
        -12    1    4    4    0    0  0.15235530800E+02  0.33514727555E+02 -0.12459323951E+02  0.38866349393E+02  0.00000000000E+00 0.  1.
</event>
<event>
12    1  0.1066489E+000  0.2089462E+03  0.7818608E-02  0.1142408E+00
         21   -1    0    0  503  502  0.00000000000E+00  0.00000000000E+00  0.19320746304E+03  0.19320746304E+03  0.00000000000E+00 0. -1.
         21   -1    0    0  501  503 -0.00000000000E+00 -0.00000000000E+00 -0.31948550020E+03  0.31948550020E+03  0.00000000000E+00 0.  1.
          6    2    1    2  501    0 -0.88311715077E+02  0.78907487583E+02  0.75573025071E+02  0.22217211185E+03  0.17211570105E+03 0.  0.
         24    2    3    3    0    0 -0.99515102930E+02  0.60443108282E+02 -0.44512994180E+01  0.13915144145E+03  0.76070260564E+02 0.  0.
         -6    2    1    2    0  502  0.88311715077E+02 -0.78907487583E+02 -0.20185106223E+03  0.29052085139E+03  0.17214285681E+03 0.  0.
        -24    2    5    5    0    0  0.23248329921E+00 -0.87530297097E+02 -0.99868439009E+02  0.15541034346E+03  0.80728327028E+02 0.  0.
          5    1    3    3  501    0  0.11203387853E+02  0.18464379301E+02  0.80024324489E+02  0.83020670392E+02  0.47000000000E+01 0. -1.
        -11    1    4    4    0    0 -0.96024570560E+02  0.19643984165E+02 -0.57597398391E+01  0.98182375547E+02  0.00000000000E+00 0.  1.
         12    1    4    4    0    0 -0.34905323704E+01  0.40799124117E+02  0.13084404211E+01  0.40969065907E+02  0.00000000000E+00 0. -1.
         -5    1    5    5    0  502  0.88079231778E+02  0.86228095141E+01 -0.10198262322E+03  0.13511050793E+03  0.47000000000E+01 0.  1.
         13    1    6    6    0    0 -0.14192374308E+02  0.11142204541E+02 -0.24420896904E+02  0.30363669346E+02  0.00000000000E+00 0. -1.
        -14    1    6    6    0    0  0.14424857607E+02 -0.98672501638E+02 -0.75447542105E+02  0.12504667411E+03  0.00000000000E+00 0.  1.
</event>
<event>
12    1  0.1066489E+000  0.1752743E+03  0.7818608E-02  0.1172527E+00
         21   -1    0    0  503  502  0.00000000000E+00  0.00000000000E+00  0.64955687294E+03  0.64955687294E+03  0.00000000000E+00 0.  1.
         21   -1    0    0  501  503 -0.00000000000E+00 -0.00000000000E+00 -0.88376318916E+02  0.88376318916E+02  0.00000000000E+00 0.  1.
          6    2    1    2  501    0  0.26230338877E+02 -0.21837286719E+02  0.28680709932E+02  0.17732891923E+03  0.17163351859E+03 0.  0.
         24    2    3    3    0    0  0.12113183197E+02 -0.80356589753E+02  0.30514533286E+02  0.11691984855E+03  0.78327539982E+02 0.  0.
         -6    2    1    2    0  502 -0.26230338877E+02  0.21837286719E+02  0.53249984409E+03  0.56060427262E+03  0.17191907619E+03 0.  0.
        -24    2    5    5    0    0 -0.71278335017E+01  0.26811320483E+02  0.11531704800E+03  0.14292829525E+03  0.79754768552E+02 0.  0.
          5    1    3    3  501    0  0.14117155680E+02  0.58519303034E+02 -0.18338233544E+01  0.60409070678E+02  0.47000000000E+01 0. -1.
        -11    1    4    4    0    0  0.12971148165E+02 -0.90183201243E+02  0.69521858818E+01  0.91376109348E+02  0.00000000000E+00 0.  1.
         12    1    4    4    0    0 -0.85796496793E+00  0.98266114900E+01  0.23562347404E+02  0.25543739203E+02  0.00000000000E+00 0. -1.
         -5    1    5    5    0  502 -0.19102505376E+02 -0.49740337637E+01  0.41718279609E+03  0.41767597737E+03  0.47000000000E+01 0.  1.
         13    1    6    6    0    0 -0.78751172978E+01 -0.27296175739E+02  0.54940767492E+02  0.61851326704E+02  0.00000000000E+00 0. -1.
        -14    1    6    6    0    0  0.74728379602E+00  0.54107496222E+02  0.60376280510E+02  0.81076968547E+02  0.00000000000E+00 0.  1.
</event>
<event>
12    1  0.1066489E+000  0.3285597E+03  0.7818608E-02  0.1071984E+00
         21   -1    0    0  501  502  0.00000000000E+00  0.00000000000E+00  0.91721344821E+03  0.91721344821E+03  0.00000000000E+00 0. -1.
         21   -1    0    0  502  503 -0.00000000000E+00 -0.00000000000E+00 -0.12537111421E+03  0.12537111421E+03  0.00000000000E+00 0. -1.
         -6    2    1    2    0  503  0.23104163365E+03 -0.15762060126E+03  0.53144703245E+03  0.62480991182E+03  0.17241515940E+03 0.  0.
        -24    2    3    3    0    0  0.16036009684E+03 -0.16173034970E+03  0.47930635367E+03  0.53675589396E+03  0.80624080530E+02 0.  0.
          6    2    1    2  501    0 -0.23104163365E+03  0.15762060126E+03  0.26039530155E+03  0.41777465060E+03  0.16883558628E+03 0.  0.
         24    2    5    5    0    0 -0.13835093336E+03  0.13908916234E+03  0.24147354947E+03  0.32125987013E+03  0.80072799502E+02 0.  0.
          5    1    5    5  501    0 -0.92690700282E+02  0.18531438925E+02  0.18921752082E+02  0.96514780471E+02  0.47000000000E+01 0. -1.
        -13    1    6    6    0    0 -0.46523364167E+02  0.34216058511E+02  0.23122021605E+02  0.62207635838E+02  0.00000000000E+00 0.  1.
         14    1    6    6    0    0 -0.91827569198E+02  0.10487310383E+03  0.21835152787E+03  0.25905223429E+03  0.00000000000E+00 0. -1.
         -5    1    3    3    0  503  0.70681536809E+02  0.41097484379E+01  0.52140678775E+02  0.88054017858E+02  0.47000000000E+01 0.  1.
         13    1    4    4    0    0 -0.58555675937E+01 -0.27030254676E+02  0.54017760632E+02  0.60686413664E+02  0.00000000000E+00 0. -1.
        -14    1    4    4    0    0  0.16621566443E+03 -0.13470009502E+03  0.42528859304E+03  0.47606948030E+03  0.00000000000E+00 0.  1.
</event>
<event>
12    1  0.1066489E+000  0.1874268E+03  0.7818608E-02  0.1161420E+00
         21   -1    0    0  501  502  0.00000000000E+00  0.00000000000E+00  0.32773408512E+03  0.32773408512E+03  0.00000000000E+00 0.  1.
         21   -1    0    0  502  503 -0.00000000000E+00 -0.00000000000E+00 -0.14839319655E+03  0.14839319655E+03  0.00000000000E+00 0.  1.
         -6    2    1    2    0  503 -0.70275489926E+02  0.16320376011E+02 -0.38528660439E+02  0.18873220467E+03  0.17008935372E+03 0.  0.
        -24    2    3    3    0    0 -0.11034064916E+03  0.34386352562E+02 -0.36956459573E+02  0.14450372619E+03  0.78473351409E+02 0.  0.
          6    2    1    2  501    0  0.70275489926E+02 -0.16320376011E+02  0.21786954902E+03  0.28739507700E+03  0.17298494367E+03 0.  0.
         24    2    5    5    0    0 -0.19006140084E+02  0.30321698459E+02  0.10224197157E+03  0.13397239538E+03  0.78832374157E+02 0.  0.
          5    1    5    5  501    0  0.89281630010E+02 -0.46642074470E+02  0.11562757744E+03  0.15342268161E+03  0.47000000000E+01 0. -1.
        -11    1    6    6    0    0 -0.20459114871E+01  0.55792358990E+02  0.62297430450E+02  0.83653708323E+02  0.00000000000E+00 0.  1.
         12    1    6    6    0    0 -0.16960228597E+02 -0.25470660531E+02  0.39944541124E+02  0.50318687061E+02  0.00000000000E+00 0. -1.
         -5    1    3    3    0  503  0.40065159229E+02 -0.18065976550E+02 -0.15722008660E+01  0.44228478477E+02  0.47000000000E+01 0.  1.
         11    1    4    4    0    0 -0.72406529901E+02 -0.18019023083E+02 -0.14411922157E+02  0.75994040987E+02  0.00000000000E+00 0. -1.
        -12    1    4    4    0    0 -0.37934119254E+02  0.52405375644E+02 -0.22544537416E+02  0.68509685208E+02  0.00000000000E+00 0.  1.
</event>
<event>
12    1  0.1113287E+000  0.3346790E+03  0.7818608E-02  0.1069093E+00
         21   -1    0    0  503  502  0.00000000000E+00  0.00000000000E+00  0.26594549033E+03  0.26594549033E+03  0.00000000000E+00 0.  1.
         21   -1    0    0  501  503 -0.00000000000E+00 -0.00000000000E+00 -0.95790782960E+03  0.95790782960E+03  0.00000000000E+00 0.  1.
          6    2    1    2  501    0  0.86141322989E+02  0.27385210054E+03  0.11209429940E+03  0.35295202825E+03  0.17203110704E+03 0.  0.
         24    2    3    3    0    0 -0.56303563977E+01  0.88138986303E+02  0.75849765688E+02  0.14260194348E+03  0.82352568324E+02 0.  0.
         -6    2    1    2    0  502 -0.86141322989E+02 -0.27385210054E+03 -0.80405663868E+03  0.87090129168E+03  0.17189148073E+03 0.  0.
        -24    2    5    5    0    0 -0.10489100264E+03 -0.13123450624E+03 -0.37154694634E+03  0.41507451246E+03  0.77557072492E+02 0.  0.
          5    1    3    3  501    0  0.91771679387E+02  0.18571311424E+03  0.36244533712E+02  0.21035008477E+03  0.47000000000E+01 0. -1.
        -11    1    4    4    0    0  0.37746142239E+02  0.44783794695E+02  0.28579024249E+02  0.65169932855E+02  0.00000000000E+00 0.  1.
         12    1    4    4    0    0 -0.43376498636E+02  0.43355191607E+02  0.47270741438E+02  0.77432010625E+02  0.00000000000E+00 0. -1.
         -5    1    5    5    0  502  0.18749679646E+02 -0.14261759431E+03 -0.43250969234E+03  0.45582677922E+03  0.47000000000E+01 0.  1.
         11    1    6    6    0    0 -0.25842946304E+02 -0.32690043587E+02 -0.31256979402E+02  0.52091223683E+02  0.00000000000E+00 0. -1.
        -12    1    6    6    0    0 -0.79048056331E+02 -0.98544462649E+02 -0.34028996694E+03  0.36298328877E+03  0.00000000000E+00 0.  1.
</event>
<event>
12    1  0.1066489E+000  0.1955515E+03  0.7818608E-02  0.1157124E+00
         21   -1    0    0  501  502  0.00000000000E+00  0.00000000000E+00  0.83288027388E+03  0.83288027388E+03  0.00000000000E+00 0.  1.
         21   -1    0    0  502  503 -0.00000000000E+00 -0.00000000000E+00 -0.47493565511E+02  0.47493565511E+02  0.00000000000E+00 0.  1.
         -6    2    1    2    0  503 -0.50760799009E+02 -0.21707071429E+02  0.23245000085E+03  0.29387626238E+03  0.17112100699E+03 0.  0.
        -24    2    3    3    0    0 -0.44820180308E+02 -0.24411733449E+01  0.39981748367E+02  0.10029789585E+03  0.80288976942E+02 0.  0.
          6    2    1    2  501    0  0.50760799009E+02  0.21707071429E+02  0.55293670752E+03  0.58649757700E+03  0.18759677407E+03 0.  0.
         24    2    5    5    0    0  0.40779933857E+02 -0.16677207164E+02  0.11014173361E+03  0.14190512382E+03  0.77876379209E+02 0.  0.
          5    1    5    5  501    0  0.99808651520E+01  0.38384278593E+02  0.44279497390E+03  0.44459245318E+03  0.47000000000E+01 0. -1.
        -13    1    6    6    0    0 -0.28094071293E+01  0.14434227487E+02 -0.44946517767E+01  0.15376657184E+02  0.00000000000E+00 0.  1.
         14    1    6    6    0    0  0.43589340986E+02 -0.31111434651E+02  0.11463638539E+03  0.12652846664E+03  0.00000000000E+00 0. -1.
         -5    1    3    3    0  503 -0.59406187008E+01 -0.19265898084E+02  0.19246825248E+03  0.19357836654E+03  0.47000000000E+01 0.  1.
         11    1    4    4    0    0 -0.26383938808E+01  0.21183470782E+02 -0.15742284003E+02  0.26523952614E+02  0.00000000000E+00 0. -1.
        -12    1    4    4    0    0 -0.42181786428E+02 -0.23624644127E+02  0.55724032370E+02  0.73773943232E+02  0.00000000000E+00 0.  1.
</event>
<event>
12    1  0.1066489E+000  0.2120438E+03  0.7818608E-02  0.1140369E+00
         21   -1    0    0  501  502  0.00000000000E+00  0.00000000000E+00  0.21238913492E+03  0.21238913492E+03  0.00000000000E+00 0.  1.
         21   -1    0    0  502  503 -0.00000000000E+00 -0.00000000000E+00 -0.25301071017E+03  0.25301071017E+03  0.00000000000E+00 0.  1.
         -6    2    1    2    0  503 -0.62202743467E+02 -0.10593656528E+03 -0.11676782594E+03  0.24206877217E+03  0.17283179143E+03 0.  0.
        -24    2    3    3    0    0 -0.73621403172E+02 -0.81706113557E+02 -0.29275312929E+02  0.15044710218E+03  0.98393529306E+02 0.  0.
          6    2    1    2  501    0  0.62202743467E+02  0.10593656528E+03  0.76146250684E+02  0.22333107291E+03  0.17025504244E+03 0.  0.
         24    2    5    5    0    0  0.23475590044E+02  0.80811189315E+02  0.11446844761E+03  0.16315003182E+03  0.80208202433E+02 0.  0.
          5    1    5    5  501    0  0.38727153423E+02  0.25125375964E+02 -0.38322196926E+02  0.60181041091E+02  0.47000000000E+01 0. -1.
        -13    1    6    6    0    0 -0.17576886646E+02  0.17915699949E+01  0.50518213441E+02  0.53518656153E+02  0.00000000000E+00 0.  1.
         14    1    6    6    0    0  0.41052476690E+02  0.79019619320E+02  0.63950234170E+02  0.10963137567E+03  0.00000000000E+00 0. -1.
         -5    1    3    3    0  503  0.11418659705E+02 -0.24230451722E+02 -0.87492513006E+02  0.91621669993E+02  0.47000000000E+01 0.  1.
         13    1    4    4    0    0 -0.22903879115E+02 -0.72877837461E+02 -0.53788212933E+02  0.93428789578E+02  0.00000000000E+00 0. -1.
        -14    1    4    4    0    0 -0.50717524057E+02 -0.88282760962E+01  0.24512900003E+02  0.57018312601E+02  0.00000000000E+00 0.  1.
</event>
<event>
12    1  0.1066489E+000  0.2172084E+03  0.7818608E-02  0.1136353E+00
         21   -1    0    0  501  502  0.00000000000E+00  0.00000000000E+00  0.15608430734E+03  0.15608430734E+03  0.00000000000E+00 0. -1.
         21   -1    0    0  502  503 -0.00000000000E+00 -0.00000000000E+00 -0.30071946055E+03  0.30071946055E+03  0.00000000000E+00 0. -1.
         -6    2    1    2    0  503  0.87828515253E+02  0.94203545549E+02 -0.58452188834E+02  0.22493583289E+03  0.17490372910E+03 0.  0.
        -24    2    3    3    0    0 -0.22608108489E+02  0.33421919258E+02 -0.54234540206E+01  0.88097275918E+02  0.78125315451E+02 0.  0.
          6    2    1    2  501    0 -0.87828515253E+02 -0.94203545549E+02 -0.86182964379E+02  0.23186793500E+03  0.17247341779E+03 0.  0.
         24    2    5    5    0    0  0.19531039472E+02 -0.61865824323E+02 -0.39326733276E+02  0.11025626369E+03  0.80006312318E+02 0.  0.
          5    1    5    5  501    0 -0.10735955473E+03 -0.32337721226E+02 -0.46856231103E+02  0.12161167131E+03  0.47000000000E+01 0. -1.
        -13    1    6    6    0    0 -0.26049619752E+02 -0.79722333645E+00 -0.15917446957E+02  0.30538228041E+02  0.00000000000E+00 0.  1.
         14    1    6    6    0    0  0.45580659225E+02 -0.61068600987E+02 -0.23409286319E+02  0.79718035649E+02  0.00000000000E+00 0. -1.
         -5    1    3    3    0  503  0.11043662374E+03  0.60781626292E+02 -0.53028734813E+02  0.13683855697E+03  0.47000000000E+01 0.  1.
         13    1    4    4    0    0 -0.11863213733E+02  0.26894170982E+02 -0.40952309189E+02  0.50409561601E+02  0.00000000000E+00 0. -1.
        -14    1    4    4    0    0 -0.10744894756E+02  0.65277482761E+01  0.35528855168E+02  0.37687714317E+02  0.00000000000E+00 0.  1.
</event>
<event>
12    1  0.1066489E+000  0.2495772E+03  0.7818608E-02  0.1114421E+00
         21   -1    0    0  503  502  0.00000000000E+00  0.00000000000E+00  0.67547903128E+02  0.67547903128E+02  0.00000000000E+00 0. -1.
         21   -1    0    0  501  503 -0.00000000000E+00 -0.00000000000E+00 -0.95380727982E+03  0.95380727982E+03  0.00000000000E+00 0. -1.
          6    2    1    2  501    0  0.80549690408E+02  0.15856446090E+03 -0.32939231081E+03  0.41326512774E+03  0.17509377630E+03 0.  0.
         24    2    3    3    0    0  0.33770432944E+02  0.45975576945E+02 -0.24784446121E+03  0.26651126069E+03  0.79669186677E+02 0.  0.
         -6    2    1    2    0  502 -0.80549690408E+02 -0.15856446090E+03 -0.55686706587E+03  0.60809005520E+03  0.16745639819E+03 0.  0.
        -24    2    5    5    0    0 -0.84313255602E+02 -0.50094528788E+02 -0.21385661331E+03  0.24828712141E+03  0.79332570347E+02 0.  0.
          5    1    3    3  501    0  0.46779257464E+02  0.11258888396E+03 -0.81547849603E+02  0.14675386705E+03  0.47000000000E+01 0. -1.
        -13    1    4    4    0    0  0.13205749590E+02  0.80181396309E+00 -0.18928493721E+03  0.18974673168E+03  0.00000000000E+00 0.  1.
         14    1    4    4    0    0  0.20564683354E+02  0.45173762982E+02 -0.58559523999E+02  0.76764529011E+02  0.00000000000E+00 0. -1.
         -5    1    5    5    0  502  0.37635651936E+01 -0.10846993211E+03 -0.34301045257E+03  0.35980293379E+03  0.47000000000E+01 0.  1.
         13    1    6    6    0    0 -0.23869970429E+01 -0.20902497052E+02 -0.11374081035E+03  0.11567015206E+03  0.00000000000E+00 0. -1.
        -14    1    6    6    0    0 -0.81926258559E+02 -0.29192031737E+02 -0.10011580296E+03  0.13261696935E+03  0.00000000000E+00 0.  1.
</event>
<event>
12    1  0.1066489E+000  0.2480839E+03  0.7818608E-02  0.1114560E+00
         21   -1    0    0  501  502  0.00000000000E+00  0.00000000000E+00  0.68102924976E+03  0.68102924976E+03  0.00000000000E+00 0. -1.
         21   -1    0    0  502  503 -0.00000000000E+00 -0.00000000000E+00 -0.94030458359E+02  0.94030458359E+02  0.00000000000E+00 0. -1.
         -6    2    1    2    0  503 -0.13332050893E+03 -0.11829435528E+03  0.37099380473E+03  0.44629811466E+03  0.17256213782E+03 0.  0.
        -24    2    3    3    0    0 -0.12996040933E+03 -0.76204643717E+02  0.36505617048E+03  0.40340080019E+03  0.82276012738E+02 0.  0.
          6    2    1    2  501    0  0.13332050893E+03  0.11829435528E+03  0.21600498667E+03  0.32876159346E+03  0.17221532590E+03 0.  0.
         24    2    5    5    0    0  0.10378420465E+02  0.34475337797E+02  0.36712123769E+02  0.95719954489E+02  0.80735798306E+02 0.  0.
          5    1    5    5  501    0  0.12294208846E+03  0.83819017479E+02  0.17929286290E+03  0.23304163897E+03  0.47000000000E+01 0. -1.
        -11    1    6    6    0    0  0.30639263825E+02  0.43819059068E+02  0.83976512970E+00  0.53475037455E+02  0.00000000000E+00 0.  1.
         12    1    6    6    0    0 -0.20260843360E+02 -0.93437212704E+01  0.35872358639E+02  0.42244917034E+02  0.00000000000E+00 0. -1.
         -5    1    3    3    0  503 -0.33600995973E+01 -0.42089711559E+02  0.59376342534E+01  0.42897314472E+02  0.47000000000E+01 0.  1.
         13    1    4    4    0    0 -0.37568303320E+01 -0.21273458160E+02  0.12356359434E+03  0.12543777598E+03  0.00000000000E+00 0. -1.
        -14    1    4    4    0    0 -0.12620357900E+03 -0.54931185557E+02  0.24149257614E+03  0.27796302421E+03  0.00000000000E+00 0.  1.
</event>
<event>
12    1  0.1066489E+000  0.2091003E+03  0.7818608E-02  0.1143730E+00
         21   -1    0    0  501  502  0.00000000000E+00  0.00000000000E+00  0.14937965975E+03  0.14937965975E+03  0.00000000000E+00 0. -1.
         21   -1    0    0  502  503 -0.00000000000E+00 -0.00000000000E+00 -0.42670172785E+03  0.42670172785E+03  0.00000000000E+00 0. -1.
         -6    2    1    2    0  503 -0.37405673933E+02 -0.10098100870E+03  0.27011148731E+02  0.21083770372E+03  0.17923890926E+03 0.  0.
        -24    2    3    3    0    0 -0.45334155764E+02 -0.60739310589E+02  0.85623014851E+02  0.13914603097E+03  0.79283464433E+02 0.  0.
          6    2    1    2  501    0  0.37405673933E+02  0.10098100870E+03 -0.30433321684E+03  0.36524368389E+03  0.17084464636E+03 0.  0.
         24    2    5    5    0    0  0.61018785815E+02  0.22575564530E+02 -0.92285595270E+02  0.13788652754E+03  0.79139844880E+02 0.  0.
          5    1    5    5  501    0 -0.23613111883E+02  0.78405444171E+02 -0.21204762157E+03  0.22735715634E+03  0.47000000000E+01 0. -1.
        -13    1    6    6    0    0  0.70735739592E+02  0.40188054632E+02 -0.65833463826E+02  0.10465500251E+03  0.00000000000E+00 0.  1.
         14    1    6    6    0    0 -0.97169537767E+01 -0.17612490102E+02 -0.26452131443E+02  0.33231525035E+02  0.00000000000E+00 0. -1.
         -5    1    3    3    0  503  0.79284818317E+01 -0.40241698112E+02 -0.58611866120E+02  0.71691672746E+02  0.47000000000E+01 0.  1.
         11    1    4    4    0    0  0.16235600325E+02 -0.40809840487E+02  0.44189142871E+02  0.62303436070E+02  0.00000000000E+00 0. -1.
        -12    1    4    4    0    0 -0.61569756090E+02 -0.19929470103E+02  0.41433871980E+02  0.76842594899E+02  0.00000000000E+00 0.  1.
</event>
<event>
12    1  0.1066489E+000  0.5885798E+03  0.7818608E-02  0.9929460E-01
         21   -1    0    0  501  502  0.00000000000E+00  0.00000000000E+00  0.57962972484E+03  0.57962972484E+03  0.00000000000E+00 0. -1.
         21   -1    0    0  502  503 -0.00000000000E+00 -0.00000000000E+00 -0.11899928486E+04  0.11899928486E+04  0.00000000000E+00 0. -1.
         -6    2    1    2    0  503 -0.53430001278E+03 -0.17694796452E+03 -0.92952290827E+03  0.11001995291E+04  0.17216004474E+03 0.  0.
        -24    2    3    3    0    0 -0.32380280709E+03 -0.13642388970E+03 -0.45902010512E+03  0.58314416260E+03  0.76797929066E+02 0.  0.
          6    2    1    2  501    0  0.53430001278E+03  0.17694796452E+03  0.31915978447E+03  0.66942304439E+03  0.17168913342E+03 0.  0.
         24    2    5    5    0    0  0.30306749808E+03  0.86900147136E+02  0.10263387243E+03  0.34005600618E+03  0.75517094812E+02 0.  0.
          5    1    5    5  501    0  0.23123251470E+03  0.90047817380E+02  0.21652591204E+03  0.32936703820E+03  0.47000000000E+01 0. -1.
        -11    1    6    6    0    0  0.16389829116E+03  0.64331196005E+02  0.92025364407E+02  0.19867012941E+03  0.00000000000E+00 0.  1.
         12    1    6    6    0    0  0.13916920692E+03  0.22568951132E+02  0.10608508019E+02  0.14138587678E+03  0.00000000000E+00 0. -1.
         -5    1    3    3    0  503 -0.21049720569E+03 -0.40524074813E+02 -0.47050280315E+03  0.51705536649E+03  0.47000000000E+01 0.  1.
         11    1    4    4    0    0 -0.45021276938E+02 -0.46973302565E+02 -0.10759596253E+03  0.12573900621E+03  0.00000000000E+00 0. -1.
        -12    1    4    4    0    0 -0.27878153015E+03 -0.89450587139E+02 -0.35142414259E+03  0.45740515639E+03  0.00000000000E+00 0.  1.
</event>
<event>
12    1  0.1066489E+000  0.1974324E+03  0.7818608E-02  0.1152148E+00
         21   -1    0    0  501  502  0.00000000000E+00  0.00000000000E+00  0.10910034307E+03  0.10910034307E+03  0.00000000000E+00 0.  1.
         21   -1    0    0  502  503 -0.00000000000E+00 -0.00000000000E+00 -0.49280382696E+03  0.49280382696E+03  0.00000000000E+00 0.  1.
         -6    2    1    2    0  503  0.97201492974E+01  0.94852956987E+02 -0.33304079581E+02  0.20022168849E+03  0.17288145670E+03 0.  0.
        -24    2    3    3    0    0  0.53775790702E+02  0.42446933677E+02  0.20196013864E+02  0.11320651270E+03  0.87830847070E+02 0.  0.
          6    2    1    2  501    0 -0.97201492974E+01 -0.94852956987E+02 -0.35039940431E+03  0.40168248154E+03  0.17169015315E+03 0.  0.
         24    2    5    5    0    0 -0.35826312823E+02  0.61238190096E+01 -0.20007724156E+03  0.21866148909E+03  0.80379838092E+02 0.  0.
          5    1    5    5  501    0  0.26106163525E+02 -0.10097677600E+03 -0.15032216274E+03  0.18302099245E+03  0.47000000000E+01 0. -1.
        -11    1    6    6    0    0 -0.46633830673E+02 -0.17569063840E+02 -0.17694889803E+03  0.18383225691E+03  0.00000000000E+00 0.  1.
         12    1    6    6    0    0  0.10807517850E+02  0.23692882849E+02 -0.23128343532E+02  0.34829232181E+02  0.00000000000E+00 0. -1.
         -5    1    3    3    0  503 -0.44055641405E+02  0.52406023310E+02 -0.53500093444E+02  0.87015175787E+02  0.47000000000E+01 0.  1.
         11    1    4    4    0    0  0.41369079597E+02  0.57465497810E+02  0.43291127866E+02  0.82992806539E+02  0.00000000000E+00 0. -1.
        -12    1    4    4    0    0  0.12406711106E+02 -0.15018564133E+02 -0.23095114003E+02  0.30213706159E+02  0.00000000000E+00 0.  1.
</event>
<event>
12    1  0.1066489E+000  0.3200809E+03  0.7818608E-02  0.1075665E+00
         21   -1    0    0  501  502  0.00000000000E+00  0.00000000000E+00  0.50333613359E+03  0.50333613359E+03  0.00000000000E+00 0.  1.
         21   -1    0    0  502  503 -0.00000000000E+00 -0.00000000000E+00 -0.53852458264E+03  0.53852458264E+03  0.00000000000E+00 0.  1.
         -6    2    1    2    0  503 -0.16527605930E+03 -0.21350662701E+03  0.39344060022E+03  0.50690775244E+03  0.17105177003E+03 0.  0.
        -24    2    3    3    0    0 -0.70875458689E+02 -0.19577309473E+03  0.28486630124E+03  0.36186837861E+03  0.80308645808E+02 0.  0.
          6    2    1    2  501    0  0.16527605930E+03  0.21350662701E+03 -0.42862904927E+03  0.53495296378E+03  0.17190275164E+03 0.  0.
         24    2    5    5    0    0  0.39582835151E+02  0.44385602650E+02 -0.84720860821E+02  0.13159748835E+03  0.81261258417E+02 0.  0.
          5    1    5    5  501    0  0.12569322415E+03  0.16912102436E+03 -0.34390818845E+03  0.40335547543E+03  0.47000000000E+01 0. -1.
        -11    1    6    6    0    0 -0.80925237674E+01 -0.14303822530E+02 -0.41193052953E+02  0.44350376453E+02  0.00000000000E+00 0.  1.
         12    1    6    6    0    0  0.47675358919E+02  0.58689425180E+02 -0.43527807868E+02  0.87247111894E+02  0.00000000000E+00 0. -1.
         -5    1    3    3    0  503 -0.94400600612E+02 -0.17733532284E+02  0.10857429898E+03  0.14503937383E+03  0.47000000000E+01 0.  1.
         11    1    4    4    0    0 -0.77955562542E+02 -0.18226013807E+03  0.22399556322E+03  0.29911509491E+03  0.00000000000E+00 0. -1.
        -12    1    4    4    0    0  0.70801038524E+01 -0.13512956660E+02  0.60870738016E+02  0.62753283698E+02  0.00000000000E+00 0.  1.
</event>
<event>
12    1  0.1066489E+000  0.1994632E+03  0.7818608E-02  0.1150398E+00
         21   -1    0    0  501  502  0.00000000000E+00  0.00000000000E+00  0.19340023221E+02  0.19340023221E+02  0.00000000000E+00 0.  1.
         21   -1    0    0  502  503 -0.00000000000E+00 -0.00000000000E+00 -0.20665252354E+04  0.20665252354E+04  0.00000000000E+00 0.  1.
         -6    2    1    2    0  503  0.10243652796E+03 -0.29468798259E+01 -0.92028176335E+03  0.94144534022E+03  0.16999670084E+03 0.  0.
        -24    2    3    3    0    0  0.43153125956E+02 -0.64192856527E+02 -0.48840076858E+03  0.50120804618E+03  0.81800242654E+02 0.  0.
          6    2    1    2  501    0 -0.10243652796E+03  0.29468798259E+01 -0.11269034488E+04  0.11444199184E+04  0.17112463381E+03 0.  0.
         24    2    5    5    0    0 -0.13779609225E+03 -0.13746120778E+01 -0.99335924563E+03  0.10061263239E+04  0.80857505061E+02 0.  0.
          5    1    5    5  501    0  0.35359564288E+02  0.43214919037E+01 -0.13354420320E+03  0.13829359453E+03  0.47000000000E+01 0. -1.
        -11    1    6    6    0    0 -0.74953526734E+02 -0.40677628748E+02 -0.56553536863E+03  0.57192915105E+03  0.00000000000E+00 0.  1.
         12    1    6    6    0    0 -0.62842565519E+02  0.39303016670E+02 -0.42782387700E+03  0.43419717283E+03  0.00000000000E+00 0. -1.
         -5    1    3    3    0  503  0.59283402009E+02  0.61245976701E+02 -0.43188099477E+03  0.44023729403E+03  0.47000000000E+01 0.  1.
         11    1    4    4    0    0  0.46282025558E+02 -0.40347730017E+01 -0.29521587138E+03  0.29884898528E+03  0.00000000000E+00 0. -1.
        -12    1    4    4    0    0 -0.31288996016E+01 -0.60158083526E+02 -0.19318489720E+03  0.20235906091E+03  0.00000000000E+00 0.  1.
</event>
<event>
12    1  0.1066489E+000  0.1886703E+03  0.7818608E-02  0.1161171E+00
         21   -1    0    0  501  502  0.00000000000E+00  0.00000000000E+00  0.52927558439E+02  0.52927558439E+02  0.00000000000E+00 0. -1.
         21   -1    0    0  502  503 -0.00000000000E+00 -0.00000000000E+00 -0.64980299249E+03  0.64980299249E+03  0.00000000000E+00 0. -1.
         -6    2    1    2    0  503  0.67458109992E+01  0.75316327982E+02 -0.30972048064E+03  0.36266136007E+03  0.17285378427E+03 0.  0.
        -24    2    3    3    0    0 -0.62342055625E+02  0.31823091854E+02 -0.15429051701E+03  0.18703289285E+03  0.79224354183E+02 0.  0.
          6    2    1    2  501    0 -0.67458109992E+01 -0.75316327982E+02 -0.28715495341E+03  0.34006919086E+03  0.16574387492E+03 0.  0.
         24    2    5    5    0    0 -0.38853544458E+02 -0.56271138436E+02 -0.28287193407E+03  0.30220020556E+03  0.81439512621E+02 0.  0.
          5    1    5    5  501    0  0.32107733459E+02 -0.19045189547E+02 -0.42830193395E+01  0.37868985297E+02  0.47000000000E+01 0. -1.
        -13    1    6    6    0    0 -0.52073513377E+02 -0.45610910827E+01 -0.15722871244E+03  0.16569044138E+03  0.00000000000E+00 0.  1.
         14    1    6    6    0    0  0.13219968919E+02 -0.51710047353E+02 -0.12564322163E+03  0.13650976418E+03  0.00000000000E+00 0. -1.
         -5    1    3    3    0  503  0.69087866625E+02  0.43493236129E+02 -0.15542996363E+03  0.17562846722E+03  0.47000000000E+01 0.  1.
         13    1    4    4    0    0 -0.63695521133E+02  0.28154421750E+02 -0.57908093723E+02  0.90571177507E+02  0.00000000000E+00 0. -1.
        -14    1    4    4    0    0  0.13534655074E+01  0.36686701040E+01 -0.96382423285E+02  0.96461715346E+02  0.00000000000E+00 0.  1.
</event>
<event>
12    1  0.1066489E+000  0.2602118E+03  0.7818608E-02  0.1107036E+00
         21   -1    0    0  501  502  0.00000000000E+00  0.00000000000E+00  0.52650034167E+03  0.52650034167E+03  0.00000000000E+00 0. -1.
         21   -1    0    0  502  503 -0.00000000000E+00 -0.00000000000E+00 -0.12855881863E+03  0.12855881863E+03  0.00000000000E+00 0. -1.
         -6    2    1    2    0  503 -0.17768705301E+03  0.80888287216E+02  0.20309151331E+03  0.33008535310E+03  0.17203073485E+03 0.  0.
        -24    2    3    3    0    0 -0.17594325703E+03  0.76055542440E+02  0.22551720175E+03  0.30660349311E+03  0.80045102752E+02 0.  0.
          6    2    1    2  501    0  0.17768705301E+03 -0.80888287216E+02  0.19485000974E+03  0.32497380720E+03  0.17183086235E+03 0.  0.
         24    2    5    5    0    0  0.19825430636E+03 -0.95710339692E+02  0.17949192141E+03  0.29496270880E+03  0.79501010171E+02 0.  0.
          5    1    5    5  501    0 -0.20567253349E+02  0.14822052477E+02  0.15358088330E+02  0.30011098399E+02  0.47000000000E+01 0. -1.
        -11    1    6    6    0    0  0.13917617392E+03 -0.27170315631E+02  0.12694781169E+03  0.19032598438E+03  0.00000000000E+00 0.  1.
         12    1    6    6    0    0  0.59078132442E+02 -0.68540024062E+02  0.52544109720E+02  0.10463672442E+03  0.00000000000E+00 0. -1.
         -5    1    3    3    0  503 -0.17437959891E+01  0.48327447759E+01 -0.22425688440E+02  0.23481859988E+02  0.47000000000E+01 0.  1.
         11    1    4    4    0    0 -0.74561541781E+02  0.61998698839E+02  0.66819979284E+02  0.11776320224E+03  0.00000000000E+00 0. -1.
        -12    1    4    4    0    0 -0.10138171524E+03  0.14056843601E+02  0.15869722246E+03  0.18884029087E+03  0.00000000000E+00 0.  1.
</event>
<event>
12    1  0.1066489E+000  0.3747116E+03  0.7818608E-02  0.1052924E+00
         21   -1    0    0  501  502  0.00000000000E+00  0.00000000000E+00  0.42009766166E+03  0.42009766166E+03  0.00000000000E+00 0.  1.
         21   -1    0    0  502  503 -0.00000000000E+00 -0.00000000000E+00 -0.37806040318E+03  0.37806040318E+03  0.00000000000E+00 0. -1.
         -6    2    1    2    0  503  0.18423034088E+03  0.27762948150E+03 -0.11512953504E+03  0.39199946661E+03  0.17143460702E+03 0.  0.
        -24    2    3    3    0    0  0.73768778490E+02  0.21352917498E+03 -0.11115120215E+03  0.26413812298E+03  0.79861236060E+02 0.  0.
          6    2    1    2  501    0 -0.18423034088E+03 -0.27762948150E+03  0.15716679352E+03  0.40615859823E+03  0.17101011206E+03 0.  0.
         24    2    5    5    0    0 -0.15980380753E+03 -0.22702971095E+03  0.18656533273E+03  0.34257120625E+03  0.73950398345E+02 0.  0.
          5    1    5    5  501    0 -0.24426533348E+02 -0.50599770549E+02 -0.29398539209E+02  0.63587391979E+02  0.47000000000E+01 0. -1.
        -13    1    6    6    0    0 -0.12601330931E+03 -0.11611583888E+03  0.10977797126E+03  0.20350293643E+03  0.00000000000E+00 0.  1.
         14    1    6    6    0    0 -0.33790498227E+02 -0.11091387207E+03  0.76787361466E+02  0.13906826982E+03  0.00000000000E+00 0. -1.
         -5    1    3    3    0  503  0.11046156239E+03  0.64100306523E+02 -0.39783328883E+01  0.12786134363E+03  0.47000000000E+01 0.  1.
         11    1    4    4    0    0  0.57605994647E+02  0.13392900223E+03 -0.29070771358E+02  0.14866249697E+03  0.00000000000E+00 0. -1.
        -12    1    4    4    0    0  0.16162783843E+02  0.79600172746E+02 -0.82080430797E+02  0.11547562601E+03  0.00000000000E+00 0.  1.
</event>
<event>
12    1  0.1066489E+000  0.2521062E+03  0.7818608E-02  0.1112048E+00
         21   -1    0    0  501  502  0.00000000000E+00  0.00000000000E+00  0.11170769914E+03  0.11170769914E+03  0.00000000000E+00 0.  1.
         21   -1    0    0  502  503 -0.00000000000E+00 -0.00000000000E+00 -0.56824401786E+03  0.56824401786E+03  0.00000000000E+00 0.  1.
         -6    2    1    2    0  503  0.11917800515E+03  0.14016834843E+03 -0.23521408320E+03  0.34448027192E+03  0.17172777875E+03 0.  0.
        -24    2    3    3    0    0  0.39327162555E+02  0.26228123957E+01 -0.58064733864E+02  0.10636493534E+03  0.79927975647E+02 0.  0.
          6    2    1    2  501    0 -0.11917800515E+03 -0.14016834843E+03 -0.22132223551E+03  0.33547144507E+03  0.17235717481E+03 0.  0.
         24    2    5    5    0    0 -0.40005518110E+02 -0.87161921904E+01 -0.12820985259E+03  0.15591655670E+03  0.78713358876E+02 0.  0.
          5    1    5    5  501    0 -0.79172487037E+02 -0.13145215624E+03 -0.93112382926E+02  0.17955488837E+03  0.47000000000E+01 0. -1.
        -11    1    6    6    0    0 -0.52856221676E+02  0.10166560891E+02 -0.12021886675E+03  0.13171831708E+03  0.00000000000E+00 0.  1.
         12    1    6    6    0    0  0.12850703566E+02 -0.18882753081E+02 -0.79909858363E+01  0.24198239620E+02  0.00000000000E+00 0. -1.
         -5    1    3    3    0  503  0.79850842593E+02  0.13754553604E+03 -0.17714934934E+03  0.23811533659E+03  0.47000000000E+01 0.  1.
         11    1    4    4    0    0  0.53171573523E+02 -0.15775972922E+01 -0.69783629016E+02  0.87746566444E+02  0.00000000000E+00 0. -1.
        -12    1    4    4    0    0 -0.13844410968E+02  0.42004096879E+01  0.11718895152E+02  0.18618368892E+02  0.00000000000E+00 0.  1.
</event>
<event>
12    1  0.1066489E+000  0.3075364E+03  0.7818608E-02  0.1081583E+00
         21   -1    0    0  503  502  0.00000000000E+00  0.00000000000E+00  0.32929817947E+03  0.32929817947E+03  0.00000000000E+00 0.  1.
         21   -1    0    0  501  503 -0.00000000000E+00 -0.00000000000E+00 -0.30076604811E+03  0.30076604811E+03  0.00000000000E+00 0. -1.
          6    2    1    2  501    0  0.16019058961E+03  0.19790362673E+03  0.82102769307E+02  0.31830726099E+03  0.17248703487E+03 0.  0.
         24    2    3    3    0    0  0.12751597001E+03  0.68232442818E+02  0.81777258014E+02  0.18449977741E+03  0.80228792071E+02 0.  0.
         -6    2    1    2    0  502 -0.16019058961E+03 -0.19790362673E+03 -0.53570637945E+02  0.31175696658E+03  0.17174318761E+03 0.  0.
        -24    2    5    5    0    0 -0.46497389161E+02 -0.12717436901E+03 -0.77250393688E+02  0.17569965308E+03  0.81039604111E+02 0.  0.
          5    1    3    3  501    0  0.32674619598E+02  0.12967118391E+03  0.32551129238E+00  0.13380748358E+03  0.47000000000E+01 0. -1.
        -13    1    4    4    0    0  0.31807547189E+02 -0.17766295942E+02  0.13640820741E+02  0.38902870333E+02  0.00000000000E+00 0.  1.
         14    1    4    4    0    0  0.95708422820E+02  0.85998738761E+02  0.68136437274E+02  0.14559690708E+03  0.00000000000E+00 0. -1.
         -5    1    5    5    0  502 -0.11369320045E+03 -0.70729257721E+02  0.23679755743E+02  0.13605731350E+03  0.47000000000E+01 0.  1.
         13    1    6    6    0    0 -0.23558730451E+02 -0.10300732798E+03 -0.17246625054E+02  0.10706525801E+03  0.00000000000E+00 0. -1.
        -14    1    6    6    0    0 -0.22938658710E+02 -0.24167041034E+02 -0.60003768634E+02  0.68634395066E+02  0.00000000000E+00 0.  1.
</event>
<event>
12    1  0.1066489E+000  0.2508858E+03  0.7818608E-02  0.1113030E+00
         21   -1    0    0  503  502  0.00000000000E+00  0.00000000000E+00  0.14698040299E+03  0.14698040299E+03  0.00000000000E+00 0. -1.
         21   -1    0    0  501  503 -0.00000000000E+00 -0.00000000000E+00 -0.43016648152E+03  0.43016648152E+03  0.00000000000E+00 0. -1.
          6    2    1    2  501    0  0.91801005534E+02 -0.15633424079E+03 -0.11104451145E+03  0.27436209445E+03  0.17342391960E+03 0.  0.
         24    2    3    3    0    0  0.40884477583E+02 -0.13644860288E+03 -0.13715760720E+03  0.21360096228E+03  0.80767568589E+02 0.  0.
         -6    2    1    2    0  502 -0.91801005534E+02  0.15633424079E+03 -0.17214156708E+03  0.30278479006E+03  0.17081595509E+03 0.  0.
        -24    2    5    5    0    0 -0.25062872633E+02  0.15100273331E+02 -0.98182318258E+02  0.12988865814E+03  0.79844411544E+02 0.  0.
          5    1    3    3  501    0  0.50916527951E+02 -0.19885637913E+02  0.26113095757E+02  0.60761132180E+02  0.47000000000E+01 0. -1.
        -13    1    4    4    0    0  0.38640483202E+01 -0.42464122067E+01 -0.51421687618E+02  0.51741210302E+02  0.00000000000E+00 0.  1.
         14    1    4    4    0    0  0.37020429263E+02 -0.13220219067E+03 -0.85735919587E+02  0.16185975197E+03  0.00000000000E+00 0. -1.
         -5    1    5    5    0  502 -0.66738132901E+02  0.14123396746E+03 -0.73959248821E+02  0.17289613192E+03  0.47000000000E+01 0.  1.
         11    1    6    6    0    0 -0.51451691999E+02  0.23996905476E+02 -0.71742693091E+02  0.91488480662E+02  0.00000000000E+00 0. -1.
        -12    1    6    6    0    0  0.26388819367E+02 -0.88966321444E+01 -0.26439625168E+02  0.38400177475E+02  0.00000000000E+00 0.  1.
</event>
<event>
12    1  0.1066489E+000  0.2147131E+03  0.7818608E-02  0.1139120E+00
         21   -1    0    0  503  502  0.00000000000E+00  0.00000000000E+00  0.71763679688E+02  0.71763679688E+02  0.00000000000E+00 0. -1.
         21   -1    0    0  501  503 -0.00000000000E+00 -0.00000000000E+00 -0.68338612902E+03  0.68338612902E+03  0.00000000000E+00 0. -1.
          6    2    1    2  501    0  0.11307035180E+03 -0.36103514155E+02 -0.19004949934E+03  0.28204786425E+03  0.17130037168E+03 0.  0.
         24    2    3    3    0    0  0.14891774338E+03 -0.32472916689E+02 -0.16643254471E+03  0.23871119078E+03  0.77796247052E+02 0.  0.
         -6    2    1    2    0  502 -0.11307035180E+03  0.36103514155E+02 -0.42157294999E+03  0.47310194446E+03  0.17892269140E+03 0.  0.
        -24    2    5    5    0    0 -0.14242024915E+03  0.27499277425E+02 -0.40949799375E+03  0.43988532313E+03  0.69070637748E+02 0.  0.
          5    1    3    3  501    0 -0.35847391579E+02 -0.36305974660E+01 -0.23616954638E+02  0.43336673469E+02  0.47000000000E+01 0. -1.
        -13    1    4    4    0    0  0.44518205910E+02  0.17331896994E+02 -0.84131628098E+02  0.96749140344E+02  0.00000000000E+00 0.  1.
         14    1    4    4    0    0  0.10439953747E+03 -0.49804813683E+02 -0.82300916607E+02  0.14196205044E+03  0.00000000000E+00 0. -1.
         -5    1    5    5    0  502  0.29349897346E+02  0.86042367298E+01 -0.12074956240E+02  0.33216621323E+02  0.47000000000E+01 0.  1.
         13    1    6    6    0    0 -0.11531072661E+03  0.40959304828E+02 -0.26004163544E+03  0.28739499036E+03  0.00000000000E+00 0. -1.
        -14    1    6    6    0    0 -0.27109522536E+02 -0.13460027402E+02 -0.14945635831E+03  0.15249033277E+03  0.00000000000E+00 0.  1.
</event>
<event>
12    1  0.1066489E+000  0.2771320E+03  0.7818608E-02  0.1097429E+00
         21   -1    0    0  501  502  0.00000000000E+00  0.00000000000E+00  0.14293441521E+04  0.14293441521E+04  0.00000000000E+00 0.  1.
         21   -1    0    0  502  503 -0.00000000000E+00 -0.00000000000E+00 -0.16529731919E+03  0.16529731919E+03  0.00000000000E+00 0.  1.
         -6    2    1    2    0  503 -0.84000164012E+02  0.19836871228E+03 -0.24114039402E+02  0.27700700015E+03  0.17246801926E+03 0.  0.
        -24    2    3    3    0    0 -0.11923279931E+02  0.11109684080E+03 -0.69578567377E+02  0.15493910890E+03  0.81732966341E+02 0.  0.
          6    2    1    2  501    0  0.84000164012E+02 -0.19836871228E+03  0.12881608723E+04  0.13176344711E+04  0.17434446654E+03 0.  0.
         24    2    5    5    0    0  0.12031912908E+03 -0.10621648458E+03  0.82578433291E+03  0.84474415142E+03  0.76904372177E+02 0.  0.
          5    1    5    5  501    0 -0.36318965071E+02 -0.92152227704E+02  0.46237653936E+03  0.47289031968E+03  0.47000000000E+01 0. -1.
        -11    1    6    6    0    0  0.80369144401E+02 -0.68984127896E+02  0.34562955140E+03  0.36149383961E+03  0.00000000000E+00 0.  1.
         12    1    6    6    0    0  0.39949984682E+02 -0.37232356680E+02  0.48015478151E+03  0.48325031181E+03  0.00000000000E+00 0. -1.
         -5    1    3    3    0  503 -0.72076884080E+02  0.87271871480E+02  0.45464527974E+02  0.12206789125E+03  0.47000000000E+01 0.  1.
         13    1    4    4    0    0  0.26773751432E+02  0.21764547775E+02 -0.40773375228E+02  0.53413457415E+02  0.00000000000E+00 0. -1.
        -14    1    4    4    0    0 -0.38697031364E+02  0.89332293026E+02 -0.28805192148E+02  0.10152565148E+03  0.00000000000E+00 0.  1.
</event>
<event>
12    1  0.1066489E+000  0.1772664E+03  0.7818608E-02  0.1170733E+00
         21   -1    0    0  501  502  0.00000000000E+00  0.00000000000E+00  0.12885973677E+03  0.12885973677E+03  0.00000000000E+00 0.  1.
         21   -1    0    0  502  503 -0.00000000000E+00 -0.00000000000E+00 -0.37896337161E+03  0.37896337161E+03  0.00000000000E+00 0.  1.
         -6    2    1    2    0  503 -0.36647404175E+02  0.13590539845E+02 -0.27722313465E+03  0.32849420610E+03  0.17183725454E+03 0.  0.
        -24    2    3    3    0    0 -0.18585954158E+02  0.50119670931E+01 -0.38475103873E+02  0.88864241176E+02  0.77755785866E+02 0.  0.
          6    2    1    2  501    0  0.36647404175E+02 -0.13590539845E+02  0.27119499813E+02  0.17932890228E+03  0.17290359429E+03 0.  0.
         24    2    5    5    0    0  0.55797751499E+02  0.21635218052E+02 -0.38357838870E+02  0.10240711276E+03  0.73718526904E+02 0.  0.
          5    1    5    5  501    0 -0.19150347324E+02 -0.35225757898E+02  0.65477338682E+02  0.76921789520E+02  0.47000000000E+01 0. -1.
        -13    1    6    6    0    0 -0.93606546870E+01  0.24096083769E+02  0.16564346413E+01  0.25903414541E+02  0.00000000000E+00 0.  1.
         14    1    6    6    0    0  0.65158406186E+02 -0.24608657171E+01 -0.40014273511E+02  0.76503698220E+02  0.00000000000E+00 0. -1.
         -5    1    3    3    0  503 -0.18061450017E+02  0.85785727523E+01 -0.23874803078E+03  0.23962996492E+03  0.47000000000E+01 0.  1.
         13    1    4    4    0    0 -0.39022733298E+02 -0.17868719031E+02 -0.39271860065E+02  0.58175113467E+02  0.00000000000E+00 0. -1.
        -14    1    4    4    0    0  0.20436779140E+02  0.22880686124E+02  0.79675619231E+00  0.30689127710E+02  0.00000000000E+00 0.  1.
</event>
<event>
12    1  0.1066489E+000  0.4062754E+03  0.7818608E-02  0.1041790E+00
         21   -1    0    0  503  502  0.00000000000E+00  0.00000000000E+00  0.11378994077E+03  0.11378994077E+03  0.00000000000E+00 0. -1.
         21   -1    0    0  501  503 -0.00000000000E+00 -0.00000000000E+00 -0.16165838879E+04  0.16165838879E+04  0.00000000000E+00 0. -1.
          6    2    1    2  501    0 -0.12936629282E+03  0.34404444979E+03 -0.10327020130E+04  0.11090477405E+04  0.16855628728E+03 0.  0.
         24    2    3    3    0    0 -0.11324001206E+03  0.24062035755E+03 -0.56704145846E+03  0.63174443881E+03  0.82725833645E+02 0.  0.
         -6    2    1    2    0  502  0.12936629282E+03 -0.34404444979E+03 -0.47009193411E+03  0.62132608812E+03  0.17308223512E+03 0.  0.
        -24    2    5    5    0    0  0.84043835324E+02 -0.12681168195E+03 -0.28334079516E+03  0.33125320336E+03  0.79385827435E+02 0.  0.
          5    1    3    3  501    0 -0.16126280766E+02  0.10342409223E+03 -0.46566055452E+03  0.47730330171E+03  0.47000000000E+01 0. -1.
        -13    1    4    4    0    0 -0.67818044922E+02  0.12818247323E+03 -0.39884761630E+03  0.42439304269E+03  0.00000000000E+00 0.  1.
         14    1    4    4    0    0 -0.45421967136E+02  0.11243788432E+03 -0.16819384217E+03  0.20735139612E+03  0.00000000000E+00 0. -1.
         -5    1    5    5    0  502  0.45322457499E+02 -0.21723276783E+03 -0.18675113895E+03  0.29007288476E+03  0.47000000000E+01 0.  1.
         13    1    6    6    0    0  0.13568005456E+02  0.16460310867E+01 -0.76875726557E+02  0.78081223889E+02  0.00000000000E+00 0. -1.
        -14    1    6    6    0    0  0.70475829868E+02 -0.12845771304E+03 -0.20646506860E+03  0.25317197947E+03  0.00000000000E+00 0.  1.
</event>
<event>
12    1  0.1112918E+000  0.3285909E+03  0.7818608E-02  0.1071799E+00
         21   -1    0    0  503  502  0.00000000000E+00  0.00000000000E+00  0.37225773521E+03  0.37225773521E+03  0.00000000000E+00 0. -1.
         21   -1    0    0  501  503 -0.00000000000E+00 -0.00000000000E+00 -0.57773143802E+03  0.57773143802E+03  0.00000000000E+00 0. -1.
          6    2    1    2  501    0 -0.63451811522E+02 -0.27287094977E+03  0.23264557844E+03  0.40233920873E+03  0.17107947304E+03 0.  0.
         24    2    3    3    0    0  0.11314994836E+02 -0.22725307837E+03  0.17054869243E+03  0.29487210318E+03  0.78043000985E+02 0.  0.
         -6    2    1    2    0  502  0.63451811522E+02  0.27287094977E+03 -0.43811928126E+03  0.54764996450E+03  0.17171864018E+03 0.  0.
        -24    2    5    5    0    0  0.15438338657E+02  0.15509352138E+03 -0.35830402662E+03  0.39741887221E+03  0.72578521769E+02 0.  0.
          5    1    3    3  501    0 -0.74766806358E+02 -0.45617871401E+02  0.62096886011E+02  0.10746710555E+03  0.47000000000E+01 0. -1.
        -11    1    4    4    0    0  0.67907834097E+01 -0.10670169235E+03  0.12839573568E+03  0.16708330506E+03  0.00000000000E+00 0.  1.
         12    1    4    4    0    0  0.45242114262E+01 -0.12055138602E+03  0.42152956756E+02  0.12778879811E+03  0.00000000000E+00 0. -1.
         -5    1    5    5    0  502  0.48013472865E+02  0.11777742840E+03 -0.79815254635E+02  0.15023109228E+03  0.47000000000E+01 0.  1.
         11    1    6    6    0    0  0.27098397133E+02  0.16122756542E+02 -0.51160703517E+02  0.60097287710E+02  0.00000000000E+00 0. -1.
        -12    1    6    6    0    0 -0.11660058476E+02  0.13897076484E+03 -0.30714332311E+03  0.33732158450E+03  0.00000000000E+00 0.  1.
</event>
<event>
12    1  0.1066489E+000  0.2547810E+03  0.7818608E-02  0.1110597E+00
         21   -1    0    0  501  502  0.00000000000E+00  0.00000000000E+00  0.11380978038E+03  0.11380978038E+03  0.00000000000E+00 0.  1.
         21   -1    0    0  502  503 -0.00000000000E+00 -0.00000000000E+00 -0.12473192171E+04  0.12473192171E+04  0.00000000000E+00 0.  1.
         -6    2    1    2    0  503  0.15438587418E+03  0.10685591086E+03 -0.10686961769E+04  0.10982333540E+04  0.16956354971E+03 0.  0.
        -24    2    3    3    0    0  0.26551897406E+02  0.18611608978E+01 -0.28366432262E+03  0.29594754119E+03  0.80068920507E+02 0.  0.
          6    2    1    2  501    0 -0.15438587418E+03 -0.10685591086E+03 -0.64813259788E+02  0.26289564350E+03  0.17222130209E+03 0.  0.
         24    2    5    5    0    0 -0.13565563682E+03 -0.14194671235E+03 -0.60427768216E+02  0.22260285658E+03  0.85727449732E+02 0.  0.
          5    1    5    5  501    0 -0.18730237366E+02  0.35090801496E+02 -0.43854915718E+01  0.40292786919E+02  0.47000000000E+01 0. -1.
        -11    1    6    6    0    0  0.68900163115E+01 -0.18526528750E+01 -0.16488487572E+02  0.17965936376E+02  0.00000000000E+00 0.  1.
         12    1    6    6    0    0 -0.14254565313E+03 -0.14009405948E+03 -0.43939280644E+02  0.20463692020E+03  0.00000000000E+00 0. -1.
         -5    1    3    3    0  503  0.12783397678E+03  0.10499474996E+03 -0.78503185428E+03  0.80228581277E+03  0.47000000000E+01 0.  1.
         11    1    4    4    0    0  0.13305902145E+02  0.37477825904E+02 -0.20196335563E+03  0.20584176321E+03  0.00000000000E+00 0. -1.
        -12    1    4    4    0    0  0.13245995261E+02 -0.35616665006E+02 -0.81700966991E+02  0.90105777972E+02  0.00000000000E+00 0.  1.
</event>
<event>
12    1  0.1066489E+000  0.4565081E+03  0.7818608E-02  0.1026060E+00
         21   -1    0    0  503  502  0.00000000000E+00  0.00000000000E+00  0.16011640344E+03  0.16011640344E+03  0.00000000000E+00 0.  1.
         21   -1    0    0  501  503 -0.00000000000E+00 -0.00000000000E+00 -0.13868357517E+04  0.13868357517E+04  0.00000000000E+00 0.  1.
          6    2    1    2  501    0 -0.41191396754E+03 -0.77382529179E+02 -0.40827926056E+03  0.60980553751E+03  0.17178377835E+03 0.  0.
         24    2    3    3    0    0 -0.20341130854E+03 -0.69446364158E+02 -0.13621255666E+03  0.26690799758E+03  0.80542291009E+02 0.  0.
         -6    2    1    2    0  502  0.41191396754E+03  0.77382529179E+02 -0.81844008773E+03  0.93714661766E+03  0.18093765033E+03 0.  0.
        -24    2    5    5    0    0  0.38553711418E+03  0.38518639692E+02 -0.63626284802E+03  0.74895316143E+03  0.77316713750E+02 0.  0.
          5    1    3    3  501    0 -0.20850265900E+03 -0.79361650205E+01 -0.27206670390E+03  0.34289753994E+03  0.47000000000E+01 0. -1.
        -11    1    4    4    0    0 -0.12207806809E+03 -0.27937077259E+02 -0.12136919498E+03  0.17439614813E+03  0.00000000000E+00 0.  1.
         12    1    4    4    0    0 -0.81333240453E+02 -0.41509286899E+02 -0.14843361684E+02  0.92511849444E+02  0.00000000000E+00 0. -1.
         -5    1    5    5    0  502  0.26376853354E+02  0.38863889487E+02 -0.18217723971E+03  0.18819345623E+03  0.47000000000E+01 0.  1.
         13    1    6    6    0    0  0.13286566282E+03  0.12672630067E+02 -0.29274309710E+03  0.32173343129E+03  0.00000000000E+00 0. -1.
        -14    1    6    6    0    0  0.25267145136E+03  0.25846009626E+02 -0.34351975092E+03  0.42721973014E+03  0.00000000000E+00 0.  1.
</event>
<event>
12    1  0.1066489E+000  0.3310299E+03  0.7818608E-02  0.1070735E+00
         21   -1    0    0  501  502  0.00000000000E+00  0.00000000000E+00  0.42950912997E+03  0.42950912997E+03  0.00000000000E+00 0. -1.
         21   -1    0    0  502  503 -0.00000000000E+00 -0.00000000000E+00 -0.25630972451E+03  0.25630972451E+03  0.00000000000E+00 0.  1.
         -6    2    1    2    0  503  0.16717038664E+03  0.22708135582E+03  0.60014714812E+02  0.33642613106E+03  0.17340385041E+03 0.  0.
        -24    2    3    3    0    0  0.10145369533E+03  0.22757150869E+03  0.26020786428E+02  0.26228706624E+03  0.77690282035E+02 0.  0.
          6    2    1    2  501    0 -0.16717038664E+03 -0.22708135582E+03  0.11318469065E+03  0.34939272342E+03  0.17248947981E+03 0.  0.
         24    2    5    5    0    0 -0.16878482707E+03 -0.23711175814E+03  0.13022955035E+03  0.32900074875E+03  0.81064500253E+02 0.  0.
          5    1    5    5  501    0  0.16144404223E+01  0.10030402323E+02 -0.17044859692E+02  0.20391974661E+02  0.47000000000E+01 0. -1.
        -13    1    6    6    0    0 -0.20710694119E+02 -0.38755176391E+02 -0.92110008827E+01  0.44896983031E+02  0.00000000000E+00 0.  1.
         14    1    6    6    0    0 -0.14807413295E+03 -0.19835658175E+03  0.13944055123E+03  0.28410376572E+03  0.00000000000E+00 0. -1.
         -5    1    3    3    0  503  0.65716691309E+02 -0.49015287441E+00  0.33993928384E+02  0.74139064827E+02  0.47000000000E+01 0.  1.
         11    1    4    4    0    0  0.62032055431E+02  0.20045742876E+03  0.37310239624E+02  0.21312721700E+03  0.00000000000E+00 0. -1.
        -12    1    4    4    0    0  0.39421639903E+02  0.27114079932E+02 -0.11289453196E+02  0.49159849233E+02  0.00000000000E+00 0.  1.
</event>
<event>
12    1  0.1066489E+000  0.1850325E+03  0.7818608E-02  0.1163184E+00
         21   -1    0    0  503  502  0.00000000000E+00  0.00000000000E+00  0.48920229043E+03  0.48920229043E+03  0.00000000000E+00 0.  1.
         21   -1    0    0  501  503 -0.00000000000E+00 -0.00000000000E+00 -0.19375738863E+03  0.19375738863E+03  0.00000000000E+00 0.  1.
          6    2    1    2  501    0  0.26679834183E+02 -0.62808303957E+02  0.42104367791E+03  0.45990739159E+03  0.17198934134E+03 0.  0.
         24    2    3    3    0    0 -0.32627998131E+02 -0.83900331669E+02  0.31222999974E+03  0.33411073359E+03  0.77708156891E+02 0.  0.
         -6    2    1    2    0  502 -0.26679834183E+02  0.62808303957E+02 -0.12559877611E+03  0.22305228746E+03  0.17123251381E+03 0.  0.
        -24    2    5    5    0    0 -0.25628168924E+02 -0.31616844852E+02 -0.62203300698E+02  0.10921779783E+03  0.80017803171E+02 0.  0.
          5    1    3    3  501    0  0.59307832313E+02  0.21092027712E+02  0.10881367817E+03  0.12579665800E+03  0.47000000000E+01 0. -1.
        -13    1    4    4    0    0  0.16364938575E+02 -0.20649311988E+02  0.26414424416E+02  0.37308539470E+02  0.00000000000E+00 0.  1.
         14    1    4    4    0    0 -0.48992936706E+02 -0.63251019681E+02  0.28581557532E+03  0.29680219412E+03  0.00000000000E+00 0. -1.
         -5    1    5    5    0  502 -0.10516652583E+01  0.94425148809E+02 -0.63395475413E+02  0.11383448963E+03  0.47000000000E+01 0.  1.
         13    1    6    6    0    0 -0.31089226461E+02  0.15226393891E+02 -0.49450686520E+02  0.60363511082E+02  0.00000000000E+00 0. -1.
        -14    1    6    6    0    0  0.54610575369E+01 -0.46843238742E+02 -0.12752614178E+02  0.48854286748E+02  0.00000000000E+00 0.  1.
</event>
<event>
12    1  0.1066489E+000  0.2242193E+03  0.7818608E-02  0.1131127E+00
         21   -1    0    0  503  502  0.00000000000E+00  0.00000000000E+00  0.53992346002E+03  0.53992346002E+03  0.00000000000E+00 0. -1.
         21   -1    0    0  501  503 -0.00000000000E+00 -0.00000000000E+00 -0.10178372238E+03  0.10178372238E+03  0.00000000000E+00 0.  1.
          6    2    1    2  501    0  0.14004166602E+03  0.10148861127E+02  0.12037237427E+03  0.25279796746E+03  0.17234452780E+03 0.  0.
         24    2    3    3    0    0  0.65924719100E+02 -0.35100483804E+02  0.62411704789E+01  0.10930982609E+03  0.79571183969E+02 0.  0.
         -6    2    1    2    0  502 -0.14004166602E+03 -0.10148861127E+02  0.31776736337E+03  0.38890921494E+03  0.17481307913E+03 0.  0.
        -24    2    5    5    0    0 -0.14289453324E+03  0.43862848368E+02  0.23083713916E+03  0.28641844708E+03  0.80043393965E+02 0.  0.
          5    1    3    3  501    0  0.74116946919E+02  0.45249344931E+02  0.11413120379E+03  0.14348814138E+03  0.47000000000E+01 0. -1.
        -11    1    4    4    0    0  0.64296728827E+02  0.19917710021E+01 -0.15656390602E+02  0.66205430716E+02  0.00000000000E+00 0.  1.
         12    1    4    4    0    0  0.16279902731E+01 -0.37092254806E+02  0.21897561081E+02  0.43104395370E+02  0.00000000000E+00 0. -1.
         -5    1    5    5    0  502  0.28528672209E+01 -0.54011709495E+02  0.86930224209E+02  0.10249076785E+03  0.47000000000E+01 0.  1.
         13    1    6    6    0    0 -0.79278991655E+02  0.63673967605E+02  0.15605379734E+03  0.18625874566E+03  0.00000000000E+00 0. -1.
        -14    1    6    6    0    0 -0.63615541585E+02 -0.19811119237E+02  0.74783341818E+02  0.10015970143E+03  0.00000000000E+00 0.  1.
</event>
<event>
12    1  0.1066489E+000  0.1764850E+03  0.7818608E-02  0.1171344E+00
         21   -1    0    0  503  502  0.00000000000E+00  0.00000000000E+00  0.21085749903E+03  0.21085749903E+03  0.00000000000E+00 0.  1.
         21   -1    0    0  501  503 -0.00000000000E+00 -0.00000000000E+00 -0.16797508999E+03  0.16797508999E+03  0.00000000000E+00 0.  1.
          6    2    1    2  501    0  0.39879998774E+02 -0.13054954657E+02 -0.44881195903E+02  0.18173007795E+03  0.17102822382E+03 0.  0.
         24    2    3    3    0    0  0.30343123403E+01 -0.54458125390E+02 -0.71413306144E+02  0.12010321669E+03  0.79687062261E+02 0.  0.
         -6    2    1    2    0  502 -0.39879998774E+02  0.13054954657E+02  0.87763604943E+02  0.19710251107E+03  0.17142375382E+03 0.  0.
        -24    2    5    5    0    0  0.42774979955E+02 -0.33453825857E+01  0.55811694158E+02  0.10685933308E+03  0.80393291802E+02 0.  0.
          5    1    3    3  501    0  0.36845686434E+02  0.41403170732E+02  0.26532110241E+02  0.61626861265E+02  0.47000000000E+01 0. -1.
        -11    1    4    4    0    0 -0.26589601325E+02  0.26810926389E+01 -0.42156467925E+01  0.27054885589E+02  0.00000000000E+00 0.  1.
         12    1    4    4    0    0  0.29623913665E+02 -0.57139218029E+02 -0.67197659351E+02  0.93048331098E+02  0.00000000000E+00 0. -1.
         -5    1    5    5    0  502 -0.82654978729E+02  0.16400337243E+02  0.31951910785E+02  0.90243177987E+02  0.47000000000E+01 0.  1.
         11    1    6    6    0    0  0.30123512059E+02  0.19998535455E+02 -0.86202720907E+01  0.37170909191E+02  0.00000000000E+00 0. -1.
        -12    1    6    6    0    0  0.12651467895E+02 -0.23343918041E+02  0.64431966249E+02  0.69688423889E+02  0.00000000000E+00 0.  1.
</event>
<event>
12    1  0.1066489E+000  0.2147854E+03  0.7818608E-02  0.1137954E+00
         21   -1    0    0  503  502  0.00000000000E+00  0.00000000000E+00  0.17589384735E+03  0.17589384735E+03  0.00000000000E+00 0. -1.
         21   -1    0    0  501  503 -0.00000000000E+00 -0.00000000000E+00 -0.33394238006E+03  0.33394238006E+03  0.00000000000E+00 0. -1.
          6    2    1    2  501    0 -0.21012049917E+02 -0.12354029678E+03 -0.19784521782E+03  0.29201972357E+03  0.17443932346E+03 0.  0.
         24    2    3    3    0    0 -0.22325639697E+02 -0.83329401055E+02 -0.33255930669E+02  0.12251938405E+03  0.80391661725E+02 0.  0.
         -6    2    1    2    0  502  0.21012049917E+02  0.12354029678E+03  0.39796685110E+02  0.21781650385E+03  0.17365639070E+03 0.  0.
        -24    2    5    5    0    0  0.85721858252E+01  0.15681858496E+03  0.24677980102E+02  0.17892100380E+03  0.82086368792E+02 0.  0.
          5    1    3    3  501    0  0.13135897800E+01 -0.40210895722E+02 -0.16458928715E+03  0.16950033952E+03  0.47000000000E+01 0. -1.
        -13    1    4    4    0    0 -0.18537252884E+02 -0.25383536886E+02 -0.52631411211E+02  0.61302684569E+02  0.00000000000E+00 0.  1.
         14    1    4    4    0    0 -0.37883868123E+01 -0.57945864170E+02  0.19375480541E+02  0.61216699480E+02  0.00000000000E+00 0. -1.
         -5    1    5    5    0  502  0.12439864091E+02 -0.33278288178E+02  0.15118705007E+02  0.38895500045E+02  0.47000000000E+01 0.  1.
         13    1    6    6    0    0 -0.11944800117E+02  0.10902725848E+03  0.50624078053E+02  0.12079908369E+03  0.00000000000E+00 0. -1.
        -14    1    6    6    0    0  0.20516985942E+02  0.47791326477E+02 -0.25946097951E+02  0.58121920112E+02  0.00000000000E+00 0.  1.
</event>
<event>
12    1  0.1066489E+000  0.2512167E+03  0.7818608E-02  0.1112642E+00
         21   -1    0    0  503  502  0.00000000000E+00  0.00000000000E+00  0.10264858291E+04  0.10264858291E+04  0.00000000000E+00 0. -1.
         21   -1    0    0  501  503 -0.00000000000E+00 -0.00000000000E+00 -0.61928255721E+02  0.61928255721E+02  0.00000000000E+00 0. -1.
          6    2    1    2  501    0  0.66530491553E+02 -0.17019725294E+03  0.53682860199E+03  0.59270123936E+03  0.17238445409E+03 0.  0.
         24    2    3    3    0    0  0.83642641018E+02 -0.84140353008E+02  0.22820597843E+03  0.27181398586E+03  0.87915777415E+02 0.  0.
         -6    2    1    2    0  502 -0.66530491553E+02  0.17019725294E+03  0.42772897140E+03  0.49571284547E+03  0.17142269679E+03 0.  0.
        -24    2    5    5    0    0 -0.23203557081E+02  0.29394179712E+02  0.25398738539E+03  0.26787308294E+03  0.76445887819E+02 0.  0.
          5    1    3    3  501    0 -0.17112149465E+02 -0.86056899930E+02  0.30862262356E+03  0.32088725350E+03  0.47000000000E+01 0. -1.
        -13    1    4    4    0    0  0.65782484662E+02 -0.10108544307E+03  0.20574445978E+03  0.23848770371E+03  0.00000000000E+00 0.  1.
         14    1    4    4    0    0  0.17860156356E+02  0.16945090061E+02  0.22461518646E+02  0.33326282153E+02  0.00000000000E+00 0. -1.
         -5    1    5    5    0  502 -0.43326934472E+02  0.14080307323E+03  0.17374158601E+03  0.22783976253E+03  0.47000000000E+01 0.  1.
         11    1    6    6    0    0 -0.21104134507E+02  0.51122702422E+02  0.12016690602E+03  0.13228378774E+03  0.00000000000E+00 0. -1.
        -12    1    6    6    0    0 -0.20994225736E+01 -0.21728522710E+02  0.13382047937E+03  0.13558929520E+03  0.00000000000E+00 0.  1.
</event>
<event>
12    1  0.1066489E+000  0.2089148E+03  0.7818608E-02  0.1142997E+00
         21   -1    0    0  501  502  0.00000000000E+00  0.00000000000E+00  0.31015916048E+03  0.31015916048E+03  0.00000000000E+00 0.  1.
         21   -1    0    0  502  503 -0.00000000000E+00 -0.00000000000E+00 -0.25168280025E+03  0.25168280025E+03  0.00000000000E+00 0.  1.
         -6    2    1    2    0  503  0.54752895839E+02  0.10561903921E+03  0.21746681368E+03  0.30155798611E+03  0.17173276592E+03 0.  0.
        -24    2    3    3    0    0  0.42157246412E+02  0.13644385036E+03  0.21102255994E+03  0.26731710743E+03  0.80831660871E+02 0.  0.
          6    2    1    2  501    0 -0.54752895839E+02 -0.10561903921E+03 -0.15899045345E+03  0.26028397462E+03  0.16827513812E+03 0.  0.
         24    2    5    5    0    0 -0.12291509711E+02 -0.11188598659E+03 -0.57485195194E+02  0.14997689690E+03  0.80740118480E+02 0.  0.
          5    1    5    5  501    0 -0.42461386128E+02  0.62669473703E+01 -0.10150525826E+03  0.11030707772E+03  0.47000000000E+01 0. -1.
        -11    1    6    6    0    0  0.91848405571E+01  0.40227064082E+01  0.99863978237E+01  0.14151735031E+02  0.00000000000E+00 0.  1.
         12    1    6    6    0    0 -0.21476350268E+02 -0.11590869299E+03 -0.67471593018E+02  0.13582516187E+03  0.00000000000E+00 0. -1.
         -5    1    3    3    0  503  0.12595649427E+02 -0.30824811141E+02  0.64442537367E+01  0.34240878677E+02  0.47000000000E+01 0.  1.
         11    1    4    4    0    0  0.37049884678E-01  0.18300001981E+02 -0.36760442572E+01  0.18665603301E+02  0.00000000000E+00 0. -1.
        -12    1    4    4    0    0  0.42120196527E+02  0.11814384837E+03  0.21469860420E+03  0.24865150413E+03  0.00000000000E+00 0.  1.
</event>
<event>
12    1  0.1066489E+000  0.1980392E+03  0.7818608E-02  0.1151998E+00
         21   -1    0    0  501  502  0.00000000000E+00  0.00000000000E+00  0.20406815589E+03  0.20406815589E+03  0.00000000000E+00 0.  1.
         21   -1    0    0  502  503 -0.00000000000E+00 -0.00000000000E+00 -0.22827259165E+03  0.22827259165E+03  0.00000000000E+00 0.  1.
         -6    2    1    2    0  503  0.90164723760E+02 -0.39389171680E+02  0.77034549089E+02  0.20992475114E+03  0.16867985989E+03 0.  0.
        -24    2    3    3    0    0  0.15958541228E+02  0.33023388103E+02  0.16929053102E+02  0.89987696864E+02  0.80411277493E+02 0.  0.
          6    2    1    2  501    0 -0.90164723760E+02  0.39389171680E+02 -0.10123898485E+03  0.22241599640E+03  0.17186727188E+03 0.  0.
         24    2    5    5    0    0 -0.12051457201E+03  0.36878601994E+02 -0.23004138479E+02  0.13833153032E+03  0.52178813129E+02 0.  0.
          5    1    5    5  501    0  0.30349848254E+02  0.25105696858E+01 -0.78234846374E+02  0.84084466083E+02  0.47000000000E+01 0. -1.
        -13    1    6    6    0    0 -0.78786772847E+02  0.36721533969E+02 -0.36784176995E+02  0.94386981676E+02  0.00000000000E+00 0.  1.
         14    1    6    6    0    0 -0.41727799167E+02  0.15706802585E+00  0.13780038516E+02  0.43944548640E+02  0.00000000000E+00 0. -1.
         -5    1    3    3    0  503  0.74206182532E+02 -0.72412559783E+02  0.60105495988E+02  0.11993705428E+03  0.47000000000E+01 0.  1.
         11    1    4    4    0    0  0.42135371483E+02  0.38078103094E+02  0.25117027295E+02  0.62098281179E+02  0.00000000000E+00 0. -1.
        -12    1    4    4    0    0 -0.26176830255E+02 -0.50547149910E+01 -0.81879741938E+01  0.27889415685E+02  0.00000000000E+00 0.  1.
</event>
<event>
12    1  0.1066489E+000  0.1777700E+03  0.7818608E-02  0.1170318E+00
         21   -1    0    0  501  502  0.00000000000E+00  0.00000000000E+00  0.88773364701E+03  0.88773364701E+03  0.00000000000E+00 0.  1.
         21   -1    0    0  502  503 -0.00000000000E+00 -0.00000000000E+00 -0.46604736021E+02  0.46604736021E+02  0.00000000000E+00 0.  1.
         -6    2    1    2    0  503 -0.43723632244E+02  0.83691723246E+01  0.64916430878E+03  0.67270392728E+03  0.17068823899E+03 0.  0.
        -24    2    3    3    0    0 -0.70100672838E+02 -0.44413484242E+02  0.40417198584E+03  0.42066209464E+03  0.81944748536E+02 0.  0.
          6    2    1    2  501    0  0.43723632244E+02 -0.83691723246E+01  0.19196460221E+03  0.26163445575E+03  0.17210572585E+03 0.  0.
         24    2    5    5    0    0  0.33063482766E+02  0.61863061569E+02  0.10479454736E+03  0.14908707049E+03  0.79528769341E+02 0.  0.
          5    1    5    5  501    0  0.10660149478E+02 -0.70232233894E+02  0.87170054855E+02  0.11254738526E+03  0.47000000000E+01 0. -1.
        -11    1    6    6    0    0 -0.15525014948E+02  0.54731910837E+02  0.58345682008E+02  0.81491268011E+02  0.00000000000E+00 0.  1.
         12    1    6    6    0    0  0.48588497714E+02  0.71311507321E+01  0.46448865349E+02  0.67595802481E+02  0.00000000000E+00 0. -1.
         -5    1    3    3    0  503  0.26377040595E+02  0.52782656567E+02  0.24499232293E+03  0.25204183264E+03  0.47000000000E+01 0.  1.
         13    1    4    4    0    0 -0.58363177639E+02  0.11079422671E+02  0.18727266819E+03  0.19646899593E+03  0.00000000000E+00 0. -1.
        -14    1    4    4    0    0 -0.11737495200E+02 -0.55492906913E+02  0.21689931766E+03  0.22419309871E+03  0.00000000000E+00 0.  1.
</event>
<event>
12    1  0.1066489E+000  0.1899884E+03  0.7818608E-02  0.1158680E+00
         21   -1    0    0  503  502  0.00000000000E+00  0.00000000000E+00  0.18820312443E+04  0.18820312443E+04  0.00000000000E+00 0. -1.
         21   -1    0    0  501  503 -0.00000000000E+00 -0.00000000000E+00 -0.30740427241E+02  0.30740427241E+02  0.00000000000E+00 0. -1.
          6    2    1    2  501    0  0.40302506680E+02  0.68040500520E+02  0.15131175096E+04  0.15248840638E+04  0.17173528543E+03 0.  0.
         24    2    3    3    0    0  0.44429801925E+02 -0.24940263629E+02  0.66798118534E+03  0.67462530687E+03  0.79526201028E+02 0.  0.
         -6    2    1    2    0  502 -0.40302506680E+02 -0.68040500520E+02  0.33817330745E+03  0.38788760778E+03  0.17274781806E+03 0.  0.
        -24    2    5    5    0    0 -0.82961273803E+02 -0.75187797706E+02  0.30059874627E+03  0.33040028816E+03  0.79176803935E+02 0.  0.
          5    1    3    3  501    0 -0.41272952445E+01  0.92980764149E+02  0.84513632430E+03  0.85025875692E+03  0.47000000000E+01 0. -1.
        -11    1    4    4    0    0  0.21387348879E+02  0.28744161245E+02  0.27553947850E+03  0.27785904648E+03  0.00000000000E+00 0.  1.
         12    1    4    4    0    0  0.23042453045E+02 -0.53684424874E+02  0.39244170685E+03  0.39676626040E+03  0.00000000000E+00 0. -1.
         -5    1    5    5    0  502  0.42658767123E+02  0.71472971859E+01  0.37574561173E+02  0.57487319618E+02  0.47000000000E+01 0.  1.
         11    1    6    6    0    0 -0.22906314617E+02  0.10536122921E+02  0.11102040798E+03  0.11384744233E+03  0.00000000000E+00 0. -1.
        -12    1    6    6    0    0 -0.60054959185E+02 -0.85723920627E+02  0.18957833829E+03  0.21655284584E+03  0.00000000000E+00 0.  1.
</event>
<event>
12    1  0.1066489E+000  0.2699135E+03  0.7818608E-02  0.1101413E+00
         21   -1    0    0  503  502  0.00000000000E+00  0.00000000000E+00  0.35373355680E+03  0.35373355680E+03  0.00000000000E+00 0.  1.
         21   -1    0    0  501  503 -0.00000000000E+00 -0.00000000000E+00 -0.20678927632E+03  0.20678927632E+03  0.00000000000E+00 0.  1.
          6    2    1    2  501    0  0.58997431346E+02 -0.19795388850E+03  0.95455561323E+02  0.28574222860E+03  0.17283060534E+03 0.  0.
         24    2    3    3    0    0  0.45881285419E+02 -0.20806864214E+03  0.11570479870E+03  0.25916285428E+03  0.91543063091E+02 0.  0.
         -6    2    1    2    0  502 -0.58997431346E+02  0.19795388850E+03  0.51488719154E+02  0.27478060451E+03  0.17374364317E+03 0.  0.
        -24    2    5    5    0    0 -0.83307924749E+02  0.59945006330E+02  0.31959772898E+02  0.13321464325E+03  0.78683543279E+02 0.  0.
          5    1    3    3  501    0  0.13116145927E+02  0.10114753645E+02 -0.20249237376E+02  0.26579374327E+02  0.47000000000E+01 0. -1.
        -11    1    4    4    0    0 -0.90392561545E+01 -0.10571411100E+03  0.18504857089E+02  0.10770149095E+03  0.00000000000E+00 0.  1.
         12    1    4    4    0    0  0.54920541574E+02 -0.10235453114E+03  0.97199941610E+02  0.15146136332E+03  0.00000000000E+00 0. -1.
         -5    1    5    5    0  502  0.24310493403E+02  0.13800888217E+03  0.19528946256E+02  0.14156596126E+03  0.47000000000E+01 0.  1.
         11    1    6    6    0    0 -0.58836469055E+02  0.61390125122E+02 -0.89712646071E+01  0.85504158624E+02  0.00000000000E+00 0. -1.
        -12    1    6    6    0    0 -0.24471455694E+02 -0.14451187922E+01  0.40931037505E+02  0.47710484627E+02  0.00000000000E+00 0.  1.
</event>
<event>
12    1  0.1066489E+000  0.1989317E+03  0.7818608E-02  0.1150702E+00
         21   -1    0    0  503  502  0.00000000000E+00  0.00000000000E+00  0.64051970273E+02  0.64051970273E+02  0.00000000000E+00 0.  1.
         21   -1    0    0  501  503 -0.00000000000E+00 -0.00000000000E+00 -0.81576772824E+03  0.81576772824E+03  0.00000000000E+00 0.  1.
          6    2    1    2  501    0 -0.34031701365E+02 -0.94158141097E+02 -0.59320519529E+03  0.62567260855E+03  0.17190083520E+03 0.  0.
         24    2    3    3    0    0 -0.35447678944E+02 -0.23956955855E+02 -0.13598957821E+03  0.16307297398E+03  0.79178000643E+02 0.  0.
         -6    2    1    2    0  502  0.34031701365E+02  0.94158141097E+02 -0.15851056268E+03  0.25414708996E+03  0.17158447664E+03 0.  0.
        -24    2    5    5    0    0 -0.14464462089E+02  0.11952205623E+03 -0.13448123306E+03  0.19419123335E+03  0.71626046071E+02 0.  0.
          5    1    3    3  501    0  0.14159775784E+01 -0.70201185241E+02 -0.45721561708E+03  0.46259963457E+03  0.47000000000E+01 0. -1.
        -11    1    4    4    0    0  0.13560885140E+02  0.19890787965E+02 -0.40912392703E+02  0.47469621110E+02  0.00000000000E+00 0.  1.
         12    1    4    4    0    0 -0.49008564083E+02 -0.43847743821E+02 -0.95077185506E+02  0.11560335287E+03  0.00000000000E+00 0. -1.
         -5    1    5    5    0  502  0.48496163454E+02 -0.25363915131E+02 -0.24029329622E+02  0.59955856617E+02  0.47000000000E+01 0.  1.
         11    1    6    6    0    0 -0.14254599430E+01  0.22571825014E+02 -0.78044524026E+02  0.81255565662E+02  0.00000000000E+00 0. -1.
        -12    1    6    6    0    0 -0.13039002146E+02  0.96950231213E+02 -0.56436709031E+02  0.11293566768E+03  0.00000000000E+00 0.  1.
</event>
<event>
12    1  0.1066489E+000  0.4448926E+03  0.7818608E-02  0.1029311E+00
         21   -1    0    0  503  502  0.00000000000E+00  0.00000000000E+00  0.78770318759E+03  0.78770318759E+03  0.00000000000E+00 0.  1.
         21   -1    0    0  501  503 -0.00000000000E+00 -0.00000000000E+00 -0.30445728452E+03  0.30445728452E+03  0.00000000000E+00 0. -1.
          6    2    1    2  501    0  0.99676252860E+02 -0.39758163657E+03  0.12673494528E+02  0.44507310205E+03  0.17298247191E+03 0.  0.
         24    2    3    3    0    0  0.33730998869E+01 -0.73170465049E+02  0.69278697398E+01  0.10658823137E+03  0.77121727995E+02 0.  0.
         -6    2    1    2    0  502 -0.99676252860E+02  0.39758163657E+03  0.47057240855E+03  0.64708737006E+03  0.17110569744E+03 0.  0.
        -24    2    5    5    0    0 -0.78569007725E+02  0.24892773967E+03  0.39664077835E+03  0.47966134818E+03  0.67919020447E+02 0.  0.
          5    1    3    3  501    0  0.96303152973E+02 -0.32441117152E+03  0.57456247877E+01  0.33848487068E+03  0.47000000000E+01 0. -1.
        -13    1    4    4    0    0 -0.28927897496E+02 -0.61050714147E+01  0.12155005078E+02  0.31966221218E+02  0.00000000000E+00 0.  1.
         14    1    4    4    0    0  0.32300997382E+02 -0.67065393635E+02 -0.52271353384E+01  0.74622010152E+02  0.00000000000E+00 0. -1.
         -5    1    5    5    0  502 -0.21107245135E+02  0.14865389690E+03  0.73931630193E+02  0.16742602188E+03  0.47000000000E+01 0.  1.
         13    1    6    6    0    0 -0.10087290835E+02  0.77412455798E+02  0.72179006224E+02  0.10632144980E+03  0.00000000000E+00 0. -1.
        -14    1    6    6    0    0 -0.68481716890E+02  0.17151528387E+03  0.32446177213E+03  0.37333989838E+03  0.00000000000E+00 0.  1.
</event>
<event>
12    1  0.1066489E+000  0.3373716E+03  0.7818608E-02  0.1067942E+00
         21   -1    0    0  503  502  0.00000000000E+00  0.00000000000E+00  0.26258589653E+04  0.26258589653E+04  0.00000000000E+00 0.  1.
         21   -1    0    0  501  503 -0.00000000000E+00 -0.00000000000E+00 -0.11514715434E+03  0.11514715434E+03  0.00000000000E+00 0.  1.
          6    2    1    2  501    0 -0.29010835167E+03  0.48070798453E+01  0.23379193335E+04  0.23621359855E+04  0.17214424356E+03 0.  0.
         24    2    3    3    0    0 -0.20743476179E+03  0.65405253222E+02  0.17725761124E+04  0.17875560444E+04  0.77611276573E+02 0.  0.
         -6    2    1    2    0  502  0.29010835167E+03 -0.48070798453E+01  0.17279247754E+03  0.37887013416E+03  0.17175381959E+03 0.  0.
        -24    2    5    5    0    0  0.19280399557E+03  0.79751656614E+01  0.39377705453E+02  0.21318031877E+03  0.81598165716E+02 0.  0.
          5    1    3    3  501    0 -0.82673589882E+02 -0.60598173377E+02  0.56534322109E+03  0.57457994110E+03  0.47000000000E+01 0. -1.
        -11    1    4    4    0    0 -0.85492296955E+02  0.14603249605E+02  0.10012593777E+04  0.10050087209E+04  0.00000000000E+00 0.  1.
         12    1    4    4    0    0 -0.12194246483E+03  0.50802003617E+02  0.77131673469E+03  0.78254732350E+03  0.00000000000E+00 0. -1.
         -5    1    5    5    0  502  0.97304356101E+02 -0.12782245507E+02  0.13341477208E+03  0.16568981540E+03  0.47000000000E+01 0.  1.
         13    1    6    6    0    0  0.90807757413E+01 -0.41675022834E+01  0.26829082679E+02  0.28629150193E+02  0.00000000000E+00 0. -1.
        -14    1    6    6    0    0  0.18372321983E+03  0.12142667945E+02  0.12548622773E+02  0.18455116857E+03  0.00000000000E+00 0.  1.
</event>
<event>
12    1  0.1066489E+000  0.3473920E+03  0.7818608E-02  0.1063719E+00
         21   -1    0    0  501  502  0.00000000000E+00  0.00000000000E+00  0.13233047186E+04  0.13233047186E+04  0.00000000000E+00 0.  1.
         21   -1    0    0  502  503 -0.00000000000E+00 -0.00000000000E+00 -0.10191705259E+03  0.10191705259E+03  0.00000000000E+00 0.  1.
         -6    2    1    2    0  503 -0.80973846886E+02 -0.29099841088E+03  0.37901371358E+03  0.51413284345E+03  0.17159355065E+03 0.  0.
        -24    2    3    3    0    0 -0.11637722283E+03 -0.26974269360E+03  0.33870663022E+03  0.45623676834E+03  0.84409884969E+02 0.  0.
          6    2    1    2  501    0  0.80973846886E+02  0.29099841088E+03  0.84237395245E+03  0.91108892776E+03  0.17103309474E+03 0.  0.
         24    2    5    5    0    0  0.50497452261E+02  0.25313724802E+03  0.80617047401E+03  0.85030192147E+03  0.80461577537E+02 0.  0.
          5    1    5    5  501    0  0.30476394626E+02  0.37861162862E+02  0.36203478440E+02  0.60787006291E+02  0.47000000000E+01 0. -1.
        -13    1    6    6    0    0 -0.16383006646E+02  0.64149381193E+02  0.14486482688E+03  0.15927763208E+03  0.00000000000E+00 0.  1.
         14    1    6    6    0    0  0.66880458907E+02  0.18898786682E+03  0.66130564714E+03  0.69102428939E+03  0.00000000000E+00 0. -1.
         -5    1    3    3    0  503  0.35403375944E+02 -0.21255717275E+02  0.40307083354E+02  0.57896075114E+02  0.47000000000E+01 0.  1.
         13    1    4    4    0    0 -0.68063324311E+02 -0.80321545521E+02  0.81321489160E+02  0.13303139250E+03  0.00000000000E+00 0. -1.
        -14    1    4    4    0    0 -0.48313898519E+02 -0.18942114808E+03  0.25738514106E+03  0.32320537584E+03  0.00000000000E+00 0.  1.
</event>
<event>
12    1  0.1066489E+000  0.2220113E+03  0.7818608E-02  0.1132572E+00
         21   -1    0    0  503  502  0.00000000000E+00  0.00000000000E+00  0.10426320218E+03  0.10426320218E+03  0.00000000000E+00 0. -1.
         21   -1    0    0  501  503 -0.00000000000E+00 -0.00000000000E+00 -0.47068952683E+03  0.47068952683E+03  0.00000000000E+00 0. -1.
          6    2    1    2  501    0  0.13606471915E+03 -0.30976745476E+02 -0.18068180037E+03  0.28548763824E+03  0.17141794551E+03 0.  0.
         24    2    3    3    0    0  0.13587454709E+03 -0.67489684539E+02 -0.17615847457E+03  0.24839611143E+03  0.87476110715E+02 0.  0.
         -6    2    1    2    0  502 -0.13606471915E+03  0.30976745476E+02 -0.18574452428E+03  0.28946509077E+03  0.17267264960E+03 0.  0.
        -24    2    5    5    0    0  0.75469342783E+00  0.26983931480E+02 -0.72524729962E+02  0.11176785937E+03  0.80644378681E+02 0.  0.
          5    1    3    3  501    0  0.19017205399E+00  0.36512939063E+02 -0.45233258064E+01  0.37091526806E+02  0.47000000000E+01 0. -1.
        -11    1    4    4    0    0  0.11013466757E+03 -0.87057490797E+01 -0.10249361682E+03  0.15069962361E+03  0.00000000000E+00 0.  1.
         12    1    4    4    0    0  0.25739879527E+02 -0.58783935459E+02 -0.73664857750E+02  0.97696487825E+02  0.00000000000E+00 0. -1.
         -5    1    5    5    0  502 -0.13681941258E+03  0.39928139960E+01 -0.11321979431E+03  0.17769723140E+03  0.47000000000E+01 0.  1.
         13    1    6    6    0    0  0.16542661829E+02 -0.66906499052E+01  0.10562631389E+02  0.20736287961E+02  0.00000000000E+00 0. -1.
        -14    1    6    6    0    0 -0.15787968401E+02  0.33674581385E+02 -0.83087361351E+02  0.91031571414E+02  0.00000000000E+00 0.  1.
</event>
<event>
12    1  0.1066489E+000  0.3119158E+03  0.7818608E-02  0.1079468E+00
         21   -1    0    0  501  502  0.00000000000E+00  0.00000000000E+00  0.87623050912E+03  0.87623050912E+03  0.00000000000E+00 0.  1.
         21   -1    0    0  502  503 -0.00000000000E+00 -0.00000000000E+00 -0.14457392919E+03  0.14457392919E+03  0.00000000000E+00 0.  1.
         -6    2    1    2    0  503  0.14644460582E+02 -0.25936507442E+03  0.61221388597E+03  0.68709337700E+03  0.17264635670E+03 0.  0.
        -24    2    3    3    0    0  0.16916345760E+02 -0.10569401750E+03  0.42138554107E+03  0.44202705452E+03  0.79779412205E+02 0.  0.
          6    2    1    2  501    0 -0.14644460582E+02  0.25936507442E+03  0.11944269396E+03  0.33371106132E+03  0.17208083349E+03 0.  0.
         24    2    5    5    0    0 -0.31139926670E+02  0.12389727255E+03 -0.38218407984E+01  0.14975492178E+03  0.78049349470E+02 0.  0.
          5    1    5    5  501    0  0.16495466088E+02  0.13546780187E+03  0.12326453476E+03  0.18395613954E+03  0.47000000000E+01 0. -1.
        -11    1    6    6    0    0  0.21007614147E+02  0.49379084125E+02 -0.20203113342E+02  0.57339162793E+02  0.00000000000E+00 0.  1.
         12    1    6    6    0    0 -0.52147540817E+02  0.74518188426E+02  0.16381272544E+02  0.92415758990E+02  0.00000000000E+00 0. -1.
         -5    1    3    3    0  503 -0.22718851778E+01 -0.15367105692E+03  0.19082834490E+03  0.24506632248E+03  0.47000000000E+01 0.  1.
         11    1    4    4    0    0  0.30645493626E+02 -0.49482536504E+02  0.10196324971E+03  0.11740601343E+03  0.00000000000E+00 0. -1.
        -12    1    4    4    0    0 -0.13729147866E+02 -0.56211480998E+02  0.31942229136E+03  0.32462104109E+03  0.00000000000E+00 0.  1.
</event>
<event>
12    1  0.1066489E+000  0.5918380E+03  0.7818608E-02  0.9923382E-01
         21   -1    0    0  503  502  0.00000000000E+00  0.00000000000E+00  0.56947409433E+03  0.56947409433E+03  0.00000000000E+00 0. -1.
         21   -1    0    0  501  503 -0.00000000000E+00 -0.00000000000E+00 -0.83146957654E+03  0.83146957654E+03  0.00000000000E+00 0. -1.
          6    2    1    2  501    0 -0.46112663276E+03  0.32832457448E+03  0.22793505554E+03  0.63263115606E+03  0.16683222837E+03 0.  0.
         24    2    3    3    0    0 -0.23520188929E+03  0.18774787341E+03  0.18856094200E+03  0.36360288726E+03  0.77991269256E+02 0.  0.
         -6    2    1    2    0  502  0.46112663276E+03 -0.32832457448E+03 -0.48993053775E+03  0.76831251482E+03  0.17273503111E+03 0.  0.
        -24    2    5    5    0    0  0.18286081244E+03 -0.96511731533E+02 -0.24406056216E+03  0.33054180337E+03  0.83305070212E+02 0.  0.
          5    1    3    3  501    0 -0.22592474347E+03  0.14057670107E+03  0.39374113540E+02  0.26902826880E+03  0.47000000000E+01 0. -1.
        -13    1    4    4    0    0 -0.13627140527E+03  0.60619863532E+02  0.78870956439E+02  0.16871660119E+03  0.00000000000E+00 0.  1.
         14    1    4    4    0    0 -0.98930484019E+02  0.12712800988E+03  0.10968998556E+03  0.19488628606E+03  0.00000000000E+00 0. -1.
         -5    1    5    5    0  502  0.27826582032E+03 -0.23181284294E+03 -0.24586997559E+03  0.43777071146E+03  0.47000000000E+01 0.  1.
         13    1    6    6    0    0  0.25601974789E+01 -0.12357813016E+02 -0.53739436466E+02  0.55201423762E+02  0.00000000000E+00 0. -1.
        -14    1    6    6    0    0  0.18030061496E+03 -0.84153918517E+02 -0.19032112569E+03  0.27534037961E+03  0.00000000000E+00 0.  1.
</event>
<event>
12    1  0.1066489E+000  0.6345698E+03  0.7818608E-02  0.9836208E-01
         21   -1    0    0  503  502  0.00000000000E+00  0.00000000000E+00  0.27916827531E+03  0.27916827531E+03  0.00000000000E+00 0.  1.
         21   -1    0    0  501  503 -0.00000000000E+00 -0.00000000000E+00 -0.20057547447E+04  0.20057547447E+04  0.00000000000E+00 0. -1.
          6    2    1    2  501    0  0.36184903541E+03 -0.49232129107E+03 -0.25777857222E+03  0.68492968268E+03  0.17135897949E+03 0.  0.
         24    2    3    3    0    0  0.11937921448E+03 -0.23524731278E+03 -0.15797856599E+03  0.31769573052E+03  0.79879001365E+02 0.  0.
         -6    2    1    2    0  502 -0.36184903541E+03  0.49232129107E+03 -0.14688078972E+04  0.15999933373E+04  0.17107618968E+03 0.  0.
        -24    2    5    5    0    0 -0.37125002354E+03  0.45282962014E+03 -0.13316736649E+04  0.14568994580E+04  0.79498654171E+02 0.  0.
          5    1    3    3  501    0  0.24246982093E+03 -0.25707397829E+03 -0.99800006229E+02  0.36723395216E+03  0.47000000000E+01 0. -1.
        -13    1    4    4    0    0  0.64445966199E+02 -0.13816327951E+03 -0.45067591702E+02  0.15897629442E+03  0.00000000000E+00 0.  1.
         14    1    4    4    0    0  0.54933248284E+02 -0.97084033263E+02 -0.11291097429E+03  0.15871943610E+03  0.00000000000E+00 0. -1.
         -5    1    5    5    0  502  0.94009881253E+01  0.39491670928E+02 -0.13713423229E+03  0.14309387938E+03  0.47000000000E+01 0.  1.
         11    1    6    6    0    0 -0.15138440438E+03  0.19880735686E+03 -0.66407981202E+03  0.70953759574E+03  0.00000000000E+00 0. -1.
        -12    1    6    6    0    0 -0.21986561916E+03  0.25402226327E+03 -0.66759385287E+03  0.74736186223E+03  0.00000000000E+00 0.  1.
</event>
<event>
12    1  0.1066489E+000  0.1807116E+03  0.7818608E-02  0.1169416E+00
         21   -1    0    0  503  502  0.00000000000E+00  0.00000000000E+00  0.93195844848E+03  0.93195844848E+03  0.00000000000E+00 0. -1.
         21   -1    0    0  501  503 -0.00000000000E+00 -0.00000000000E+00 -0.33650179638E+02  0.33650179638E+02  0.00000000000E+00 0. -1.
          6    2    1    2  501    0  0.56300986155E+01 -0.13976994839E+02  0.38568820974E+03  0.42206837659E+03  0.17076084151E+03 0.  0.
         24    2    3    3    0    0 -0.50367422514E+02 -0.43858255261E+02  0.18777029910E+03  0.21416887816E+03  0.78423206660E+02 0.  0.
         -6    2    1    2    0  502 -0.56300986155E+01  0.13976994839E+02  0.51262005911E+03  0.54354025153E+03  0.18008227464E+03 0.  0.
        -24    2    5    5    0    0 -0.71655270868E+02  0.19119165325E+02  0.23508171040E+03  0.25817138447E+03  0.76740034305E+02 0.  0.
          5    1    3    3  501    0  0.55997521130E+02  0.29881260421E+02  0.19791791064E+03  0.20789949843E+03  0.47000000000E+01 0. -1.
        -13    1    4    4    0    0  0.57506570765E+01  0.16808858652E+02  0.17675743298E+02  0.25060720004E+02  0.00000000000E+00 0.  1.
         14    1    4    4    0    0 -0.56118079591E+02 -0.60667113913E+02  0.17009455580E+03  0.18910815816E+03  0.00000000000E+00 0. -1.
         -5    1    5    5    0  502  0.66025172252E+02 -0.51421704857E+01  0.27753834870E+03  0.28536886706E+03  0.47000000000E+01 0.  1.
         13    1    6    6    0    0 -0.60912127296E+02  0.65977963924E+01  0.23371958933E+03  0.24161677219E+03  0.00000000000E+00 0. -1.
        -14    1    6    6    0    0 -0.10743143572E+02  0.12521368933E+02  0.13621210769E+01  0.16554612275E+02  0.00000000000E+00 0.  1.
</event>
<event>
12    1  0.1066489E+000  0.2679140E+03  0.7818608E-02  0.1102482E+00
         21   -1    0    0  501  502  0.00000000000E+00  0.00000000000E+00  0.31448972466E+03  0.31448972466E+03  0.00000000000E+00 0.  1.
         21   -1    0    0  502  503 -0.00000000000E+00 -0.00000000000E+00 -0.22936342507E+03  0.22936342507E+03  0.00000000000E+00 0.  1.
         -6    2    1    2    0  503  0.30213510801E+02  0.20314317490E+03  0.23367693958E+02  0.26893114824E+03  0.17204042440E+03 0.  0.
        -24    2    3    3    0    0  0.19300123666E+02  0.21663009230E+03  0.37883178244E+02  0.24582729047E+03  0.10814263674E+03 0.  0.
          6    2    1    2  501    0 -0.30213510801E+02 -0.20314317490E+03  0.61758605631E+02  0.27492200149E+03  0.17201155714E+03 0.  0.
         24    2    5    5    0    0 -0.38432913513E+02 -0.22044834037E+03  0.78281241586E+02  0.24919040940E+03  0.76768142739E+02 0.  0.
          5    1    5    5  501    0  0.82194027122E+01  0.17305165465E+02 -0.16522635954E+02  0.25731592092E+02  0.47000000000E+01 0. -1.
        -11    1    6    6    0    0 -0.61277807633E+02 -0.17946328016E+03  0.61563532405E+02  0.19937930473E+03  0.00000000000E+00 0.  1.
         12    1    6    6    0    0  0.22844894120E+02 -0.40985060212E+02  0.16717709181E+02  0.49811104667E+02  0.00000000000E+00 0. -1.
         -5    1    3    3    0  503  0.10913387135E+02 -0.13486917400E+02 -0.14515484285E+02  0.23103857768E+02  0.47000000000E+01 0.  1.
         11    1    4    4    0    0  0.63475937601E+02  0.14315922778E+03  0.32441973848E+02  0.15992573533E+03  0.00000000000E+00 0. -1.
        -12    1    4    4    0    0 -0.44175813935E+02  0.73470864525E+02  0.54412043960E+01  0.85901555143E+02  0.00000000000E+00 0.  1.
</event>
<event>
12    1  0.1066489E+000  0.2055840E+03  0.7818608E-02  0.1145177E+00
         21   -1    0    0  501  502  0.00000000000E+00  0.00000000000E+00  0.24313272703E+03  0.24313272703E+03  0.00000000000E+00 0. -1.
         21   -1    0    0  502  503 -0.00000000000E+00 -0.00000000000E+00 -0.17356648482E+03  0.17356648482E+03  0.00000000000E+00 0. -1.
         -6    2    1    2    0  503  0.12440795456E+02 -0.11080234936E+03  0.33671440970E+02  0.20800518088E+03  0.17233820041E+03 0.  0.
        -24    2    3    3    0    0  0.18022084571E+02 -0.10349867203E+03  0.84153552534E+02  0.15647821630E+03  0.79792487928E+02 0.  0.
          6    2    1    2  501    0 -0.12440795456E+02  0.11080234936E+03  0.35894801248E+02  0.20869403097E+03  0.17272182198E+03 0.  0.
         24    2    5    5    0    0  0.46502762427E+02  0.10750315399E+03  0.50403149640E+02  0.14772018511E+03  0.74574396162E+02 0.  0.
          5    1    5    5  501    0 -0.58943557883E+02  0.32991953703E+01 -0.14508348392E+02  0.60973845861E+02  0.47000000000E+01 0. -1.
        -11    1    6    6    0    0  0.51808718811E+01  0.90917736025E+02  0.48448893340E+02  0.10315120660E+03  0.00000000000E+00 0.  1.
         12    1    6    6    0    0  0.41321890546E+02  0.16585417967E+02  0.19542563001E+01  0.44568978506E+02  0.00000000000E+00 0. -1.
         -5    1    3    3    0  503 -0.55812891149E+01 -0.73036773333E+01 -0.50482111564E+02  0.51526964579E+02  0.47000000000E+01 0.  1.
         13    1    4    4    0    0  0.24460651767E+02 -0.94476675383E+02  0.31319815693E+02  0.10249437317E+03  0.00000000000E+00 0. -1.
        -14    1    4    4    0    0 -0.64385671954E+01 -0.90219966450E+01  0.52833736842E+02  0.53983843135E+02  0.00000000000E+00 0.  1.
</event>
<event>
12    1  0.1066489E+000  0.3992918E+03  0.7818608E-02  0.1044058E+00
         21   -1    0    0  501  502  0.00000000000E+00  0.00000000000E+00  0.43341416702E+03  0.43341416702E+03  0.00000000000E+00 0.  1.
         21   -1    0    0  502  503 -0.00000000000E+00 -0.00000000000E+00 -0.36877792958E+03  0.36877792958E+03  0.00000000000E+00 0.  1.
         -6    2    1    2    0  503 -0.19635361323E+03  0.30229095961E+03  0.55860052050E+02  0.40280383548E+03  0.17086842531E+03 0.  0.
        -24    2    3    3    0    0 -0.12589515249E+03  0.18316380868E+03  0.10063999222E+03  0.25726000764E+03  0.81582677491E+02 0.  0.
          6    2    1    2  501    0  0.19635361323E+03 -0.30229095961E+03  0.87761853922E+01  0.39938826113E+03  0.17175388206E+03 0.  0.
         24    2    5    5    0    0  0.97216650436E+02 -0.65450357225E+02 -0.52685906309E+01  0.14220942439E+03  0.80379947473E+02 0.  0.
          5    1    5    5  501    0  0.99136962798E+02 -0.23684060238E+03  0.14044776023E+02  0.25717883673E+03  0.47000000000E+01 0. -1.
        -11    1    6    6    0    0 -0.46836562309E+01 -0.30690534390E+02 -0.14269291838E+02  0.34168087837E+02  0.00000000000E+00 0.  1.
         12    1    6    6    0    0  0.10190030667E+03 -0.34759822835E+02  0.90007012074E+01  0.10804133656E+03  0.00000000000E+00 0. -1.
         -5    1    3    3    0  503 -0.70458460742E+02  0.11912715093E+03 -0.44779940173E+02  0.14554382784E+03  0.47000000000E+01 0.  1.
         11    1    4    4    0    0 -0.56774308468E+02  0.10710245577E+03  0.12494863945E+02  0.12186213423E+03  0.00000000000E+00 0. -1.
        -12    1    4    4    0    0 -0.69120844025E+02  0.76061352902E+02  0.88145128278E+02  0.13539787341E+03  0.00000000000E+00 0.  1.
</event>
<event>
12    1  0.1066489E+000  0.1718714E+03  0.7818608E-02  0.1176084E+00
         21   -1    0    0  501  502  0.00000000000E+00  0.00000000000E+00  0.15960648879E+04  0.15960648879E+04  0.00000000000E+00 0. -1.
         21   -1    0    0  502  503 -0.00000000000E+00 -0.00000000000E+00 -0.21222272678E+02  0.21222272678E+02  0.00000000000E+00 0. -1.
         -6    2    1    2    0  503  0.23646701990E+02 -0.24785198309E+01  0.10818127103E+04  0.10953805331E+04  0.17021886669E+03 0.  0.
        -24    2    3    3    0    0 -0.44098750251E+02 -0.59042556379E+01  0.80955107204E+03  0.81475681417E+03  0.80474641873E+02 0.  0.
          6    2    1    2  501    0 -0.23646701990E+02  0.24785198309E+01  0.49302990495E+03  0.52190662749E+03  0.16953681332E+03 0.  0.
         24    2    5    5    0    0 -0.58600733484E+02  0.16028765583E+02  0.46279833427E+03  0.47351828857E+03  0.79663693864E+02 0.  0.
          5    1    5    5  501    0  0.34954031494E+02 -0.13550245752E+02  0.30231570681E+02  0.48388338920E+02  0.47000000000E+01 0. -1.
        -13    1    6    6    0    0 -0.52510454587E+02 -0.14813542793E+02  0.39542264197E+03  0.39916895505E+03  0.00000000000E+00 0.  1.
         14    1    6    6    0    0 -0.60902788968E+01  0.30842308376E+02  0.67375692301E+02  0.74349333528E+02  0.00000000000E+00 0. -1.
         -5    1    3    3    0  503  0.67745452240E+02  0.34257358070E+01  0.27226163822E+03  0.28062371890E+03  0.47000000000E+01 0.  1.
         11    1    4    4    0    0  0.23765960664E+01  0.23074706346E+02  0.48979433927E+03  0.49034333386E+03  0.00000000000E+00 0. -1.
        -12    1    4    4    0    0 -0.46475346317E+02 -0.28978961983E+02  0.31975673277E+03  0.32441348031E+03  0.00000000000E+00 0.  1.
</event>
<event>
12    1  0.1066489E+000  0.1793585E+03  0.7818608E-02  0.1169568E+00
         21   -1    0    0  503  502  0.00000000000E+00  0.00000000000E+00  0.11920410183E+03  0.11920410183E+03  0.00000000000E+00 0.  1.
         21   -1    0    0  501  503 -0.00000000000E+00 -0.00000000000E+00 -0.28887018780E+03  0.28887018780E+03  0.00000000000E+00 0.  1.
          6    2    1    2  501    0 -0.77297776605E+01  0.28121958700E+02 -0.24716086230E+02  0.18105350540E+03  0.17697144649E+03 0.  0.
         24    2    3    3    0    0  0.69287639594E+02  0.17115727987E+02 -0.23660834153E+02  0.10310465530E+03  0.70547925028E+02 0.  0.
         -6    2    1    2    0  502  0.77297776605E+01 -0.28121958700E+02 -0.14494999974E+03  0.22702078423E+03  0.17227112359E+03 0.  0.
        -24    2    5    5    0    0  0.60392359571E+02 -0.44292925904E+02 -0.58257714094E+02  0.12419816948E+03  0.80138153653E+02 0.  0.
          5    1    3    3  501    0 -0.77017417254E+02  0.11006230714E+02 -0.10552520771E+01  0.77948850100E+02  0.47000000000E+01 0. -1.
        -11    1    4    4    0    0  0.41944481128E+02  0.24906920311E+02  0.18568202346E+02  0.52196477993E+02  0.00000000000E+00 0.  1.
         12    1    4    4    0    0  0.27343158465E+02 -0.77911923248E+01 -0.42229036498E+02  0.50908177303E+02  0.00000000000E+00 0. -1.
         -5    1    5    5    0  502 -0.52662581910E+02  0.16170967204E+02 -0.86692285648E+02  0.10282261475E+03  0.47000000000E+01 0.  1.
         13    1    6    6    0    0 -0.62539056580E+01  0.57579470207E+01  0.12329822717E+02  0.14976308561E+02  0.00000000000E+00 0. -1.
        -14    1    6    6    0    0  0.66646265229E+02 -0.50050872925E+02 -0.70587536811E+02  0.10922186092E+03  0.00000000000E+00 0.  1.
</event>
<event>
12    1  0.1066489E+000  0.1796937E+03  0.7818608E-02  0.1168422E+00
         21   -1    0    0  503  502  0.00000000000E+00  0.00000000000E+00  0.27185902126E+02  0.27185902126E+02  0.00000000000E+00 0. -1.
         21   -1    0    0  501  503 -0.00000000000E+00 -0.00000000000E+00 -0.12607008874E+04  0.12607008874E+04  0.00000000000E+00 0. -1.
          6    2    1    2  501    0  0.40011459502E+02  0.24533026731E+02 -0.45498091109E+03  0.48918040924E+03  0.17345621071E+03 0.  0.
         24    2    3    3    0    0  0.39785789886E+02  0.80500193825E+02 -0.35642398371E+03  0.37574349878E+03  0.77986732395E+02 0.  0.
         -6    2    1    2    0  502 -0.40011459502E+02 -0.24533026731E+02 -0.77853407415E+03  0.79870638026E+03  0.17208657982E+03 0.  0.
        -24    2    5    5    0    0 -0.81271240488E+02  0.20935630926E+02 -0.54054597870E+03  0.55288084876E+03  0.80274296442E+02 0.  0.
          5    1    3    3  501    0  0.22566961636E+00 -0.55967167095E+02 -0.98556927381E+02  0.11343691046E+03  0.47000000000E+01 0. -1.
        -11    1    4    4    0    0  0.62969090572E+02  0.58157139957E+02 -0.23580345896E+03  0.25089964239E+03  0.00000000000E+00 0.  1.
         12    1    4    4    0    0 -0.23183300686E+02  0.22343053868E+02 -0.12062052475E+03  0.12484385638E+03  0.00000000000E+00 0. -1.
         -5    1    5    5    0  502  0.41259780985E+02 -0.45468657657E+02 -0.23798809545E+03  0.24582553149E+03  0.47000000000E+01 0.  1.
         13    1    6    6    0    0 -0.45429186597E+02  0.27941172575E+02 -0.47383954317E+03  0.47683166086E+03  0.00000000000E+00 0. -1.
        -14    1    6    6    0    0 -0.35842053891E+02 -0.70055416492E+01 -0.66706435525E+02  0.76049187907E+02  0.00000000000E+00 0.  1.
</event>
<event>
12    1  0.1066489E+000  0.3095204E+03  0.7818608E-02  0.1080631E+00
         21   -1    0    0  503  502  0.00000000000E+00  0.00000000000E+00  0.38306601024E+03  0.38306601024E+03  0.00000000000E+00 0. -1.
         21   -1    0    0  501  503 -0.00000000000E+00 -0.00000000000E+00 -0.25031484891E+03  0.25031484891E+03  0.00000000000E+00 0.  1.
          6    2    1    2  501    0  0.10742682089E+03  0.23385812160E+03  0.81678689859E+02  0.31967519105E+03  0.17114519133E+03 0.  0.
         24    2    3    3    0    0  0.19900124125E+02  0.94745539091E+02 -0.20072925639E+02  0.12631357512E+03  0.78609571930E+02 0.  0.
         -6    2    1    2    0  502 -0.10742682089E+03 -0.23385812160E+03  0.51072471464E+02  0.31370566810E+03  0.17196716539E+03 0.  0.
        -24    2    5    5    0    0 -0.48746230733E+02 -0.39156384593E+02 -0.96720285548E+01  0.10142245554E+03  0.79268839310E+02 0.  0.
          5    1    3    3  501    0  0.87526696765E+02  0.13911258251E+03  0.10175161550E+03  0.19336161593E+03  0.47000000000E+01 0. -1.
        -11    1    4    4    0    0  0.15208098193E+02  0.43145292971E+02  0.29638807860E+02  0.54509278912E+02  0.00000000000E+00 0.  1.
         12    1    4    4    0    0  0.46920259317E+01  0.51600246120E+02 -0.49711733499E+02  0.71804296212E+02  0.00000000000E+00 0. -1.
         -5    1    5    5    0  502 -0.58680590157E+02 -0.19470173700E+03  0.60744500019E+02  0.21228321256E+03  0.47000000000E+01 0.  1.
         11    1    6    6    0    0 -0.25369629784E+02 -0.59201812098E+02  0.95626426212E+01  0.65114643552E+02  0.00000000000E+00 0. -1.
        -12    1    6    6    0    0 -0.23376600949E+02  0.20045427505E+02 -0.19234671176E+02  0.36307811983E+02  0.00000000000E+00 0.  1.
</event>
<event>
12    1  0.1066489E+000  0.2286697E+03  0.7818608E-02  0.1129278E+00
         21   -1    0    0  501  502  0.00000000000E+00  0.00000000000E+00  0.72607840750E+02  0.72607840750E+02  0.00000000000E+00 0. -1.
         21   -1    0    0  502  503 -0.00000000000E+00 -0.00000000000E+00 -0.69099112217E+03  0.69099112217E+03  0.00000000000E+00 0. -1.
         -6    2    1    2    0  503  0.11357263924E+03 -0.68881464423E+02 -0.31371826974E+03  0.38821256716E+03  0.18613555276E+03 0.  0.
        -24    2    3    3    0    0  0.50280890588E+02  0.34656705452E+02 -0.96939000827E+02  0.13973452084E+03  0.79995695151E+02 0.  0.
          6    2    1    2  501    0 -0.11357263924E+03  0.68881464423E+02 -0.30466501168E+03  0.37538639576E+03  0.17450150789E+03 0.  0.
         24    2    5    5    0    0 -0.16409608967E+02  0.81694199487E+02 -0.12865181788E+03  0.17387323236E+03  0.82081625177E+02 0.  0.
          5    1    5    5  501    0 -0.97163030278E+02 -0.12812735064E+02 -0.17601319380E+03  0.20151316340E+03  0.47000000000E+01 0. -1.
        -11    1    6    6    0    0  0.12364791721E+02  0.73364461432E+02 -0.49813321080E+02  0.89535463547E+02  0.00000000000E+00 0.  1.
         12    1    6    6    0    0 -0.28774400688E+02  0.83297380551E+01 -0.78838496798E+02  0.84337768813E+02  0.00000000000E+00 0. -1.
         -5    1    3    3    0  503  0.63291748657E+02 -0.10353816987E+03 -0.21677926891E+03  0.24847804631E+03  0.47000000000E+01 0.  1.
         11    1    4    4    0    0  0.64421490307E+02  0.39376619475E+02 -0.50180724575E+02  0.90657331163E+02  0.00000000000E+00 0. -1.
        -12    1    4    4    0    0 -0.14140599719E+02 -0.47199140236E+01 -0.46758276251E+02  0.49077189679E+02  0.00000000000E+00 0.  1.
</event>
<event>
12    1  0.1066489E+000  0.2215658E+03  0.7818608E-02  0.1132797E+00
         21   -1    0    0  501  502  0.00000000000E+00  0.00000000000E+00  0.53550329288E+03  0.53550329288E+03  0.00000000000E+00 0.  1.
         21   -1    0    0  502  503 -0.00000000000E+00 -0.00000000000E+00 -0.20809732930E+03  0.20809732930E+03  0.00000000000E+00 0.  1.
         -6    2    1    2    0  503 -0.10989583210E+03  0.88139745510E+02  0.44193643758E+03  0.49418401867E+03  0.17048261141E+03 0.  0.
        -24    2    3    3    0    0  0.15138790231E+02  0.24077969414E+02  0.20421403691E+03  0.21801088870E+03  0.70826853225E+02 0.  0.
          6    2    1    2  501    0  0.10989583210E+03 -0.88139745510E+02 -0.11453047399E+03  0.24941660351E+03  0.17101375378E+03 0.  0.
         24    2    5    5    0    0  0.75596328409E+01  0.92862204592E+01 -0.39915333575E+02  0.89560337750E+02  0.79274449253E+02 0.  0.
          5    1    5    5  501    0  0.10233619926E+03 -0.97425965969E+02 -0.74615140417E+02  0.15985626576E+03  0.47000000000E+01 0. -1.
        -11    1    6    6    0    0  0.23894123071E+02 -0.41920277911E+01  0.16475025048E+02  0.29324540315E+02  0.00000000000E+00 0.  1.
         12    1    6    6    0    0 -0.16334490230E+02  0.13478248250E+02 -0.56390358623E+02  0.60235797435E+02  0.00000000000E+00 0. -1.
         -5    1    3    3    0  503 -0.12503462233E+03  0.64061776095E+02  0.23772240067E+03  0.27617312997E+03  0.47000000000E+01 0.  1.
         13    1    4    4    0    0 -0.80415247402E+01 -0.13955618164E+02  0.13329706712E+03  0.13426665074E+03  0.00000000000E+00 0. -1.
        -14    1    4    4    0    0  0.23180314971E+02  0.38033587578E+02  0.70916969789E+02  0.83744237953E+02  0.00000000000E+00 0.  1.
</event>
<event>
12    1  0.1066489E+000  0.3031306E+03  0.7818608E-02  0.1083806E+00
         21   -1    0    0  501  502  0.00000000000E+00  0.00000000000E+00  0.23214083949E+03  0.23214083949E+03  0.00000000000E+00 0.  1.
         21   -1    0    0  502  503 -0.00000000000E+00 -0.00000000000E+00 -0.39462792398E+03  0.39462792398E+03  0.00000000000E+00 0.  1.
         -6    2    1    2    0  503 -0.22261640453E+03  0.11218733492E+03 -0.77202380168E+02  0.31186936890E+03  0.17075782287E+03 0.  0.
        -24    2    3    3    0    0 -0.14777008529E+03  0.71764853246E+02  0.16515585371E+02  0.18521592207E+03  0.83940341673E+02 0.  0.
          6    2    1    2  501    0  0.22261640453E+03 -0.11218733492E+03 -0.85284704326E+02  0.31489939457E+03  0.17246473909E+03 0.  0.
         24    2    5    5    0    0  0.18768404953E+03 -0.14876450306E+03 -0.73308161495E+02  0.26271044715E+03  0.79287531698E+02 0.  0.
          5    1    5    5  501    0  0.34932354999E+02  0.36577168138E+02 -0.11976542832E+02  0.52188947422E+02  0.47000000000E+01 0. -1.
        -13    1    6    6    0    0  0.20907553219E+02 -0.45884206051E+02  0.70579309736E+01  0.50914639704E+02  0.00000000000E+00 0.  1.
         14    1    6    6    0    0  0.16677649631E+03 -0.10288029701E+03 -0.80366092468E+02  0.21179580745E+03  0.00000000000E+00 0. -1.
         -5    1    3    3    0  503 -0.74846319236E+02  0.40422481674E+02 -0.93717965539E+02  0.12665344683E+03  0.47000000000E+01 0.  1.
         11    1    4    4    0    0 -0.59117634546E+02  0.73009852742E+02  0.21651778566E+02  0.96406082934E+02  0.00000000000E+00 0. -1.
        -12    1    4    4    0    0 -0.88652450745E+02 -0.12449994966E+01 -0.51361931946E+01  0.88809839136E+02  0.00000000000E+00 0.  1.
</event>
<event>
12    1  0.1066489E+000  0.1766471E+03  0.7818608E-02  0.1173625E+00
         21   -1    0    0  501  502  0.00000000000E+00  0.00000000000E+00  0.19046836961E+02  0.19046836961E+02  0.00000000000E+00 0. -1.
         21   -1    0    0  502  503 -0.00000000000E+00 -0.00000000000E+00 -0.16346301803E+04  0.16346301803E+04  0.00000000000E+00 0. -1.
         -6    2    1    2    0  503 -0.39251215891E+02 -0.28797314074E+02 -0.10206156612E+04  0.10357898144E+04  0.16980656239E+03 0.  0.
        -24    2    3    3    0    0  0.10092980399E+02 -0.72168641756E+02 -0.56412946197E+03  0.57457656460E+03  0.81154159570E+02 0.  0.
          6    2    1    2  501    0  0.39251215891E+02  0.28797314074E+02 -0.59496768216E+03  0.61788720281E+03  0.15946193694E+03 0.  0.
         24    2    5    5    0    0 -0.23082916402E+02  0.51215527684E+02 -0.40490926018E+03  0.41656056742E+03  0.80095855370E+02 0.  0.
          5    1    5    5  501    0  0.62334132292E+02 -0.22418213611E+02 -0.19005842198E+03  0.20132663539E+03  0.47000000000E+01 0. -1.
        -11    1    6    6    0    0  0.14324415065E+02  0.38708092334E+02 -0.32325106114E+03  0.32587536545E+03  0.00000000000E+00 0.  1.
         12    1    6    6    0    0 -0.37407331467E+02  0.12507435350E+02 -0.81658199033E+02  0.90685201967E+02  0.00000000000E+00 0. -1.
         -5    1    3    3    0  503 -0.49344196290E+02  0.43371327683E+02 -0.45648619920E+03  0.46121324985E+03  0.47000000000E+01 0.  1.
         11    1    4    4    0    0  0.35995966265E+02 -0.60151238824E+02 -0.49252457203E+03  0.49748802516E+03  0.00000000000E+00 0. -1.
        -12    1    4    4    0    0 -0.25902985865E+02 -0.12017402932E+02 -0.71604889938E+02  0.77088539440E+02  0.00000000000E+00 0.  1.
</event>
<event>
12    1  0.1066489E+000  0.2452500E+03  0.7818608E-02  0.1116932E+00
         21   -1    0    0  501  502  0.00000000000E+00  0.00000000000E+00  0.27262251575E+03  0.27262251575E+03  0.00000000000E+00 0.  1.
         21   -1    0    0  502  503 -0.00000000000E+00 -0.00000000000E+00 -0.32149352428E+03  0.32149352428E+03  0.00000000000E+00 0.  1.
         -6    2    1    2    0  503 -0.16781283253E+03 -0.39450437657E+02  0.14471513182E+03  0.28166901192E+03  0.16934426210E+03 0.  0.
        -24    2    3    3    0    0 -0.15338888077E+03 -0.74392999170E+02  0.15317858558E+03  0.24264654354E+03  0.79694409706E+02 0.  0.
          6    2    1    2  501    0  0.16781283253E+03  0.39450437657E+02 -0.19358614035E+03  0.31244702811E+03  0.17444216188E+03 0.  0.
         24    2    5    5    0    0  0.56887906612E+02  0.49029538576E+02 -0.16438323350E+03  0.19724720982E+03  0.79022052329E+02 0.  0.
          5    1    5    5  501    0  0.11092492592E+03 -0.95791009194E+01 -0.29202906852E+02  0.11519981829E+03  0.47000000000E+01 0. -1.
        -11    1    6    6    0    0 -0.17537517551E+02 -0.20836069910E+01 -0.17698323608E+02  0.25002731820E+02  0.00000000000E+00 0.  1.
         12    1    6    6    0    0  0.74425424162E+02  0.51113145567E+02 -0.14668490989E+03  0.17224447800E+03  0.00000000000E+00 0. -1.
         -5    1    3    3    0  503 -0.14423951759E+02  0.34942561513E+02 -0.84634537662E+01  0.39022468388E+02  0.47000000000E+01 0.  1.
         11    1    4    4    0    0 -0.73192551632E+02 -0.96818633995E+01  0.10632986264E+03  0.12944855264E+03  0.00000000000E+00 0. -1.
        -12    1    4    4    0    0 -0.80196329141E+02 -0.64711135770E+02  0.46848722949E+02  0.11319799089E+03  0.00000000000E+00 0.  1.
</event>
<event>
12    1  0.1066489E+000  0.1907756E+03  0.7818608E-02  0.1157862E+00
         21   -1    0    0  501  502  0.00000000000E+00  0.00000000000E+00  0.68421898530E+02  0.68421898530E+02  0.00000000000E+00 0.  1.
         21   -1    0    0  502  503 -0.00000000000E+00 -0.00000000000E+00 -0.54003399955E+03  0.54003399955E+03  0.00000000000E+00 0.  1.
         -6    2    1    2    0  503  0.48106209092E+02 -0.65579199911E+02 -0.19553954858E+03  0.27287972622E+03  0.17208367473E+03 0.  0.
        -24    2    3    3    0    0  0.20516513809E+02  0.19870800747E+02 -0.40973707205E+02  0.94062548022E+02  0.79706600712E+02 0.  0.
          6    2    1    2  501    0 -0.48106209092E+02  0.65579199911E+02 -0.27607255245E+03  0.33557617187E+03  0.17257020049E+03 0.  0.
         24    2    5    5    0    0 -0.74902084201E+01 -0.29568376842E+02 -0.14591752228E+03  0.16924775352E+03  0.80140418213E+02 0.  0.
          5    1    5    5  501    0 -0.40616000672E+02  0.95147576753E+02 -0.13015503016E+03  0.16632841835E+03  0.47000000000E+01 0. -1.
        -11    1    6    6    0    0  0.18576333048E+02  0.20360695874E+02 -0.65548388626E+02  0.71107167975E+02  0.00000000000E+00 0.  1.
         12    1    6    6    0    0 -0.26066541469E+02 -0.49929072716E+02 -0.80369133655E+02  0.98140585544E+02  0.00000000000E+00 0. -1.
         -5    1    3    3    0  503  0.27589695283E+02 -0.85450000658E+02 -0.15456584137E+03  0.17881717819E+03  0.47000000000E+01 0.  1.
         13    1    4    4    0    0  0.20688819170E+02 -0.90876515710E+01  0.17652252657E+02  0.28674285930E+02  0.00000000000E+00 0. -1.
        -14    1    4    4    0    0 -0.17230536111E+00  0.28958452318E+02 -0.58625959862E+02  0.65388262093E+02  0.00000000000E+00 0.  1.
</event>
<event>
12    1  0.1066489E+000  0.4519130E+03  0.7818608E-02  0.1027293E+00
         21   -1    0    0  503  502  0.00000000000E+00  0.00000000000E+00  0.38638647252E+03  0.38638647252E+03  0.00000000000E+00 0.  1.
         21   -1    0    0  501  503 -0.00000000000E+00 -0.00000000000E+00 -0.57996793585E+03  0.57996793585E+03  0.00000000000E+00 0. -1.
          6    2    1    2  501    0  0.21330711056E+03 -0.35668902008E+03 -0.24351541741E+03  0.51169104332E+03  0.17262961750E+03 0.  0.
         24    2    3    3    0    0  0.14943682683E+03 -0.18247141537E+03 -0.72197266056E+02  0.25909811801E+03  0.79323432158E+02 0.  0.
         -6    2    1    2    0  502 -0.21330711056E+03  0.35668902008E+03  0.49933954091E+02  0.45466336505E+03  0.17747787267E+03 0.  0.
        -24    2    5    5    0    0 -0.19924087105E+02  0.12919374019E+03  0.23258570030E+02  0.15485548950E+03  0.79694854257E+02 0.  0.
          5    1    3    3  501    0  0.63870283727E+02 -0.17421760470E+03 -0.17131815136E+03  0.25259292531E+03  0.47000000000E+01 0.  1.
        -13    1    4    4    0    0 -0.77555704699E+01 -0.45015157776E+01 -0.10411327730E+02  0.13740751898E+02  0.00000000000E+00 0.  1.
         14    1    4    4    0    0  0.15719239730E+03 -0.17796989960E+03 -0.61785938326E+02  0.24535736611E+03  0.00000000000E+00 0. -1.
         -5    1    5    5    0  502 -0.19338302345E+03  0.22749527988E+03  0.26675384061E+02  0.29980787555E+03  0.47000000000E+01 0.  1.
         13    1    6    6    0    0 -0.28573268972E+02  0.33417171006E+02 -0.21314533406E+02  0.48861522205E+02  0.00000000000E+00 0. -1.
        -14    1    6    6    0    0  0.86491818671E+01  0.95776569188E+02  0.44573103436E+02  0.10599396729E+03  0.00000000000E+00 0.  1.
</event>
<event>
12    1  0.1066489E+000  0.4399524E+03  0.7818608E-02  0.1030804E+00
         21   -1    0    0  501  502  0.00000000000E+00  0.00000000000E+00  0.87101312386E+03  0.87101312386E+03  0.00000000000E+00 0.  1.
         21   -1    0    0  502  503 -0.00000000000E+00 -0.00000000000E+00 -0.41929280556E+03  0.41929280556E+03  0.00000000000E+00 0. -1.
         -6    2    1    2    0  503  0.40462431896E+03  0.15042548303E+02  0.66854538415E+03  0.80031932923E+03  0.17207841329E+03 0.  0.
        -24    2    3    3    0    0  0.10535640676E+03 -0.28554368731E+02  0.16677194400E+03  0.21443482723E+03  0.79082800938E+02 0.  0.
          6    2    1    2  501    0 -0.40462431896E+03 -0.15042548303E+02 -0.21682506585E+03  0.48998660019E+03  0.17066529065E+03 0.  0.
         24    2    5    5    0    0 -0.37208817448E+03 -0.11763608092E+02 -0.23883213604E+03  0.45029084116E+03  0.84457447071E+02 0.  0.
          5    1    5    5  501    0 -0.32536144475E+02 -0.32789402111E+01  0.22007070189E+02  0.39695759025E+02  0.47000000000E+01 0. -1.
        -11    1    6    6    0    0 -0.16106501471E+03  0.16983440756E+02 -0.61802208751E+02  0.17334903873E+03  0.00000000000E+00 0.  1.
         12    1    6    6    0    0 -0.21102315977E+03 -0.28747048848E+02 -0.17702992728E+03  0.27694180243E+03  0.00000000000E+00 0. -1.
         -5    1    3    3    0  503  0.29926791220E+03  0.43596917034E+02  0.50177344015E+03  0.58588450200E+03  0.47000000000E+01 0.  1.
         11    1    4    4    0    0 -0.83090449517E+01 -0.17248242662E+02  0.36198948540E+02  0.40950042471E+02  0.00000000000E+00 0. -1.
        -12    1    4    4    0    0  0.11366545171E+03 -0.11306126069E+02  0.13057299546E+03  0.17348478476E+03  0.00000000000E+00 0.  1.
</event>
<event>
12    1  0.1066489E+000  0.2084792E+03  0.7818608E-02  0.1142838E+00
         21   -1    0    0  501  502  0.00000000000E+00  0.00000000000E+00  0.61745898444E+02  0.61745898444E+02  0.00000000000E+00 0.  1.
         21   -1    0    0  502  503 -0.00000000000E+00 -0.00000000000E+00 -0.74497022563E+03  0.74497022563E+03  0.00000000000E+00 0.  1.
         -6    2    1    2    0  503  0.72561305070E+02 -0.93048251876E+02 -0.24596120970E+03  0.32242907238E+03  0.17187341233E+03 0.  0.
        -24    2    3    3    0    0  0.81011338367E+02 -0.91882231816E+01 -0.95199412430E+02  0.14964273903E+03  0.81748154890E+02 0.  0.
          6    2    1    2  501    0 -0.72561305070E+02  0.93048251876E+02 -0.43726311749E+03  0.48428705170E+03  0.17149867159E+03 0.  0.
         24    2    5    5    0    0  0.10510716472E+01  0.60801557216E+02 -0.10222158694E+03  0.13970970405E+03  0.73291298646E+02 0.  0.
          5    1    5    5  501    0 -0.73612376717E+02  0.32246694659E+02 -0.33504153055E+03  0.34457734765E+03  0.47000000000E+01 0. -1.
        -13    1    6    6    0    0  0.33339377255E+02  0.50711320070E+02 -0.73626344839E+02  0.95414834871E+02  0.00000000000E+00 0.  1.
         14    1    6    6    0    0 -0.32288305608E+02  0.10090237146E+02 -0.28595242101E+02  0.44294869178E+02  0.00000000000E+00 0. -1.
         -5    1    3    3    0  503 -0.84500332971E+01 -0.83860028694E+02 -0.15076179727E+03  0.17278633335E+03  0.47000000000E+01 0.  1.
         13    1    4    4    0    0  0.27296792705E+02  0.13473976206E+02  0.76782140481E+01  0.31394552039E+02  0.00000000000E+00 0. -1.
        -14    1    4    4    0    0  0.53714545662E+02 -0.22662199388E+02 -0.10287762648E+03  0.11824818699E+03  0.00000000000E+00 0.  1.
</event>
<event>
12    1  0.1066489E+000  0.2094334E+03  0.7818608E-02  0.1142484E+00
         21   -1    0    0  501  502  0.00000000000E+00  0.00000000000E+00  0.87227276834E+02  0.87227276834E+02  0.00000000000E+00 0. -1.
         21   -1    0    0  502  503 -0.00000000000E+00 -0.00000000000E+00 -0.63292541864E+03  0.63292541864E+03  0.00000000000E+00 0. -1.
         -6    2    1    2    0  503 -0.18208745983E+02  0.12041890982E+03 -0.10492506551E+03  0.23215348053E+03  0.16749237856E+03 0.  0.
        -24    2    3    3    0    0 -0.24670512965E+01  0.71186401443E+02  0.95420351443E+01  0.10646955966E+03  0.78556518549E+02 0.  0.
          6    2    1    2  501    0  0.18208745983E+02 -0.12041890982E+03 -0.44077307630E+03  0.48799921495E+03  0.17038209040E+03 0.  0.
         24    2    5    5    0    0 -0.75584702758E+01 -0.45759867896E+01 -0.25933832177E+03  0.27114859262E+03  0.78658273674E+02 0.  0.
          5    1    5    5  501    0  0.25767216259E+02 -0.11584292303E+03 -0.18143475453E+03  0.21685062232E+03  0.47000000000E+01 0. -1.
        -11    1    6    6    0    0 -0.31488604089E+02 -0.30369201061E+02 -0.13358501007E+03  0.14056591150E+03  0.00000000000E+00 0.  1.
         12    1    6    6    0    0  0.23930133813E+02  0.25793214272E+02 -0.12575331170E+03  0.13058268113E+03  0.00000000000E+00 0. -1.
         -5    1    3    3    0  503 -0.15741694686E+02  0.49232508379E+02 -0.11446710065E+03  0.12568392087E+03  0.47000000000E+01 0.  1.
         13    1    4    4    0    0  0.12873814460E+02 -0.93061084248E+01 -0.14041981501E+02  0.21201792312E+02  0.00000000000E+00 0. -1.
        -14    1    4    4    0    0 -0.15340865756E+02  0.80492509868E+02  0.23584016646E+02  0.85267767346E+02  0.00000000000E+00 0.  1.
</event>
<event>
12    1  0.1066489E+000  0.3185555E+03  0.7818608E-02  0.1076638E+00
         21   -1    0    0  501  502  0.00000000000E+00  0.00000000000E+00  0.38370255120E+03  0.38370255120E+03  0.00000000000E+00 0. -1.
         21   -1    0    0  502  503 -0.00000000000E+00 -0.00000000000E+00 -0.26459856605E+03  0.26459856605E+03  0.00000000000E+00 0. -1.
         -6    2    1    2    0  503  0.52118113138E+02  0.26360375896E+03  0.90816165515E+02  0.33124791794E+03  0.17109753875E+03 0.  0.
        -24    2    3    3    0    0  0.85545005859E+02  0.18120212043E+03  0.32570351918E+02  0.22484278653E+03  0.96650371721E+02 0.  0.
          6    2    1    2  501    0 -0.52118113138E+02 -0.26360375896E+03  0.28287819636E+02  0.31705319931E+03  0.16588939388E+03 0.  0.
         24    2    5    5    0    0 -0.50999188164E+02 -0.88128269062E+02  0.52861488831E+02  0.13979955404E+03  0.79887854557E+02 0.  0.
          5    1    5    5  501    0 -0.11189249740E+01 -0.17547548989E+03 -0.24573669196E+02  0.17725364528E+03  0.47000000000E+01 0. -1.
        -11    1    6    6    0    0 -0.43442773904E+02 -0.40763109245E+02 -0.10335058200E+02  0.60462543014E+02  0.00000000000E+00 0.  1.
         12    1    6    6    0    0 -0.75564142600E+01 -0.47365159818E+02  0.63196547032E+02  0.79337011021E+02  0.00000000000E+00 0. -1.
         -5    1    3    3    0  503 -0.33426892721E+02  0.82401638524E+02  0.58245813597E+02  0.10640513141E+03  0.47000000000E+01 0.  1.
         11    1    4    4    0    0 -0.82460439123E+01  0.83331562230E+01 -0.18266873323E+02  0.21705238857E+02  0.00000000000E+00 0. -1.
        -12    1    4    4    0    0  0.93791049772E+02  0.17286896421E+03  0.50837225241E+02  0.20313754767E+03  0.00000000000E+00 0.  1.
</event>
<event>
12    1  0.1066489E+000  0.1749580E+03  0.7818608E-02  0.1172973E+00
         21   -1    0    0  501  502  0.00000000000E+00  0.00000000000E+00  0.86393860815E+02  0.86393860815E+02  0.00000000000E+00 0.  1.
         21   -1    0    0  502  503 -0.00000000000E+00 -0.00000000000E+00 -0.50012564506E+03  0.50012564506E+03  0.00000000000E+00 0.  1.
         -6    2    1    2    0  503  0.26494472362E+02 -0.16863420423E+02 -0.36641104287E+03  0.40603862485E+03  0.17211618321E+03 0.  0.
        -24    2    3    3    0    0 -0.29481931941E+02 -0.33603677208E+02 -0.11074136679E+03  0.14373599944E+03  0.79987472655E+02 0.  0.
          6    2    1    2  501    0 -0.26494472362E+02  0.16863420423E+02 -0.47320741371E+02  0.18048088102E+03  0.17131189052E+03 0.  0.
         24    2    5    5    0    0 -0.66759366178E+02  0.79982507531E+01  0.16104625820E+02  0.10468694913E+03  0.78607972612E+02 0.  0.
          5    1    5    5  501    0  0.40264893816E+02  0.88651696702E+01 -0.63425367191E+02  0.75793931885E+02  0.47000000000E+01 0. -1.
        -11    1    6    6    0    0 -0.61199574416E+02  0.36777299944E+02  0.33039981001E+00  0.71400748343E+02  0.00000000000E+00 0.  1.
         12    1    6    6    0    0 -0.55597917618E+01 -0.28779049191E+02  0.15774226010E+02  0.33286200789E+02  0.00000000000E+00 0. -1.
         -5    1    3    3    0  503  0.55976404303E+02  0.16740256785E+02 -0.25566967608E+03  0.26230262542E+03  0.47000000000E+01 0.  1.
         13    1    4    4    0    0  0.16827141407E+02  0.31977752490E+00 -0.73282780897E+02  0.75190564046E+02  0.00000000000E+00 0. -1.
        -14    1    4    4    0    0 -0.46309073349E+02 -0.33923454733E+02 -0.37458585896E+02  0.68545435390E+02  0.00000000000E+00 0.  1.
</event>
<event>
12    1  0.1066489E+000  0.2307663E+03  0.7818608E-02  0.1126154E+00
         21   -1    0    0  501  502  0.00000000000E+00  0.00000000000E+00  0.30044430130E+03  0.30044430130E+03  0.00000000000E+00 0. -1.
         21   -1    0    0  502  503 -0.00000000000E+00 -0.00000000000E+00 -0.18231185746E+03  0.18231185746E+03  0.00000000000E+00 0. -1.
         -6    2    1    2    0  503 -0.14967467953E+03  0.20490538819E+02  0.10023736921E+03  0.25159609923E+03  0.17444395973E+03 0.  0.
        -24    2    3    3    0    0 -0.11383923737E+03 -0.22115405832E+02  0.12695012089E+03  0.18966786224E+03  0.80056864977E+02 0.  0.
          6    2    1    2  501    0  0.14967467953E+03 -0.20490538819E+02  0.17895074629E+02  0.23116005953E+03  0.17404702684E+03 0.  0.
         24    2    5    5    0    0  0.62569417723E+01 -0.36121685660E+02  0.29299169407E+02  0.86366676966E+02  0.72504041729E+02 0.  0.
          5    1    5    5  501    0  0.14341773776E+03  0.15631146840E+02 -0.11404094778E+02  0.14479338256E+03  0.47000000000E+01 0. -1.
        -11    1    6    6    0    0  0.37850428569E+02 -0.24986596003E+02  0.64327121118E+01  0.45807910974E+02  0.00000000000E+00 0.  1.
         12    1    6    6    0    0 -0.31593486797E+02 -0.11135089657E+02  0.22866457295E+02  0.40558765993E+02  0.00000000000E+00 0. -1.
         -5    1    3    3    0  503 -0.35835442160E+02  0.42605944651E+02 -0.26712751680E+02  0.61928236991E+02  0.47000000000E+01 0.  1.
         11    1    4    4    0    0 -0.10270861909E+02 -0.34684647651E+02  0.26498749612E+02  0.44840819775E+02  0.00000000000E+00 0. -1.
        -12    1    4    4    0    0 -0.10356837547E+03  0.12569241819E+02  0.10045137128E+03  0.14482704246E+03  0.00000000000E+00 0.  1.
</event>
<event>
12    1  0.1066489E+000  0.2030609E+03  0.7818608E-02  0.1147439E+00
         21   -1    0    0  501  502  0.00000000000E+00  0.00000000000E+00  0.15681358347E+02  0.15681358347E+02  0.00000000000E+00 0.  1.
         21   -1    0    0  502  503 -0.00000000000E+00 -0.00000000000E+00 -0.33954258427E+04  0.33954258427E+04  0.00000000000E+00 0.  1.
         -6    2    1    2    0  503 -0.43282750943E+02 -0.10005193959E+03 -0.87536728048E+03  0.89861093512E+03  0.17131827063E+03 0.  0.
        -24    2    3    3    0    0 -0.35033971103E+02  0.14176095497E+02 -0.42621378873E+03  0.43506262532E+03  0.78695320302E+02 0.  0.
          6    2    1    2  501    0  0.43282750943E+02  0.10005193959E+03 -0.25043772039E+04  0.25124962659E+04  0.16984852025E+03 0.  0.
         24    2    5    5    0    0  0.83359909339E+02  0.11173090324E+03 -0.19145363072E+04  0.19211613775E+04  0.77324625894E+02 0.  0.
          5    1    5    5  501    0 -0.40077158396E+02 -0.11678963647E+02 -0.58984089669E+03  0.59133488839E+03  0.47000000000E+01 0. -1.
        -11    1    6    6    0    0  0.59467997596E+02  0.60190984260E+02 -0.66890511377E+03  0.67423545483E+03  0.00000000000E+00 0.  1.
         12    1    6    6    0    0  0.23891911743E+02  0.51539918976E+02 -0.12456311934E+04  0.12469259227E+04  0.00000000000E+00 0. -1.
         -5    1    3    3    0  503 -0.82487798397E+01 -0.11422803509E+03 -0.44915349175E+03  0.46354830980E+03  0.47000000000E+01 0.  1.
         11    1    4    4    0    0 -0.46357633603E+02 -0.13653971992E+02 -0.34687485239E+03  0.35022510527E+03  0.00000000000E+00 0. -1.
        -12    1    4    4    0    0  0.11323662500E+02  0.27830067489E+02 -0.79338936339E+02  0.84837520050E+02  0.00000000000E+00 0.  1.
</event>
<event>
12    1  0.1066489E+000  0.2313722E+03  0.7818608E-02  0.1125939E+00
         21   -1    0    0  501  502  0.00000000000E+00  0.00000000000E+00  0.40048994859E+03  0.40048994859E+03  0.00000000000E+00 0. -1.
         21   -1    0    0  502  503 -0.00000000000E+00 -0.00000000000E+00 -0.30399305352E+03  0.30399305352E+03  0.00000000000E+00 0. -1.
         -6    2    1    2    0  503 -0.36483144462E+02  0.14791544643E+03  0.31264275895E+03  0.38894550842E+03  0.17413533437E+03 0.  0.
        -24    2    3    3    0    0 -0.75162125610E+02  0.73598099678E+02  0.25051940370E+03  0.28453989134E+03  0.84480487281E+02 0.  0.
          6    2    1    2  501    0  0.36483144462E+02 -0.14791544643E+03 -0.21614586389E+03  0.31553749369E+03  0.17214783277E+03 0.  0.
         24    2    5    5    0    0 -0.42343227326E+02 -0.10022910495E+03 -0.11385221137E+03  0.17779256494E+03  0.82516954222E+02 0.  0.
          5    1    5    5  501    0  0.78826371787E+02 -0.47686341482E+02 -0.10229365251E+03  0.13774492876E+03  0.47000000000E+01 0. -1.
        -11    1    6    6    0    0  0.23325782542E+02 -0.36336329524E+02 -0.23706489113E+02  0.49258690609E+02  0.00000000000E+00 0.  1.
         12    1    6    6    0    0 -0.65669009868E+02 -0.63892775421E+02 -0.90145722258E+02  0.12853387433E+03  0.00000000000E+00 0. -1.
         -5    1    3    3    0  503  0.38678981148E+02  0.74317346749E+02  0.62123355246E+02  0.10440561708E+03  0.47000000000E+01 0.  1.
         11    1    4    4    0    0  0.54284133420E+01  0.72170494020E+01 -0.36659222789E+01  0.97464075247E+01  0.00000000000E+00 0. -1.
        -12    1    4    4    0    0 -0.80590538952E+02  0.66381050276E+02  0.25418532598E+03  0.27479348382E+03  0.00000000000E+00 0.  1.
</event>
<event>
12    1  0.1066489E+000  0.2015183E+03  0.7818608E-02  0.1148740E+00
         21   -1    0    0  501  502  0.00000000000E+00  0.00000000000E+00  0.91829931288E+02  0.91829931288E+02  0.00000000000E+00 0. -1.
         21   -1    0    0  502  503 -0.00000000000E+00 -0.00000000000E+00 -0.57310780929E+03  0.57310780929E+03  0.00000000000E+00 0. -1.
         -6    2    1    2    0  503 -0.75861135049E+02 -0.68475023332E+02 -0.40065598326E+03  0.44789049693E+03  0.17215382567E+03 0.  0.
        -24    2    3    3    0    0  0.16972288068E+02  0.59809163247E+01 -0.16444692955E+03  0.18335592745E+03  0.79074481163E+02 0.  0.
          6    2    1    2  501    0  0.75861135049E+02  0.68475023332E+02 -0.80621894747E+02  0.21704724365E+03  0.17368326180E+03 0.  0.
         24    2    5    5    0    0  0.43330236466E+01  0.95154240671E+02 -0.50598013883E+02  0.13487927677E+03  0.80988614514E+02 0.  0.
          5    1    5    5  501    0  0.71528111402E+02 -0.26679217339E+02 -0.30023880864E+02  0.82167966877E+02  0.47000000000E+01 0. -1.
        -13    1    6    6    0    0  0.78827964419E+01  0.65511240283E+02  0.10559883890E+02  0.66823440730E+02  0.00000000000E+00 0.  1.
         14    1    6    6    0    0 -0.35497727952E+01  0.29643000388E+02 -0.61157897773E+02  0.68055836038E+02  0.00000000000E+00 0. -1.
         -5    1    3    3    0  503 -0.92833423117E+02 -0.74455939656E+02 -0.23620905370E+03  0.26453456948E+03  0.47000000000E+01 0.  1.
         13    1    4    4    0    0 -0.21165170284E+02  0.11061868023E+02 -0.13189062583E+02  0.27281508923E+02  0.00000000000E+00 0. -1.
        -14    1    4    4    0    0  0.38137458352E+02 -0.50809516983E+01 -0.15125786697E+03  0.15607441853E+03  0.00000000000E+00 0.  1.
</event>
<event>
12    1  0.1066489E+000  0.3086648E+03  0.7818608E-02  0.1080990E+00
         21   -1    0    0  503  502  0.00000000000E+00  0.00000000000E+00  0.38253341286E+03  0.38253341286E+03  0.00000000000E+00 0.  1.
         21   -1    0    0  501  503 -0.00000000000E+00 -0.00000000000E+00 -0.24908569244E+03  0.24908569244E+03  0.00000000000E+00 0.  1.
          6    2    1    2  501    0  0.10301726282E+03 -0.23418213736E+03  0.70859651482E+02  0.31667269681E+03  0.17264610277E+03 0.  0.
         24    2    3    3    0    0  0.86457368019E+02 -0.78687936632E+02 -0.47517951228E+01  0.14291465402E+03  0.82069183751E+02 0.  0.
         -6    2    1    2    0  502 -0.10301726282E+03  0.23418213736E+03  0.62588068945E+02  0.31494640849E+03  0.17268510055E+03 0.  0.
        -24    2    5    5    0    0 -0.13807413207E+03  0.22444377527E+03  0.48238556371E+02  0.27555328359E+03  0.64522705855E+02 0.  0.
          5    1    3    3  501    0  0.16559894798E+02 -0.15549420072E+03  0.75611446604E+02  0.17375804278E+03  0.47000000000E+01 0. -1.
        -11    1    4    4    0    0  0.10084929992E+03 -0.70141766210E+02 -0.14254010990E+02  0.12366739866E+03  0.00000000000E+00 0.  1.
         12    1    4    4    0    0 -0.14391931901E+02 -0.85461704219E+01  0.95022158676E+01  0.19247255366E+02  0.00000000000E+00 0. -1.
         -5    1    5    5    0  502  0.35056869258E+02  0.97383620849E+01  0.14349512574E+02  0.39393124900E+02  0.47000000000E+01 0.  1.
         11    1    6    6    0    0 -0.13551745099E+03  0.20483789269E+03  0.27899997488E+02  0.24718808965E+03  0.00000000000E+00 0. -1.
        -12    1    6    6    0    0 -0.25566810854E+01  0.19605882582E+02  0.20338558883E+02  0.28365193943E+02  0.00000000000E+00 0.  1.
</event>
<event>
12    1  0.1066489E+000  0.1967263E+03  0.7818608E-02  0.1152648E+00
         21   -1    0    0  503  502  0.00000000000E+00  0.00000000000E+00  0.40295363222E+03  0.40295363222E+03  0.00000000000E+00 0.  1.
         21   -1    0    0  501  503 -0.00000000000E+00 -0.00000000000E+00 -0.13196403855E+03  0.13196403855E+03  0.00000000000E+00 0.  1.
          6    2    1    2  501    0  0.85137519701E+02  0.40765320715E+02  0.27541174061E+03  0.33814167396E+03  0.17198242981E+03 0.  0.
         24    2    3    3    0    0  0.10076557526E+03 -0.16193954386E+00  0.26188491829E+03  0.29205109276E+03  0.80971618315E+02 0.  0.
         -6    2    1    2    0  502 -0.85137519701E+02 -0.40765320715E+02 -0.44221469493E+01  0.19677599681E+03  0.17260077898E+03 0.  0.
        -24    2    5    5    0    0 -0.12165080265E+03 -0.32430996889E+02  0.21564072873E+02  0.15094964625E+03  0.80436926332E+02 0.  0.
          5    1    3    3  501    0 -0.15628055555E+02  0.40927260259E+02  0.13526822320E+02  0.46090581194E+02  0.47000000000E+01 0. -1.
        -11    1    4    4    0    0  0.59126506642E+02  0.40005878906E+02  0.14738458996E+03  0.16376395053E+03  0.00000000000E+00 0.  1.
         12    1    4    4    0    0  0.41639068614E+02 -0.40167818450E+02  0.11450032833E+03  0.12828714223E+03  0.00000000000E+00 0. -1.
         -5    1    5    5    0  502  0.36513282952E+02 -0.83343238267E+01 -0.25986219822E+02  0.45826350566E+02  0.47000000000E+01 0.  1.
         11    1    6    6    0    0 -0.27691113738E+02  0.37095090968E+01  0.39813667848E+02  0.48638322188E+02  0.00000000000E+00 0. -1.
        -12    1    6    6    0    0 -0.93959688914E+02 -0.36140505985E+02 -0.18249594975E+02  0.10231132406E+03  0.00000000000E+00 0.  1.
</event>
<event>
12    1  0.1066489E+000  0.2351734E+03  0.7818608E-02  0.1123569E+00
         21   -1    0    0  503  502  0.00000000000E+00  0.00000000000E+00  0.70175810811E+03  0.70175810811E+03  0.00000000000E+00 0. -1.
         21   -1    0    0  501  503 -0.00000000000E+00 -0.00000000000E+00 -0.98271034971E+02  0.98271034971E+02  0.00000000000E+00 0. -1.
          6    2    1    2  501    0  0.71821058820E+02 -0.14217436179E+03  0.48274562785E+03  0.53567137428E+03  0.16890431129E+03 0.  0.
         24    2    3    3    0    0  0.19960594316E+02 -0.14870453192E+03  0.26120537537E+03  0.30799984692E+03  0.64219891316E+02 0.  0.
         -6    2    1    2    0  502 -0.71821058820E+02  0.14217436179E+03  0.12074144529E+03  0.26435776880E+03  0.17301653006E+03 0.  0.
        -24    2    5    5    0    0 -0.16093198230E+02  0.60324840413E+02  0.12957546278E+03  0.16483355838E+03  0.80512260010E+02 0.  0.
          5    1    3    3  501    0  0.51860464504E+02  0.65301701337E+01  0.22154025248E+03  0.22767152736E+03  0.47000000000E+01 0. -1.
        -13    1    4    4    0    0  0.21651963273E+02 -0.17846904431E+02  0.23286007846E+02  0.36463100153E+02  0.00000000000E+00 0.  1.
         14    1    4    4    0    0 -0.16913689577E+01 -0.13085762749E+03  0.23791936752E+03  0.27153674676E+03  0.00000000000E+00 0. -1.
         -5    1    5    5    0  502 -0.55727860589E+02  0.81849521375E+02 -0.88340174955E+01  0.99524210423E+02  0.47000000000E+01 0.  1.
         13    1    6    6    0    0 -0.33506162253E+02 -0.32961922249E+01  0.28352679587E+02  0.44015931569E+02  0.00000000000E+00 0. -1.
        -14    1    6    6    0    0  0.17412964022E+02  0.63621032638E+02  0.10122278320E+03  0.12081762681E+03  0.00000000000E+00 0.  1.
</event>
<event>
12    1  0.1066489E+000  0.2676578E+03  0.7818608E-02  0.1102674E+00
         21   -1    0    0  501  502  0.00000000000E+00  0.00000000000E+00  0.54620028264E+03  0.54620028264E+03  0.00000000000E+00 0. -1.
         21   -1    0    0  502  503 -0.00000000000E+00 -0.00000000000E+00 -0.13552306841E+03  0.13552306841E+03  0.00000000000E+00 0. -1.
         -6    2    1    2    0  503 -0.27040011393E+02 -0.20227371362E+03  0.26745076601E+03  0.37815373135E+03  0.17269775579E+03 0.  0.
        -24    2    3    3    0    0  0.25220759295E+02 -0.15913955469E+03  0.25046045373E+03  0.30813584413E+03  0.79093457313E+02 0.  0.
          6    2    1    2  501    0  0.27040011393E+02  0.20227371362E+03  0.14322644822E+03  0.30356961970E+03  0.17319030314E+03 0.  0.
         24    2    5    5    0    0 -0.50253143979E+02  0.11913376136E+03  0.69737016132E+02  0.16825786797E+03  0.82031866607E+02 0.  0.
          5    1    5    5  501    0  0.77293155372E+02  0.83139952256E+02  0.73489432086E+02  0.13531175173E+03  0.47000000000E+01 0. -1.
        -11    1    6    6    0    0 -0.17307917418E+02  0.49808057557E+02 -0.14109146082E+02  0.54584563808E+02  0.00000000000E+00 0.  1.
         12    1    6    6    0    0 -0.32945226561E+02  0.69325703805E+02  0.83846162214E+02  0.11367330416E+03  0.00000000000E+00 0. -1.
         -5    1    3    3    0  503 -0.52260770688E+02 -0.43134158931E+02  0.16990312287E+02  0.70017887223E+02  0.47000000000E+01 0.  1.
         13    1    4    4    0    0  0.66310722893E+00 -0.24246421047E+02  0.10690797127E+03  0.10962501067E+03  0.00000000000E+00 0. -1.
        -14    1    4    4    0    0  0.24557652066E+02 -0.13489313364E+03  0.14355248246E+03  0.19851083345E+03  0.00000000000E+00 0.  1.
</event>
<event>
12    1  0.1066489E+000  0.5559059E+03  0.7818608E-02  0.1000145E+00
         21   -1    0    0  501  502  0.00000000000E+00  0.00000000000E+00  0.49357471772E+03  0.49357471772E+03  0.00000000000E+00 0.  1.
         21   -1    0    0  502  503 -0.00000000000E+00 -0.00000000000E+00 -0.65409954248E+03  0.65409954248E+03  0.00000000000E+00 0.  1.
         -6    2    1    2    0  503 -0.52495523463E+03 -0.62594442201E+02 -0.19933905640E+03  0.59041498808E+03  0.17134099388E+03 0.  0.
        -24    2    3    3    0    0 -0.39898907246E+03  0.27298475640E+01 -0.10444735979E+03  0.41964830242E+03  0.77432000804E+02 0.  0.
          6    2    1    2  501    0  0.52495523463E+03  0.62594442201E+02  0.38814231638E+02  0.55725927212E+03  0.17185834057E+03 0.  0.
         24    2    5    5    0    0  0.27051376091E+03 -0.83343448995E+01  0.75797756280E+02  0.29049865380E+03  0.73464357738E+02 0.  0.
          5    1    5    5  501    0  0.25444147372E+03  0.70928787101E+02 -0.36983524642E+02  0.26676061832E+03  0.47000000000E+01 0. -1.
        -13    1    6    6    0    0  0.11405823067E+03  0.16257751834E+02  0.63730586940E+02  0.13166313907E+03  0.00000000000E+00 0.  1.
         14    1    6    6    0    0  0.15645553024E+03 -0.24592096733E+02  0.12067169340E+02  0.15883551473E+03  0.00000000000E+00 0. -1.
         -5    1    3    3    0  503 -0.12596616217E+03 -0.65324289765E+02 -0.94891696615E+02  0.17076668566E+03  0.47000000000E+01 0.  1.
         13    1    4    4    0    0 -0.31140740654E+03  0.33675888461E+02 -0.73393704750E+02  0.32170681406E+03  0.00000000000E+00 0. -1.
        -14    1    4    4    0    0 -0.87581665917E+02 -0.30946040897E+02 -0.31053655036E+02  0.97941488365E+02  0.00000000000E+00 0.  1.
</event>
<event>
12    1  0.1066489E+000  0.2025870E+03  0.7818608E-02  0.1147603E+00
         21   -1    0    0  503  502  0.00000000000E+00  0.00000000000E+00  0.18312628645E+03  0.18312628645E+03  0.00000000000E+00 0. -1.
         21   -1    0    0  501  503 -0.00000000000E+00 -0.00000000000E+00 -0.22781177215E+03  0.22781177215E+03  0.00000000000E+00 0. -1.
          6    2    1    2  501    0 -0.10621630244E+03  0.68807883040E+01  0.43732690281E+01  0.20249563162E+03  0.17220948636E+03 0.  0.
         24    2    3    3    0    0 -0.14340809208E+03  0.31141996803E+01  0.86335323069E+01  0.16457919390E+03  0.80225894019E+02 0.  0.
         -6    2    1    2    0  502  0.10621630244E+03 -0.68807883040E+01 -0.49058754737E+02  0.20844242698E+03  0.17237237539E+03 0.  0.
        -24    2    5    5    0    0  0.10136419043E+03  0.11258645841E+02 -0.94266097753E+02  0.15926544126E+03  0.77961063257E+02 0.  0.
          5    1    3    3  501    0  0.37191789642E+02  0.37665886237E+01 -0.42602632788E+01  0.37916437726E+02  0.47000000000E+01 0. -1.
        -13    1    4    4    0    0 -0.98394385580E+02  0.18606520543E+02 -0.28600343451E+02  0.10414238986E+03  0.00000000000E+00 0.  1.
         14    1    4    4    0    0 -0.45013706498E+02 -0.15492320862E+02  0.37233875758E+02  0.60436804038E+02  0.00000000000E+00 0. -1.
         -5    1    5    5    0  502  0.48521120012E+01 -0.18139434145E+02  0.45207343015E+02  0.49176985720E+02  0.47000000000E+01 0.  1.
         11    1    6    6    0    0 -0.10254345204E+02  0.52212276378E+01  0.20789531352E+01  0.11693368195E+02  0.00000000000E+00 0. -1.
        -12    1    6    6    0    0  0.11161853564E+03  0.60374182031E+01 -0.96345050888E+02  0.14757207306E+03  0.00000000000E+00 0.  1.
</event>
<event>
12    1  0.1066489E+000  0.2482355E+03  0.7818608E-02  0.1114553E+00
         21   -1    0    0  503  502  0.00000000000E+00  0.00000000000E+00  0.45422321888E+03  0.45422321888E+03  0.00000000000E+00 0.  1.
         21   -1    0    0  501  503 -0.00000000000E+00 -0.00000000000E+00 -0.13523918282E+03  0.13523918282E+03  0.00000000000E+00 0.  1.
          6    2    1    2  501    0  0.97546952927E+02  0.14892078156E+03  0.15609674760E+03  0.29255645764E+03  0.17184376360E+03 0.  0.
         24    2    3    3    0    0  0.41508024254E+02  0.15610503227E+03  0.15154687924E+03  0.23568145182E+03  0.80545595458E+02 0.  0.
         -6    2    1    2    0  502 -0.97546952927E+02 -0.14892078156E+03  0.16288728846E+03  0.29690594406E+03  0.17299729383E+03 0.  0.
        -24    2    5    5    0    0 -0.77967933039E+02 -0.17540951610E+03  0.10928601417E+03  0.23381729466E+03  0.76678533303E+02 0.  0.
          5    1    3    3  501    0  0.56038928672E+02 -0.71842507067E+01  0.45498683586E+01  0.56875005820E+02  0.47000000000E+01 0. -1.
        -11    1    4    4    0    0 -0.83903461748E+01  0.29273712901E+02  0.71269388738E+02  0.77502735094E+02  0.00000000000E+00 0.  1.
         12    1    4    4    0    0  0.49898370429E+02  0.12683131936E+03  0.80277490499E+02  0.15817871672E+03  0.00000000000E+00 0. -1.
         -5    1    5    5    0  502 -0.19579019888E+02  0.26488734542E+02  0.53601274292E+02  0.63088649400E+02  0.47000000000E+01 0.  1.
         13    1    6    6    0    0 -0.32349491960E+02 -0.12590240891E+03  0.10365957165E+03  0.16626248222E+03  0.00000000000E+00 0. -1.
        -14    1    6    6    0    0 -0.45618441078E+02 -0.49507107195E+02  0.56264425212E+01  0.67554812446E+02  0.00000000000E+00 0.  1.
</event>
<event>
12    1  0.1066489E+000  0.3159031E+03  0.7818608E-02  0.1077688E+00
         21   -1    0    0  501  502  0.00000000000E+00  0.00000000000E+00  0.80363420901E+02  0.80363420901E+02  0.00000000000E+00 0.  1.
         21   -1    0    0  502  503 -0.00000000000E+00 -0.00000000000E+00 -0.16670138185E+04  0.16670138185E+04  0.00000000000E+00 0.  1.
         -6    2    1    2    0  503 -0.18095886368E+02  0.26356168154E+03 -0.34858185465E+03  0.46964154524E+03  0.17106037104E+03 0.  0.
        -24    2    3    3    0    0  0.35120617975E+02  0.21687754581E+03 -0.21125121173E+03  0.31506729011E+03  0.79818513866E+02 0.  0.
          6    2    1    2  501    0  0.18095886368E+02 -0.26356168154E+03 -0.12380685430E+04  0.12777356942E+04  0.17321248806E+03 0.  0.
         24    2    5    5    0    0  0.72996041142E+02 -0.17953257899E+03 -0.74999250729E+03  0.77942331858E+03  0.86322532532E+02 0.  0.
          5    1    5    5  501    0 -0.54900154774E+02 -0.84029102555E+02 -0.48807603571E+03  0.49831237563E+03  0.47000000000E+01 0. -1.
        -13    1    6    6    0    0 -0.86122098117E+01 -0.62313113061E+01 -0.13192245775E+03  0.13235004442E+03  0.00000000000E+00 0.  1.
         14    1    6    6    0    0  0.81608250954E+02 -0.17330126768E+03 -0.61807004953E+03  0.64707327416E+03  0.00000000000E+00 0. -1.
         -5    1    3    3    0  503 -0.53216504342E+02  0.46684135731E+02 -0.13733064292E+03  0.15457425512E+03  0.47000000000E+01 0.  1.
         11    1    4    4    0    0 -0.18360202126E+02  0.21703846119E+02 -0.44705667134E+02  0.52978775301E+02  0.00000000000E+00 0. -1.
        -12    1    4    4    0    0  0.53480820100E+02  0.19517369969E+03 -0.16654554460E+03  0.26208851481E+03  0.00000000000E+00 0.  1.
</event>
<event>
12    1  0.1066489E+000  0.1986820E+03  0.7818608E-02  0.1151692E+00
         21   -1    0    0  503  502  0.00000000000E+00  0.00000000000E+00  0.28244856200E+03  0.28244856200E+03  0.00000000000E+00 0. -1.
         21   -1    0    0  501  503 -0.00000000000E+00 -0.00000000000E+00 -0.13865018717E+03  0.13865018717E+03  0.00000000000E+00 0. -1.
          6    2    1    2  501    0  0.24346884959E+02  0.89046277473E+02  0.93910110457E+02  0.21624908249E+03  0.17153001630E+03 0.  0.
         24    2    3    3    0    0  0.19969905569E+02  0.50021878836E+02  0.12966759388E+03  0.16293164390E+03  0.82656216883E+02 0.  0.
         -6    2    1    2    0  502 -0.24346884959E+02 -0.89046277473E+02  0.49888264367E+02  0.20484966668E+03  0.17593333021E+03 0.  0.
        -24    2    5    5    0    0 -0.78995176083E+02 -0.30999264675E+02  0.45715216602E+02  0.12487844845E+03  0.79394921779E+02 0.  0.
          5    1    3    3  501    0  0.43769793907E+01  0.39024398637E+02 -0.35757483422E+02  0.53317438594E+02  0.47000000000E+01 0. -1.
        -13    1    4    4    0    0 -0.28969901906E+02  0.47858426062E+00  0.35932210991E+02  0.46158510007E+02  0.00000000000E+00 0.  1.
         14    1    4    4    0    0  0.48939807475E+02  0.49543294575E+02  0.93735382888E+02  0.11677313389E+03  0.00000000000E+00 0. -1.
         -5    1    5    5    0  502  0.54648291124E+02 -0.58047012798E+02  0.41730477654E+01  0.79971218230E+02  0.47000000000E+01 0.  1.
         13    1    6    6    0    0 -0.28548474303E+02  0.26422001023E+02  0.22778430432E+02  0.45077648742E+02  0.00000000000E+00 0. -1.
        -14    1    6    6    0    0 -0.50446701780E+02 -0.57421265698E+02  0.22936786170E+02  0.79800799711E+02  0.00000000000E+00 0.  1.
</event>
<event>
12    1  0.1066489E+000  0.2171096E+03  0.7818608E-02  0.1136671E+00
         21   -1    0    0  501  502  0.00000000000E+00  0.00000000000E+00  0.14880350413E+03  0.14880350413E+03  0.00000000000E+00 0.  1.
         21   -1    0    0  502  503 -0.00000000000E+00 -0.00000000000E+00 -0.33517070217E+03  0.33517070217E+03  0.00000000000E+00 0.  1.
         -6    2    1    2    0  503 -0.87829631151E+02  0.96875975515E+02 -0.30343373416E+02  0.21921972200E+03  0.17331349475E+03 0.  0.
        -24    2    3    3    0    0  0.10141664652E+02  0.23398128860E+02  0.21609637491E+02  0.86108587632E+02  0.79356074975E+02 0.  0.
          6    2    1    2  501    0  0.87829631151E+02 -0.96875975515E+02 -0.15602382462E+03  0.26475448430E+03  0.16927050648E+03 0.  0.
         24    2    5    5    0    0  0.97439487509E+02 -0.64907606994E+02 -0.41575548645E+02  0.14544470348E+03  0.75618677276E+02 0.  0.
          5    1    5    5  501    0 -0.96098563573E+01 -0.31968368520E+02 -0.11444827598E+03  0.11930978082E+03  0.47000000000E+01 0. -1.
        -11    1    6    6    0    0  0.81245755226E+01 -0.39326668704E+02  0.67520160464E+01  0.40720821694E+02  0.00000000000E+00 0.  1.
         12    1    6    6    0    0  0.89314911986E+02 -0.25580938291E+02 -0.48327564691E+02  0.10472388178E+03  0.00000000000E+00 0. -1.
         -5    1    3    3    0  503 -0.97971295804E+02  0.73477846655E+02 -0.51953010907E+02  0.13311113437E+03  0.47000000000E+01 0.  1.
         13    1    4    4    0    0 -0.19023885151E+02 -0.32867033257E+01  0.38539644393E+02  0.43104695973E+02  0.00000000000E+00 0. -1.
        -14    1    4    4    0    0  0.29165549804E+02  0.26684832186E+02 -0.16930006902E+02  0.43003891659E+02  0.00000000000E+00 0.  1.
</event>
<event>
12    1  0.1066489E+000  0.4615912E+03  0.7818608E-02  0.1024411E+00
         21   -1    0    0  503  502  0.00000000000E+00  0.00000000000E+00  0.12667288334E+03  0.12667288334E+03  0.00000000000E+00 0. -1.
         21   -1    0    0  501  503 -0.00000000000E+00 -0.00000000000E+00 -0.20734560076E+04  0.20734560076E+04  0.00000000000E+00 0.  1.
          6    2    1    2  501    0 -0.43295779275E+02  0.42535792464E+03 -0.49372530095E+03  0.67589281116E+03  0.17396129115E+03 0.  0.
         24    2    3    3    0    0 -0.23382756887E+02  0.16988279537E+03 -0.12663872475E+03  0.22818898656E+03  0.81399812630E+02 0.  0.
         -6    2    1    2    0  502  0.43295779275E+02 -0.42535792464E+03 -0.14530578233E+04  0.15242360798E+04  0.17063030354E+03 0.  0.
        -24    2    5    5    0    0 -0.37799754783E+02 -0.19563976626E+03 -0.74977478430E+03  0.77994041213E+03  0.80256337431E+02 0.  0.
          5    1    3    3  501    0 -0.19913022388E+02  0.25547512926E+03 -0.36708657620E+03  0.44770382460E+03  0.47000000000E+01 0. -1.
        -13    1    4    4    0    0  0.24088903904E+02  0.84166577420E+02 -0.84008823199E+02  0.12133330302E+03  0.00000000000E+00 0.  1.
         14    1    4    4    0    0 -0.47471660791E+02  0.85716217951E+02 -0.42629901551E+02  0.10685568354E+03  0.00000000000E+00 0. -1.
         -5    1    5    5    0  502  0.81095534058E+02 -0.22971815837E+03 -0.70328303898E+03  0.74429566762E+03  0.47000000000E+01 0.  1.
         13    1    6    6    0    0 -0.46797136843E+02 -0.19013779975E+03 -0.74031461590E+03  0.76577286804E+03  0.00000000000E+00 0. -1.
        -14    1    6    6    0    0  0.89973820599E+01 -0.55019665122E+01 -0.94601684018E+01  0.14167544093E+02  0.00000000000E+00 0.  1.
</event>
<event>
12    1  0.1066489E+000  0.1804919E+03  0.7818608E-02  0.1167580E+00
         21   -1    0    0  501  502  0.00000000000E+00  0.00000000000E+00  0.74770664350E+02  0.74770664350E+02  0.00000000000E+00 0.  1.
         21   -1    0    0  502  503 -0.00000000000E+00 -0.00000000000E+00 -0.43378619483E+03  0.43378619483E+03  0.00000000000E+00 0.  1.
         -6    2    1    2    0  503  0.51969520330E+02  0.20861145666E+02 -0.18847659465E+03  0.26024078598E+03  0.17048701274E+03 0.  0.
        -24    2    3    3    0    0  0.38382156018E+02 -0.50382985511E+02 -0.13879253638E+03  0.17220137240E+03  0.79864318524E+02 0.  0.
          6    2    1    2  501    0 -0.51969520330E+02 -0.20861145666E+02 -0.17053893583E+03  0.24831607321E+03  0.17158474622E+03 0.  0.
         24    2    5    5    0    0 -0.50545979741E+02  0.51550509329E+02 -0.11037931879E+03  0.15404654595E+03  0.79588901374E+02 0.  0.
          5    1    5    5  501    0 -0.14235405893E+01 -0.72411654994E+02 -0.60159617043E+02  0.94269527259E+02  0.47000000000E+01 0. -1.
        -11    1    6    6    0    0  0.16594183369E+01  0.37045924049E+02 -0.87869295314E+02  0.95373828784E+02  0.00000000000E+00 0.  1.
         12    1    6    6    0    0 -0.52205398078E+02  0.14504585280E+02 -0.22510023477E+02  0.58672717165E+02  0.00000000000E+00 0. -1.
         -5    1    3    3    0  503  0.13587364312E+02  0.71244131177E+02 -0.49684058272E+02  0.88039413574E+02  0.47000000000E+01 0.  1.
         11    1    4    4    0    0  0.48070207289E+02  0.23375307053E+01 -0.71069169101E+02  0.85831437570E+02  0.00000000000E+00 0. -1.
        -12    1    4    4    0    0 -0.96880512712E+01 -0.52720516216E+02 -0.67723367277E+02  0.86369934832E+02  0.00000000000E+00 0.  1.
</event>
<event>
12    1  0.1066489E+000  0.2358721E+03  0.7818608E-02  0.1122862E+00
         21   -1    0    0  501  502  0.00000000000E+00  0.00000000000E+00  0.95052714150E+03  0.95052714150E+03  0.00000000000E+00 0.  1.
         21   -1    0    0  502  503 -0.00000000000E+00 -0.00000000000E+00 -0.58391934325E+02  0.58391934325E+02  0.00000000000E+00 0.  1.
         -6    2    1    2    0  503  0.63878099924E+02  0.14833097419E+03  0.48252189476E+03  0.53708754680E+03  0.17191033840E+03 0.  0.
        -24    2    3    3    0    0  0.87449584735E+02  0.14017707450E+03  0.29290223332E+03  0.34577678657E+03  0.80453873486E+02 0.  0.
          6    2    1    2  501    0 -0.63878099924E+02 -0.14833097419E+03  0.40961331242E+03  0.47183152903E+03  0.16958607409E+03 0.  0.
         24    2    5    5    0    0 -0.54120614391E+02 -0.16076916426E+03  0.41483536032E+03  0.45453190821E+03  0.75730537618E+02 0.  0.
          5    1    5    5  501    0 -0.97574855330E+01  0.12438190078E+02 -0.52220479003E+01  0.17299620823E+02  0.47000000000E+01 0. -1.
        -11    1    6    6    0    0 -0.38393792622E+02 -0.27344542234E+02  0.69431351683E+02  0.83919722941E+02  0.00000000000E+00 0.  1.
         12    1    6    6    0    0 -0.15726821769E+02 -0.13342462203E+03  0.34540400864E+03  0.37061218527E+03  0.00000000000E+00 0. -1.
         -5    1    3    3    0  503 -0.23571484811E+02  0.81538996892E+01  0.18961966144E+03  0.19131076023E+03  0.47000000000E+01 0.  1.
         13    1    4    4    0    0  0.31649317742E+02  0.11807029582E+03  0.17483575314E+03  0.21333029472E+03  0.00000000000E+00 0. -1.
        -14    1    4    4    0    0  0.55800266993E+02  0.22106778672E+02  0.11806648018E+03  0.13244649185E+03  0.00000000000E+00 0.  1.
</event>
<event>
12    1  0.1066489E+000  0.3159939E+03  0.7818608E-02  0.1077597E+00
         21   -1    0    0  501  502  0.00000000000E+00  0.00000000000E+00  0.75931236803E+03  0.75931236803E+03  0.00000000000E+00 0. -1.
         21   -1    0    0  502  503 -0.00000000000E+00 -0.00000000000E+00 -0.14241314167E+03  0.14241314167E+03  0.00000000000E+00 0. -1.
         -6    2    1    2    0  503 -0.23692037669E+02  0.26368939972E+03  0.18153051676E+03  0.36376822745E+03  0.17111569950E+03 0.  0.
        -24    2    3    3    0    0 -0.43167720125E+02  0.80412875258E+02  0.12092888674E+03  0.16969547257E+03  0.76440010440E+02 0.  0.
          6    2    1    2  501    0  0.23692037669E+02 -0.26368939972E+03  0.43536870960E+03  0.53795728225E+03  0.17250713626E+03 0.  0.
         24    2    5    5    0    0 -0.18552151542E+02 -0.16879044211E+03  0.37111059301E+03  0.41572152960E+03  0.79163894936E+02 0.  0.
          5    1    5    5  501    0  0.42244189212E+02 -0.94898957610E+02  0.64258116592E+02  0.12223575265E+03  0.47000000000E+01 0. -1.
        -11    1    6    6    0    0  0.58444382104E+01 -0.12752495388E+03  0.32514165715E+03  0.34930483611E+03  0.00000000000E+00 0.  1.
         12    1    6    6    0    0 -0.24396589752E+02 -0.41265488227E+02  0.45968935859E+02  0.66416693490E+02  0.00000000000E+00 0. -1.
         -5    1    3    3    0  503  0.19475682456E+02  0.18327652446E+03  0.60601630023E+02  0.19407275488E+03  0.47000000000E+01 0.  1.
         13    1    4    4    0    0 -0.11747567757E+02  0.82783191033E+02  0.10548818386E+03  0.13460616256E+03  0.00000000000E+00 0. -1.
        -14    1    4    4    0    0 -0.31420152368E+02 -0.23703157745E+01  0.15440702880E+02  0.35089310012E+02  0.00000000000E+00 0.  1.
</event>
<event>
12    1  0.1066489E+000  0.2061342E+03  0.7818608E-02  0.1144691E+00
         21   -1    0    0  501  502  0.00000000000E+00  0.00000000000E+00  0.98380535650E+03  0.98380535650E+03  0.00000000000E+00 0.  1.
         21   -1    0    0  502  503 -0.00000000000E+00 -0.00000000000E+00 -0.43260386859E+02  0.43260386859E+02  0.00000000000E+00 0.  1.
         -6    2    1    2    0  503 -0.91103167102E+02  0.68377459918E+02  0.44612133963E+03  0.49144233111E+03  0.17180236044E+03 0.  0.
        -24    2    3    3    0    0 -0.48254354376E+02  0.62937613385E+01  0.37959563512E+03  0.39075387228E+03  0.78915450643E+02 0.  0.
          6    2    1    2  501    0  0.91103167102E+02 -0.68377459918E+02  0.49442363001E+03  0.53562341225E+03  0.17164629258E+03 0.  0.
         24    2    5    5    0    0  0.35167360434E+02  0.27848731553E+02  0.18292967077E+03  0.20480794853E+03  0.80440886646E+02 0.  0.
          5    1    5    5  501    0  0.55935806668E+02 -0.96226191471E+02  0.31149395924E+03  0.33081546372E+03  0.47000000000E+01 0. -1.
        -11    1    6    6    0    0  0.21772837145E+02 -0.15815519951E+02  0.13849942252E+03  0.14108960680E+03  0.00000000000E+00 0.  1.
         12    1    6    6    0    0  0.13394523289E+02  0.43664251504E+02  0.44430248257E+02  0.63718341737E+02  0.00000000000E+00 0. -1.
         -5    1    3    3    0  503 -0.42848812726E+02  0.62083698580E+02  0.66525704512E+02  0.10068845883E+03  0.47000000000E+01 0.  1.
         11    1    4    4    0    0 -0.42551350504E+02 -0.21319091615E+02  0.11221395539E+03  0.12188967504E+03  0.00000000000E+00 0. -1.
        -12    1    4    4    0    0 -0.57030038719E+01  0.27612852953E+02  0.26738167973E+03  0.26886419724E+03  0.00000000000E+00 0.  1.
</event>
<event>
12    1  0.1066489E+000  0.2041487E+03  0.7818608E-02  0.1146941E+00
         21   -1    0    0  501  502  0.00000000000E+00  0.00000000000E+00  0.84729570893E+03  0.84729570893E+03  0.00000000000E+00 0.  1.
         21   -1    0    0  502  503 -0.00000000000E+00 -0.00000000000E+00 -0.18137497430E+03  0.18137497430E+03  0.00000000000E+00 0.  1.
         -6    2    1    2    0  503 -0.92713913662E+02 -0.47138049986E+02  0.77400063876E+03  0.80047090906E+03  0.17566679228E+03 0.  0.
        -24    2    3    3    0    0 -0.52344875657E+02 -0.10238283754E+02  0.14705195618E+03  0.17112363405E+03  0.69384521704E+02 0.  0.
          6    2    1    2  501    0  0.92713913662E+02  0.47138049986E+02 -0.10807990412E+03  0.22819977417E+03  0.17197675922E+03 0.  0.
         24    2    5    5    0    0  0.75332204917E+02 -0.14868939103E+02 -0.93916398022E+01  0.11026566541E+03  0.78576635342E+02 0.  0.
          5    1    5    5  501    0  0.17381708745E+02  0.62006989089E+02 -0.98688264321E+02  0.11793410876E+03  0.47000000000E+01 0. -1.
        -13    1    6    6    0    0  0.50557225961E+02 -0.57518362256E+01 -0.43632784513E+02  0.67029371183E+02  0.00000000000E+00 0.  1.
         14    1    6    6    0    0  0.24774978956E+02 -0.91171028773E+01  0.34241144710E+02  0.43236294224E+02  0.00000000000E+00 0. -1.
         -5    1    3    3    0  503 -0.40369038005E+02 -0.36899766232E+02  0.62694868257E+03  0.62934727501E+03  0.47000000000E+01 0.  1.
         13    1    4    4    0    0 -0.45318423724E+02 -0.26332746698E+02  0.49802226771E+02  0.72301001852E+02  0.00000000000E+00 0. -1.
        -14    1    4    4    0    0 -0.70264519332E+01  0.16094462944E+02  0.97249729411E+02  0.98822632199E+02  0.00000000000E+00 0.  1.
</event>
<event>
12    1  0.1066489E+000  0.2030119E+03  0.7818608E-02  0.1147436E+00
         21   -1    0    0  503  502  0.00000000000E+00  0.00000000000E+00  0.13338940793E+03  0.13338940793E+03  0.00000000000E+00 0. -1.
         21   -1    0    0  501  503 -0.00000000000E+00 -0.00000000000E+00 -0.41216537067E+03  0.41216537067E+03  0.00000000000E+00 0. -1.
          6    2    1    2  501    0  0.98761853253E+02 -0.47463139142E+02 -0.16065660606E+01  0.20199006725E+03  0.16967838100E+03 0.  0.
         24    2    3    3    0    0  0.11105029563E+03 -0.45999011859E+02  0.47003977365E+02  0.15160927313E+03  0.79548227871E+02 0.  0.
         -6    2    1    2    0  502 -0.98761853253E+02  0.47463139142E+02 -0.27716939668E+03  0.34356471135E+03  0.17090109183E+03 0.  0.
        -24    2    5    5    0    0  0.12966521027E+02  0.37250212992E+02 -0.10274528355E+03  0.13611979161E+03  0.80101781143E+02 0.  0.
          5    1    3    3  501    0 -0.12288442380E+02 -0.14641272838E+01 -0.48610543425E+02  0.50380794128E+02  0.47000000000E+01 0. -1.
        -11    1    4    4    0    0  0.80720198883E+02 -0.32421226066E+02 -0.79910491140E+01  0.87354125680E+02  0.00000000000E+00 0.  1.
         12    1    4    4    0    0  0.30330096750E+02 -0.13577785792E+02  0.54995026479E+02  0.64255147446E+02  0.00000000000E+00 0. -1.
         -5    1    5    5    0  502 -0.11172837428E+03  0.10212926150E+02 -0.17442411314E+03  0.20744491973E+03  0.47000000000E+01 0.  1.
         11    1    6    6    0    0 -0.47166121230E+01  0.14765126040E+02 -0.10618312779E+03  0.10730848990E+03  0.00000000000E+00 0. -1.
        -12    1    6    6    0    0  0.17683133150E+02  0.22485086952E+02  0.34378442475E+01  0.28811301712E+02  0.00000000000E+00 0.  1.
</event>
<event>
12    1  0.1066489E+000  0.2513418E+03  0.7818608E-02  0.1112480E+00
         21   -1    0    0  501  502  0.00000000000E+00  0.00000000000E+00  0.12788971336E+03  0.12788971336E+03  0.00000000000E+00 0. -1.
         21   -1    0    0  502  503 -0.00000000000E+00 -0.00000000000E+00 -0.70633756829E+03  0.70633756829E+03  0.00000000000E+00 0. -1.
         -6    2    1    2    0  503 -0.18139850731E+03 -0.21127550616E+02 -0.60420808921E+02  0.25850220341E+03  0.17268735672E+03 0.  0.
        -24    2    3    3    0    0 -0.92257789817E+02  0.42392061749E+02 -0.72335370579E+02  0.14829850361E+03  0.80320941576E+02 0.  0.
          6    2    1    2  501    0  0.18139850731E+03  0.21127550616E+02 -0.51802704601E+03  0.57572507823E+03  0.17249798103E+03 0.  0.
         24    2    5    5    0    0  0.19934207739E+03 -0.75297823214E+01 -0.47001725530E+03  0.51681629755E+03  0.79930617968E+02 0.  0.
          5    1    5    5  501    0 -0.17943570077E+02  0.28657332938E+02 -0.48009790710E+02  0.58908780689E+02  0.47000000000E+01 0. -1.
        -11    1    6    6    0    0  0.12520789483E+03  0.34213291261E+02 -0.28778138800E+03  0.31569873853E+03  0.00000000000E+00 0.  1.
         12    1    6    6    0    0  0.74134182560E+02 -0.41743073583E+02 -0.18223586730E+03  0.20111755902E+03  0.00000000000E+00 0. -1.
         -5    1    3    3    0  503 -0.89140717491E+02 -0.63519612366E+02  0.11914561659E+02  0.11020369980E+03  0.47000000000E+01 0.  1.
         11    1    4    4    0    0 -0.17016765210E+02  0.41751562683E+02 -0.54937395078E+02  0.71069548068E+02  0.00000000000E+00 0. -1.
        -12    1    4    4    0    0 -0.75241024607E+02  0.64049906609E+00 -0.17397975502E+02  0.77228955545E+02  0.00000000000E+00 0.  1.
</event>
<event>
12    1  0.1066489E+000  0.1943250E+03  0.7818608E-02  0.1154660E+00
         21   -1    0    0  501  502  0.00000000000E+00  0.00000000000E+00  0.18941902195E+03  0.18941902195E+03  0.00000000000E+00 0.  1.
         21   -1    0    0  502  503 -0.00000000000E+00 -0.00000000000E+00 -0.27224975257E+03  0.27224975257E+03  0.00000000000E+00 0.  1.
         -6    2    1    2    0  503  0.55650221460E+01  0.90528071424E+02  0.78203385486E+02  0.20929165320E+03  0.17164185215E+03 0.  0.
        -24    2    3    3    0    0  0.64823814565E+02  0.27557438912E+02  0.57116420737E+02  0.12016446812E+03  0.78839549128E+02 0.  0.
          6    2    1    2  501    0 -0.55650221460E+01 -0.90528071424E+02 -0.16103411610E+03  0.25237712132E+03  0.17186018629E+03 0.  0.
         24    2    5    5    0    0  0.26784559539E+02 -0.96513816605E+02 -0.47588392538E+02  0.13416398002E+03  0.75518136935E+02 0.  0.
          5    1    5    5  501    0 -0.32349581685E+02  0.59857451809E+01 -0.11344572356E+03  0.11821314130E+03  0.47000000000E+01 0. -1.
        -11    1    6    6    0    0  0.47577407213E+02 -0.61051475795E+02 -0.51347058742E+02  0.92883867358E+02  0.00000000000E+00 0.  1.
         12    1    6    6    0    0 -0.20792847674E+02 -0.35462340809E+02  0.37586662045E+01  0.41280112666E+02  0.00000000000E+00 0. -1.
         -5    1    3    3    0  503 -0.59258792419E+02  0.62970632512E+02  0.21086964749E+02  0.89127185080E+02  0.47000000000E+01 0.  1.
         11    1    4    4    0    0  0.62432738724E+02  0.72562717585E+01  0.36902653864E+01  0.62961245247E+02  0.00000000000E+00 0. -1.
        -12    1    4    4    0    0  0.23910758404E+01  0.20301167153E+02  0.53426155351E+02  0.57203222873E+02  0.00000000000E+00 0.  1.
</event>
<event>
12    1  0.1066489E+000  0.1973561E+03  0.7818608E-02  0.1152419E+00
         21   -1    0    0  503  502  0.00000000000E+00  0.00000000000E+00  0.33733391514E+03  0.33733391514E+03  0.00000000000E+00 0. -1.
         21   -1    0    0  501  503 -0.00000000000E+00 -0.00000000000E+00 -0.12095511644E+03  0.12095511644E+03  0.00000000000E+00 0. -1.
          6    2    1    2  501    0 -0.76793812124E+01  0.94781588845E+02  0.16245422781E+03  0.25561851210E+03  0.17293618799E+03 0.  0.
         24    2    3    3    0    0 -0.79285449510E+01  0.24711928381E+01  0.13598501919E+02  0.80400395389E+02  0.78805683204E+02 0.  0.
         -6    2    1    2    0  502  0.76793812124E+01 -0.94781588845E+02  0.53924570879E+02  0.20267051947E+03  0.17066035755E+03 0.  0.
        -24    2    5    5    0    0 -0.15458856064E+02 -0.12957426289E+03  0.35280443502E+02  0.15667484927E+03  0.79207530364E+02 0.  0.
          5    1    3    3  501    0  0.24916373863E+00  0.92310396007E+02  0.14885572590E+03  0.17521811672E+03  0.47000000000E+01 0. -1.
        -11    1    4    4    0    0  0.11425897918E+02  0.24597399158E+02  0.34825689252E+02  0.44140818076E+02  0.00000000000E+00 0.  1.
         12    1    4    4    0    0 -0.19354442869E+02 -0.22126206320E+02 -0.21227187333E+02  0.36259577313E+02  0.00000000000E+00 0. -1.
         -5    1    5    5    0  502  0.23138237276E+02  0.34792674046E+02  0.18644127377E+02  0.45995670201E+02  0.47000000000E+01 0.  1.
         13    1    6    6    0    0 -0.25673005212E+02 -0.20482809203E+02  0.33754267031E+02  0.47095638994E+02  0.00000000000E+00 0. -1.
        -14    1    6    6    0    0  0.10214149148E+02 -0.10909145369E+03  0.15261764704E+01  0.10957921028E+03  0.00000000000E+00 0.  1.
</event>
<event>
12    1  0.1066489E+000  0.2325762E+03  0.7818608E-02  0.1125070E+00
         21   -1    0    0  503  502  0.00000000000E+00  0.00000000000E+00  0.38064872743E+03  0.38064872743E+03  0.00000000000E+00 0.  1.
         21   -1    0    0  501  503 -0.00000000000E+00 -0.00000000000E+00 -0.30849656871E+03  0.30849656871E+03  0.00000000000E+00 0.  1.
          6    2    1    2  501    0 -0.11792814929E+03  0.10003135893E+03  0.28979715289E+03  0.37158318066E+03  0.17371916752E+03 0.  0.
         24    2    3    3    0    0  0.27446723609E+01  0.66205389662E+02  0.10185844956E+03  0.14564254180E+03  0.80286483215E+02 0.  0.
         -6    2    1    2    0  502  0.11792814929E+03 -0.10003135893E+03 -0.21764499417E+03  0.31756211548E+03  0.17193903727E+03 0.  0.
        -24    2    5    5    0    0  0.66584457527E+02 -0.79507137722E+02 -0.47870220453E+02  0.13894805632E+03  0.79120979612E+02 0.  0.
          5    1    3    3  501    0 -0.12067282165E+03  0.33825969269E+02  0.18793870333E+03  0.22594063887E+03  0.47000000000E+01 0. -1.
        -11    1    4    4    0    0 -0.77455549256E+01  0.72231343171E+02  0.40640532035E+02  0.83240695585E+02  0.00000000000E+00 0.  1.
         12    1    4    4    0    0  0.10490227286E+02 -0.60259535090E+01  0.61217917527E+02  0.62401846211E+02  0.00000000000E+00 0. -1.
         -5    1    5    5    0  502  0.51343691764E+02 -0.20524221209E+02 -0.16977477372E+03  0.17861405916E+03  0.47000000000E+01 0.  1.
         11    1    6    6    0    0  0.66917426914E+02 -0.19396882266E+02 -0.18727620812E+02  0.72145026493E+02  0.00000000000E+00 0. -1.
        -12    1    6    6    0    0 -0.33296938684E+00 -0.60110255456E+02 -0.29142599641E+02  0.66803029822E+02  0.00000000000E+00 0.  1.
</event>
<event>
12    1  0.1066489E+000  0.2515551E+03  0.7818608E-02  0.1112343E+00
         21   -1    0    0  503  502  0.00000000000E+00  0.00000000000E+00  0.32432884735E+03  0.32432884735E+03  0.00000000000E+00 0. -1.
         21   -1    0    0  501  503 -0.00000000000E+00 -0.00000000000E+00 -0.21258249465E+03  0.21258249465E+03  0.00000000000E+00 0. -1.
          6    2    1    2  501    0  0.97562911638E+02  0.15530819492E+03  0.13303067509E+03  0.28456484677E+03  0.17216513691E+03 0.  0.
         24    2    3    3    0    0  0.17146980339E+02  0.26342556835E+02  0.58079060737E+01  0.86305973658E+02  0.80168822374E+02 0.  0.
         -6    2    1    2    0  502 -0.97562911638E+02 -0.15530819492E+03 -0.21284322389E+02  0.25234649523E+03  0.17200748280E+03 0.  0.
        -24    2    5    5    0    0 -0.14244531336E+02 -0.13213727227E+03  0.18343377372E+02  0.15710318186E+03  0.81742062993E+02 0.  0.
          5    1    3    3  501    0  0.80415931298E+02  0.12896563808E+03  0.12722276902E+03  0.19825887311E+03  0.47000000000E+01 0. -1.
        -13    1    4    4    0    0 -0.23412780554E+02 -0.14380124307E+02 -0.47070778636E+01  0.27876564537E+02  0.00000000000E+00 0.  1.
         14    1    4    4    0    0  0.40559760893E+02  0.40722681142E+02  0.10514983937E+02  0.58429409121E+02  0.00000000000E+00 0. -1.
         -5    1    5    5    0  502 -0.83318380301E+02 -0.23170922647E+02 -0.39627699761E+02  0.95243313365E+02  0.47000000000E+01 0.  1.
         11    1    6    6    0    0  0.16920594364E+02 -0.82801626682E+02 -0.20549472253E+02  0.86975264902E+02  0.00000000000E+00 0. -1.
        -12    1    6    6    0    0 -0.31165125700E+02 -0.49335645588E+02  0.38892849625E+02  0.70127916962E+02  0.00000000000E+00 0.  1.
</event>
<event>
12    1  0.1066489E+000  0.2975610E+03  0.7818608E-02  0.1086547E+00
         21   -1    0    0  501  502  0.00000000000E+00  0.00000000000E+00  0.42009536008E+03  0.42009536008E+03  0.00000000000E+00 0.  1.
         21   -1    0    0  502  503 -0.00000000000E+00 -0.00000000000E+00 -0.22557822227E+03  0.22557822227E+03  0.00000000000E+00 0.  1.
         -6    2    1    2    0  503 -0.69320642042E+02  0.23234006023E+03  0.18113342702E+03  0.34781173932E+03  0.17139554436E+03 0.  0.
        -24    2    3    3    0    0 -0.51838209432E+02  0.25253422645E+03  0.16453939770E+03  0.31601721765E+03  0.79579727119E+02 0.  0.
          6    2    1    2  501    0  0.69320642042E+02 -0.23234006023E+03  0.13383710792E+02  0.29786184303E+03  0.17249724293E+03 0.  0.
         24    2    5    5    0    0  0.64615481093E+01 -0.31713272926E+02 -0.18790063393E+02  0.85118769773E+02  0.76450344680E+02 0.  0.
          5    1    5    5  501    0  0.62859093932E+02 -0.20062678730E+03  0.32173774186E+02  0.21274307326E+03  0.47000000000E+01 0. -1.
        -11    1    6    6    0    0 -0.33527552823E+02 -0.27481151823E+01 -0.73461241978E+01  0.34432752955E+02  0.00000000000E+00 0.  1.
         12    1    6    6    0    0  0.39989100932E+02 -0.28965157744E+02 -0.11443939195E+02  0.50686016817E+02  0.00000000000E+00 0. -1.
         -5    1    3    3    0  503 -0.17482432610E+02 -0.20194166224E+02  0.16594029321E+02  0.31794521675E+02  0.47000000000E+01 0.  1.
         11    1    4    4    0    0 -0.44195188287E+02  0.18449365694E+03  0.76666349398E+02  0.20461879984E+03  0.00000000000E+00 0. -1.
        -12    1    4    4    0    0 -0.76430211444E+01  0.68040569509E+02  0.87873048303E+02  0.11139841780E+03  0.00000000000E+00 0.  1.
</event>
<event>
12    1  0.1066489E+000  0.2298195E+03  0.7818608E-02  0.1126850E+00
         21   -1    0    0  503  502  0.00000000000E+00  0.00000000000E+00  0.33118618890E+03  0.33118618890E+03  0.00000000000E+00 0. -1.
         21   -1    0    0  501  503 -0.00000000000E+00 -0.00000000000E+00 -0.19124737611E+03  0.19124737611E+03  0.00000000000E+00 0. -1.
          6    2    1    2  501    0 -0.12013637108E+01 -0.15047864509E+03  0.17692168083E+03  0.28965744708E+03  0.17307480927E+03 0.  0.
         24    2    3    3    0    0  0.60992558694E+02 -0.72587945588E+02  0.12939898990E+03  0.17913350757E+03  0.79722097855E+02 0.  0.
         -6    2    1    2    0  502  0.12013637108E+01  0.15047864509E+03 -0.36982868038E+02  0.23277611793E+03  0.17370009398E+03 0.  0.
        -24    2    5    5    0    0  0.47780968800E+01  0.12924956247E+03 -0.90334157666E+02  0.17505335748E+03  0.75862627929E+02 0.  0.
          5    1    3    3  501    0 -0.62193922404E+02 -0.77890699499E+02  0.47522690925E+02  0.11052393951E+03  0.47000000000E+01 0. -1.
        -13    1    4    4    0    0 -0.51707218154E+01 -0.22148017470E+02 -0.28191230091E+01  0.22917645963E+02  0.00000000000E+00 0.  1.
         14    1    4    4    0    0  0.66163280509E+02 -0.50439928118E+02  0.13221811291E+03  0.15621586161E+03  0.00000000000E+00 0. -1.
         -5    1    5    5    0  502 -0.35767331692E+01  0.21229082617E+02  0.53351289628E+02  0.57722760449E+02  0.47000000000E+01 0.  1.
         11    1    6    6    0    0 -0.90765260178E+00 -0.15999180519E+01 -0.31362534441E+02  0.31416431013E+02  0.00000000000E+00 0. -1.
        -12    1    6    6    0    0  0.56857494818E+01  0.13084948052E+03 -0.58971623225E+02  0.14363692647E+03  0.00000000000E+00 0.  1.
</event>
<event>
12    1  0.1066489E+000  0.1953442E+03  0.7818608E-02  0.1153757E+00
         21   -1    0    0  503  502  0.00000000000E+00  0.00000000000E+00  0.19234842593E+03  0.19234842593E+03  0.00000000000E+00 0. -1.
         21   -1    0    0  501  503 -0.00000000000E+00 -0.00000000000E+00 -0.21029552667E+03  0.21029552667E+03  0.00000000000E+00 0. -1.
          6    2    1    2  501    0  0.16854802404E+02 -0.91763614161E+02 -0.57155151053E+02  0.20340386919E+03  0.17146946510E+03 0.  0.
         24    2    3    3    0    0 -0.39761105876E+02 -0.23063841855E+02 -0.39171386758E+01  0.99570369068E+02  0.88238472784E+02 0.  0.
         -6    2    1    2    0  502 -0.16854802404E+02  0.91763614161E+02  0.39208050314E+02  0.19924008342E+03  0.17162369994E+03 0.  0.
        -24    2    5    5    0    0 -0.20013017116E+02 -0.40825112829E+01 -0.21066571346E+02  0.85875300089E+02  0.80706746835E+02 0.  0.
          5    1    3    3  501    0  0.56615908280E+02 -0.68699772306E+02 -0.53238012377E+02  0.10383350012E+03  0.47000000000E+01 0. -1.
        -11    1    4    4    0    0 -0.49644358297E+02 -0.36208461334E+02 -0.30277472081E+02  0.68500659110E+02  0.00000000000E+00 0.  1.
         12    1    4    4    0    0  0.98832524208E+01  0.13144619479E+02  0.26360333405E+02  0.31069709958E+02  0.00000000000E+00 0. -1.
         -5    1    5    5    0  502  0.31582147114E+01  0.95846125444E+02  0.60274621660E+02  0.11336478333E+03  0.47000000000E+01 0.  1.
         11    1    6    6    0    0 -0.46158561921E+02  0.15449883864E+02 -0.34733112739E+01  0.48799340582E+02  0.00000000000E+00 0. -1.
        -12    1    6    6    0    0  0.26145544806E+02 -0.19532395147E+02 -0.17593260072E+02  0.37075959507E+02  0.00000000000E+00 0.  1.
</event>
<event>
12    1  0.1066489E+000  0.2945234E+03  0.7818608E-02  0.1088182E+00
         21   -1    0    0  503  502  0.00000000000E+00  0.00000000000E+00  0.30510109122E+03  0.30510109122E+03  0.00000000000E+00 0.  1.
         21   -1    0    0  501  503 -0.00000000000E+00 -0.00000000000E+00 -0.33728561765E+03  0.33728561765E+03  0.00000000000E+00 0.  1.
          6    2    1    2  501    0  0.16295646741E+03 -0.17291420990E+03 -0.14489216051E+03  0.32703446204E+03  0.17176631488E+03 0.  0.
         24    2    3    3    0    0  0.80264412956E+01 -0.67584270558E+02 -0.44805324514E+02  0.11457935183E+03  0.80553419381E+02 0.  0.
         -6    2    1    2    0  502 -0.16295646741E+03  0.17291420990E+03  0.11270763408E+03  0.31535224684E+03  0.17403992228E+03 0.  0.
        -24    2    5    5    0    0 -0.16126595712E+03  0.75625440649E+02  0.67829388325E+02  0.20809503547E+03  0.83527251057E+02 0.  0.
          5    1    3    3  501    0  0.15493002611E+03 -0.10532993934E+03 -0.10008683600E+03  0.21245511021E+03  0.47000000000E+01 0. -1.
        -11    1    4    4    0    0  0.10144029734E+02 -0.34077128745E+02  0.20577470566E+02  0.41080218325E+02  0.00000000000E+00 0.  1.
         12    1    4    4    0    0 -0.21175884383E+01 -0.33507141813E+02 -0.65382795080E+02  0.73499133503E+02  0.00000000000E+00 0. -1.
         -5    1    5    5    0  502 -0.16905102934E+01  0.97288769252E+02  0.44878245759E+02  0.10725721137E+03  0.47000000000E+01 0.  1.
         13    1    6    6    0    0 -0.47977962539E+02  0.35060858625E+02 -0.15882591599E+02  0.61509392884E+02  0.00000000000E+00 0. -1.
        -14    1    6    6    0    0 -0.11328799458E+03  0.40564582023E+02  0.83711979924E+02  0.14658564259E+03  0.00000000000E+00 0.  1.
</event>
<event>
12    1  0.1066489E+000  0.2387513E+03  0.7818608E-02  0.1120879E+00
         21   -1    0    0  501  502  0.00000000000E+00  0.00000000000E+00  0.27262304588E+03  0.27262304588E+03  0.00000000000E+00 0. -1.
         21   -1    0    0  502  503 -0.00000000000E+00 -0.00000000000E+00 -0.14805458328E+04  0.14805458328E+04  0.00000000000E+00 0. -1.
         -6    2    1    2    0  503  0.14140493276E+03  0.86384200013E+02 -0.14164448798E+04  0.14361773466E+04  0.16979896452E+03 0.  0.
        -24    2    3    3    0    0  0.15728865922E+03  0.10048709248E+03 -0.13120654500E+04  0.13295549301E+04  0.10659825935E+03 0.  0.
          6    2    1    2  501    0 -0.14140493276E+03 -0.86384200013E+02  0.20852209288E+03  0.31699153209E+03  0.17188537803E+03 0.  0.
         24    2    5    5    0    0 -0.16037116981E+03 -0.66658136271E+02  0.12211861545E+03  0.22623644050E+03  0.78152105103E+02 0.  0.
          5    1    5    5  501    0  0.18966237055E+02 -0.19726063742E+02  0.86403477425E+02  0.90755091592E+02  0.47000000000E+01 0. -1.
        -13    1    6    6    0    0 -0.41993359654E+02 -0.21713803473E+02  0.79757779092E+02  0.92715882361E+02  0.00000000000E+00 0.  1.
         14    1    6    6    0    0 -0.11837781016E+03 -0.44944332797E+02  0.42360836359E+02  0.13352055814E+03  0.00000000000E+00 0. -1.
         -5    1    3    3    0  503 -0.15883726466E+02 -0.14102892466E+02 -0.10437942973E+03  0.10662241647E+03  0.47000000000E+01 0.  1.
         13    1    4    4    0    0  0.14715860840E+03  0.98457267690E+02 -0.89414873608E+03  0.91151053303E+03  0.00000000000E+00 0. -1.
        -14    1    4    4    0    0  0.10130050818E+02  0.20298247887E+01 -0.41791671394E+03  0.41804439705E+03  0.00000000000E+00 0.  1.
</event>
<event>
12    1  0.1066489E+000  0.2648029E+03  0.7818608E-02  0.1104461E+00
         21   -1    0    0  501  502  0.00000000000E+00  0.00000000000E+00  0.75594626358E+03  0.75594626358E+03  0.00000000000E+00 0. -1.
         21   -1    0    0  502  503 -0.00000000000E+00 -0.00000000000E+00 -0.94753202760E+02  0.94753202760E+02  0.00000000000E+00 0.  1.
         -6    2    1    2    0  503 -0.18233655294E+03 -0.85827443546E+02  0.39897902962E+03  0.47885787100E+03  0.17177783891E+03 0.  0.
        -24    2    3    3    0    0 -0.19354599367E+03 -0.59717195150E+02  0.27222169865E+03  0.34886976545E+03  0.81112668330E+02 0.  0.
          6    2    1    2  501    0  0.18233655294E+03  0.85827443546E+02  0.26221403120E+03  0.37184159534E+03  0.16999119171E+03 0.  0.
         24    2    5    5    0    0  0.83444905204E+02  0.22467105362E+02  0.21679241476E+03  0.24582848615E+03  0.77232573927E+02 0.  0.
          5    1    5    5  501    0  0.98891647739E+02  0.63360338183E+02  0.45421616437E+02  0.12601310919E+03  0.47000000000E+01 0. -1.
        -13    1    6    6    0    0  0.63897201861E+02 -0.21545648718E+02  0.11752771048E+03  0.13549845060E+03  0.00000000000E+00 0.  1.
         14    1    6    6    0    0  0.19547703343E+02  0.44012754080E+02  0.99264704289E+02  0.11033003555E+03  0.00000000000E+00 0. -1.
         -5    1    3    3    0  503  0.11209440726E+02 -0.26110248395E+02  0.12675733096E+03  0.12998810555E+03  0.47000000000E+01 0.  1.
         13    1    4    4    0    0 -0.48533404706E+02  0.20141955615E+02  0.69974259771E+02  0.87507638402E+02  0.00000000000E+00 0. -1.
        -14    1    4    4    0    0 -0.14501258896E+03 -0.79859150765E+02  0.20224743888E+03  0.26136212705E+03  0.00000000000E+00 0.  1.
</event>
<event>
12    1  0.1066489E+000  0.2528747E+03  0.7818608E-02  0.1113434E+00
         21   -1    0    0  501  502  0.00000000000E+00  0.00000000000E+00  0.77928991589E+03  0.77928991589E+03  0.00000000000E+00 0.  1.
         21   -1    0    0  502  503 -0.00000000000E+00 -0.00000000000E+00 -0.14073460071E+03  0.14073460071E+03  0.00000000000E+00 0.  1.
         -6    2    1    2    0  503 -0.17573800696E+03 -0.57599722482E+02  0.82897617678E+01  0.24092194220E+03  0.15418523587E+03 0.  0.
        -24    2    3    3    0    0 -0.34185210234E+02 -0.46999544306E+02  0.30506250073E+01  0.98798416372E+02  0.79838806360E+02 0.  0.
          6    2    1    2  501    0  0.17573800696E+03  0.57599722482E+02  0.63026555342E+03  0.67910257440E+03  0.17246467351E+03 0.  0.
         24    2    5    5    0    0  0.95081750643E+02  0.10074269766E+03  0.35654210760E+03  0.39046203189E+03  0.78413604787E+02 0.  0.
          5    1    5    5  501    0  0.80656256320E+02 -0.43142975180E+02  0.27372344581E+03  0.28864054251E+03  0.47000000000E+01 0. -1.
        -11    1    6    6    0    0  0.16122162364E+02  0.67108725733E+02  0.11495050347E+03  0.13407879563E+03  0.00000000000E+00 0.  1.
         12    1    6    6    0    0  0.78959588279E+02  0.33633971929E+02  0.24159160413E+03  0.25638323626E+03  0.00000000000E+00 0. -1.
         -5    1    3    3    0  503 -0.14155279673E+03 -0.10600178176E+02  0.52391367605E+01  0.14212352582E+03  0.47000000000E+01 0.  1.
         11    1    4    4    0    0 -0.56915797987E+02 -0.15775050625E+02  0.89260805010E+01  0.59732195639E+02  0.00000000000E+00 0. -1.
        -12    1    4    4    0    0  0.22730587752E+02 -0.31224493680E+02 -0.58754554937E+01  0.39066220734E+02  0.00000000000E+00 0.  1.
</event>
<event>
12    1  0.1066489E+000  0.1851226E+03  0.7818608E-02  0.1163005E+00
         21   -1    0    0  501  502  0.00000000000E+00  0.00000000000E+00  0.36885540224E+03  0.36885540224E+03  0.00000000000E+00 0.  1.
         21   -1    0    0  502  503 -0.00000000000E+00 -0.00000000000E+00 -0.11338596200E+03  0.11338596200E+03  0.00000000000E+00 0.  1.
         -6    2    1    2    0  503  0.18100626737E+02  0.66304331188E+02  0.23065511517E+03  0.29575693882E+03  0.17189091798E+03 0.  0.
        -24    2    3    3    0    0 -0.22626747060E+02  0.48440101743E+02  0.47757411405E+02  0.10747122584E+03  0.80067976748E+02 0.  0.
          6    2    1    2  501    0 -0.18100626737E+02 -0.66304331188E+02  0.24814325066E+02  0.18648442542E+03  0.17157153952E+03 0.  0.
         24    2    5    5    0    0 -0.42699415684E+02  0.93014953758E+01 -0.40478005319E+01  0.10177047307E+03  0.91820948505E+02 0.  0.
          5    1    5    5  501    0  0.24598788947E+02 -0.75605826564E+02  0.28862125598E+02  0.84713952346E+02  0.47000000000E+01 0. -1.
        -11    1    6    6    0    0 -0.57882045150E+02  0.22460219284E+02 -0.29995949072E+02  0.68953241851E+02  0.00000000000E+00 0.  1.
         12    1    6    6    0    0  0.15182629466E+02 -0.13158723908E+02  0.25948148540E+02  0.32817231222E+02  0.00000000000E+00 0. -1.
         -5    1    3    3    0  503  0.40727373797E+02  0.17864229446E+02  0.18289770376E+03  0.18828571298E+03  0.47000000000E+01 0.  1.
         13    1    4    4    0    0  0.18482432413E+02  0.51269168723E+02  0.32948129637E+02  0.63684434645E+02  0.00000000000E+00 0. -1.
        -14    1    4    4    0    0 -0.41109179472E+02 -0.28290669801E+01  0.14809281768E+02  0.43786791197E+02  0.00000000000E+00 0.  1.
</event>
<event>
12    1  0.1066489E+000  0.1787853E+03  0.7818608E-02  0.1173018E+00
         21   -1    0    0  501  502  0.00000000000E+00  0.00000000000E+00  0.60158775762E+03  0.60158775762E+03  0.00000000000E+00 0. -1.
         21   -1    0    0  502  503 -0.00000000000E+00 -0.00000000000E+00 -0.69967046225E+02  0.69967046225E+02  0.00000000000E+00 0. -1.
         -6    2    1    2    0  503  0.28563189367E+02  0.28761740029E+02  0.71727771975E+02  0.17813237025E+03  0.15793408303E+03 0.  0.
        -24    2    3    3    0    0  0.60145913838E+02  0.24706023997E+02  0.23250755322E+02  0.11994277959E+03  0.98070149284E+02 0.  0.
          6    2    1    2  501    0 -0.28563189367E+02 -0.28761740029E+02  0.45989293942E+03  0.49342243360E+03  0.17412951722E+03 0.  0.
         24    2    5    5    0    0 -0.96074875193E+01 -0.14495200595E+02  0.46181448367E+03  0.46916063003E+03  0.80849643077E+02 0.  0.
          5    1    5    5  501    0 -0.18955701847E+02 -0.14266539433E+02 -0.19215442472E+01  0.24261803565E+02  0.47000000000E+01 0. -1.
        -11    1    6    6    0    0 -0.69272249726E+01  0.13478930745E+02  0.14532514933E+02  0.20996714270E+02  0.00000000000E+00 0.  1.
         12    1    6    6    0    0 -0.26802625467E+01 -0.27974131341E+02  0.44728196874E+03  0.44816391576E+03  0.00000000000E+00 0. -1.
         -5    1    3    3    0  503 -0.31582724471E+02  0.40557160319E+01  0.48477016653E+02  0.58189590660E+02  0.47000000000E+01 0.  1.
         13    1    4    4    0    0  0.10857756911E+02 -0.40605705240E+01 -0.35914857567E+02  0.37739317855E+02  0.00000000000E+00 0. -1.
        -14    1    4    4    0    0  0.49288156926E+02  0.28766594521E+02  0.59165612888E+02  0.82203461739E+02  0.00000000000E+00 0.  1.
</event>
<event>
12    1  0.1066489E+000  0.2048772E+03  0.7818608E-02  0.1146504E+00
         21   -1    0    0  501  502  0.00000000000E+00  0.00000000000E+00  0.47242501768E+03  0.47242501768E+03  0.00000000000E+00 0.  1.
         21   -1    0    0  502  503 -0.00000000000E+00 -0.00000000000E+00 -0.11928110007E+03  0.11928110007E+03  0.00000000000E+00 0.  1.
         -6    2    1    2    0  503 -0.10170082928E+03  0.26740608101E+02  0.33138300865E+03  0.38960152990E+03  0.17583098384E+03 0.  0.
        -24    2    3    3    0    0 -0.91015148876E+02  0.67204183322E+02  0.31584772754E+03  0.34471367358E+03  0.79167987111E+02 0.  0.
          6    2    1    2  501    0  0.10170082928E+03 -0.26740608101E+02  0.21760908956E+02  0.20210458784E+03  0.17121509417E+03 0.  0.
         24    2    5    5    0    0  0.64759307584E+02  0.21287656813E+02  0.69207448665E+02  0.12500300299E+03  0.78671135463E+02 0.  0.
          5    1    5    5  501    0  0.36941521700E+02 -0.48028264914E+02 -0.47446539709E+02  0.77101584851E+02  0.47000000000E+01 0. -1.
        -13    1    6    6    0    0 -0.16938273881E+02  0.11818325873E+02  0.21988482970E+02  0.30167388549E+02  0.00000000000E+00 0.  1.
         14    1    6    6    0    0  0.81697581465E+02  0.94693309398E+01  0.47218965695E+02  0.94835614444E+02  0.00000000000E+00 0. -1.
         -5    1    3    3    0  503 -0.10685680407E+02 -0.40463575221E+02  0.15535281116E+02  0.44887856318E+02  0.47000000000E+01 0.  1.
         11    1    4    4    0    0 -0.97782995202E+00 -0.29114658247E+01  0.10432845659E+03  0.10437365395E+03  0.00000000000E+00 0. -1.
        -12    1    4    4    0    0 -0.90037318924E+02  0.70115649147E+02  0.21151927095E+03  0.24034001963E+03  0.00000000000E+00 0.  1.
</event>
<event>
12    1  0.1066489E+000  0.1930076E+03  0.7818608E-02  0.1155935E+00
         21   -1    0    0  503  502  0.00000000000E+00  0.00000000000E+00  0.10030601411E+03  0.10030601411E+03  0.00000000000E+00 0. -1.
         21   -1    0    0  501  503 -0.00000000000E+00 -0.00000000000E+00 -0.37000717327E+03  0.37000717327E+03  0.00000000000E+00 0. -1.
          6    2    1    2  501    0 -0.32699702101E+02  0.82856716973E+02 -0.13540654105E+03  0.23518138213E+03  0.17041374673E+03 0.  0.
         24    2    3    3    0    0 -0.10338813987E+02  0.12213627815E+03 -0.95320057399E+02  0.17458509993E+03  0.79811542148E+02 0.  0.
         -6    2    1    2    0  502  0.32699702101E+02 -0.82856716973E+02 -0.13429461810E+03  0.23513180525E+03  0.17122329083E+03 0.  0.
        -24    2    5    5    0    0 -0.45473815964E+02 -0.26453334652E+02 -0.59910459124E+02  0.11328134948E+03  0.80472070774E+02 0.  0.
          5    1    3    3  501    0 -0.22360888114E+02 -0.39279561181E+02 -0.40086483655E+02  0.60596282193E+02  0.47000000000E+01 0. -1.
        -13    1    4    4    0    0 -0.16618381732E+02  0.14158353728E+02  0.96434287588E+01  0.23866824462E+02  0.00000000000E+00 0.  1.
         14    1    4    4    0    0  0.62795677450E+01  0.10797792443E+03 -0.10496348616E+03  0.15071827547E+03  0.00000000000E+00 0. -1.
         -5    1    5    5    0  502  0.78173518065E+02 -0.56403382320E+02 -0.74384158980E+02  0.12185045577E+03  0.47000000000E+01 0.  1.
         13    1    6    6    0    0  0.14338372699E+02 -0.29188787625E+02 -0.67521001268E+01  0.33213929469E+02  0.00000000000E+00 0. -1.
        -14    1    6    6    0    0 -0.59812188663E+02  0.27354529724E+01 -0.53158358997E+02  0.80067420009E+02  0.00000000000E+00 0.  1.
</event>
<event>
12    1  0.1066489E+000  0.2578257E+03  0.7818608E-02  0.1109359E+00
         21   -1    0    0  503  502  0.00000000000E+00  0.00000000000E+00  0.46188970325E+02  0.46188970325E+02  0.00000000000E+00 0. -1.
         21   -1    0    0  501  503 -0.00000000000E+00 -0.00000000000E+00 -0.14112221879E+04  0.14112221879E+04  0.00000000000E+00 0. -1.
          6    2    1    2  501    0 -0.69385928643E+02  0.17911913858E+03 -0.73199833044E+03  0.77607710085E+03  0.17197685249E+03 0.  0.
         24    2    3    3    0    0 -0.47166403856E+02  0.15697617979E+03 -0.36622897042E+03  0.40893498580E+03  0.78980840515E+02 0.  0.
         -6    2    1    2    0  502  0.69385928643E+02 -0.17911913858E+03 -0.63303488715E+03  0.68133405740E+03  0.16304863237E+03 0.  0.
        -24    2    5    5    0    0  0.10985046000E+03 -0.13910746544E+03 -0.46103992056E+03  0.50010858784E+03  0.78312072965E+02 0.  0.
          5    1    3    3  501    0 -0.22219524788E+02  0.22142958792E+02 -0.36576936002E+03  0.36714211504E+03  0.47000000000E+01 0. -1.
        -11    1    4    4    0    0 -0.54705420513E+02  0.94617354636E+02 -0.29149021841E+03  0.31130639933E+03  0.00000000000E+00 0.  1.
         12    1    4    4    0    0  0.75390166571E+01  0.62358825151E+02 -0.74738752008E+02  0.97628586480E+02  0.00000000000E+00 0. -1.
         -5    1    5    5    0  502 -0.40464531355E+02 -0.40011673140E+02 -0.17199496659E+03  0.18122546956E+03  0.47000000000E+01 0.  1.
         13    1    6    6    0    0  0.55732139470E+01 -0.40792580651E+02 -0.17984932218E+03  0.18450169115E+03  0.00000000000E+00 0. -1.
        -14    1    6    6    0    0  0.10427724605E+03 -0.98314884788E+02 -0.28119059839E+03  0.31560689669E+03  0.00000000000E+00 0.  1.
</event>
<event>
12    1  0.1066489E+000  0.1972242E+03  0.7818608E-02  0.1152180E+00
         21   -1    0    0  503  502  0.00000000000E+00  0.00000000000E+00  0.15336967021E+04  0.15336967021E+04  0.00000000000E+00 0.  1.
         21   -1    0    0  501  503 -0.00000000000E+00 -0.00000000000E+00 -0.26317702987E+02  0.26317702987E+02  0.00000000000E+00 0.  1.
          6    2    1    2  501    0  0.73055030399E+02  0.62191131862E+02  0.60081784499E+03  0.63224799968E+03  0.17190310032E+03 0.  0.
         24    2    3    3    0    0 -0.22302459161E+01  0.71890339112E+02  0.45924347268E+03  0.47153913140E+03  0.79192110633E+02 0.  0.
         -6    2    1    2    0  502 -0.73055030399E+02 -0.62191131862E+02  0.90656115411E+03  0.92776640539E+03  0.17231541567E+03 0.  0.
        -24    2    5    5    0    0  0.10838114339E+02 -0.14247532361E+01  0.23797190075E+03  0.25118360025E+03  0.79643460760E+02 0.  0.
          5    1    3    3  501    0  0.75285276315E+02 -0.96992072495E+01  0.14157437231E+03  0.16070886828E+03  0.47000000000E+01 0. -1.
        -11    1    4    4    0    0 -0.17621366267E+02  0.23320889484E+02  0.41847102790E+02  0.51044651506E+02  0.00000000000E+00 0.  1.
         12    1    4    4    0    0  0.15391120351E+02  0.48569449627E+02  0.41739636989E+03  0.42049447989E+03  0.00000000000E+00 0. -1.
         -5    1    5    5    0  502 -0.83893144738E+02 -0.60766378626E+02  0.66858925336E+03  0.67658280514E+03  0.47000000000E+01 0.  1.
         13    1    6    6    0    0 -0.10804909511E+02 -0.35642233540E+02  0.14634825063E+03  0.15101299726E+03  0.00000000000E+00 0. -1.
        -14    1    6    6    0    0  0.21643023850E+02  0.34217480304E+02  0.91623650123E+02  0.10017060298E+03  0.00000000000E+00 0.  1.
</event>
<event>
12    1  0.1066489E+000  0.2427042E+03  0.7818608E-02  0.1118199E+00
         21   -1    0    0  503  502  0.00000000000E+00  0.00000000000E+00  0.63315168993E+03  0.63315168993E+03  0.00000000000E+00 0. -1.
         21   -1    0    0  501  503 -0.00000000000E+00 -0.00000000000E+00 -0.92614416046E+02  0.92614416046E+02  0.00000000000E+00 0. -1.
          6    2    1    2  501    0  0.52846703180E+02 -0.16186101779E+03  0.27764264383E+03  0.36876925737E+03  0.17295538268E+03 0.  0.
         24    2    3    3    0    0  0.71824103021E+02 -0.14852361563E+03  0.28919511669E+03  0.34243339532E+03  0.80055284261E+02 0.  0.
         -6    2    1    2    0  502 -0.52846703180E+02  0.16186101779E+03  0.26289463006E+03  0.35699684860E+03  0.17129331651E+03 0.  0.
        -24    2    5    5    0    0 -0.40144558242E+02  0.30344253240E+02  0.17464788118E+03  0.19803904750E+03  0.78646186635E+02 0.  0.
          5    1    3    3  501    0 -0.18977399841E+02 -0.13337402163E+02 -0.11552472861E+02  0.26335862059E+02  0.47000000000E+01 0. -1.
        -11    1    4    4    0    0  0.64302405387E+02 -0.15809715032E+03  0.27574585540E+03  0.32429197500E+03  0.00000000000E+00 0.  1.
         12    1    4    4    0    0  0.75216976343E+01  0.95735346975E+01  0.13449261289E+02  0.18141420317E+02  0.00000000000E+00 0. -1.
         -5    1    5    5    0  502 -0.12702144939E+02  0.13151676455E+03  0.88246748874E+02  0.15895780110E+03  0.47000000000E+01 0.  1.
         13    1    6    6    0    0  0.17280990140E+02 -0.86489535669E+01  0.16811494296E+02  0.25613733787E+02  0.00000000000E+00 0. -1.
        -14    1    6    6    0    0 -0.57425548381E+02  0.38993206807E+02  0.15783638689E+03  0.17242531372E+03  0.00000000000E+00 0.  1.
</event>
<event>
12    1  0.1066489E+000  0.5134368E+03  0.7818608E-02  0.1010348E+00
         21   -1    0    0  503  502  0.00000000000E+00  0.00000000000E+00  0.12921546846E+04  0.12921546846E+04  0.00000000000E+00 0.  1.
         21   -1    0    0  501  503 -0.00000000000E+00 -0.00000000000E+00 -0.21227076072E+03  0.21227076072E+03  0.00000000000E+00 0.  1.
          6    2    1    2  501    0  0.28911321667E+03  0.38776078439E+03  0.68945724270E+03  0.85963287702E+03  0.17225712110E+03 0.  0.
         24    2    3    3    0    0  0.51849409201E+02  0.83582193207E+02  0.14409180358E+03  0.19160272661E+03  0.79213715533E+02 0.  0.
         -6    2    1    2    0  502 -0.28911321667E+03 -0.38776078439E+03  0.39042668122E+03  0.64479256834E+03  0.17140473975E+03 0.  0.
        -24    2    5    5    0    0 -0.14875731430E+03 -0.25460146987E+03  0.30997042169E+03  0.43520611345E+03  0.79825132911E+02 0.  0.
          5    1    3    3  501    0  0.23726380747E+03  0.30417859119E+03  0.54536543912E+03  0.66803015041E+03  0.47000000000E+01 0. -1.
        -11    1    4    4    0    0 -0.11213608961E+02  0.36279824986E+02  0.84954019843E+02  0.93054587283E+02  0.00000000000E+00 0.  1.
         12    1    4    4    0    0  0.63063018162E+02  0.47302368221E+02  0.59137783740E+02  0.98548139326E+02  0.00000000000E+00 0. -1.
         -5    1    5    5    0  502 -0.14035590237E+03 -0.13315931452E+03  0.80456259531E+02  0.20958645489E+03  0.47000000000E+01 0.  1.
         13    1    6    6    0    0 -0.47023475316E+02 -0.10874774764E+03  0.73844932910E+02  0.13960785781E+03  0.00000000000E+00 0. -1.
        -14    1    6    6    0    0 -0.10173383898E+03 -0.14585372223E+03  0.23612548878E+03  0.29559825564E+03  0.00000000000E+00 0.  1.
</event>
<event>
12    1  0.1066489E+000  0.2049971E+03  0.7818608E-02  0.1146000E+00
         21   -1    0    0  503  502  0.00000000000E+00  0.00000000000E+00  0.94067799545E+02  0.94067799545E+02  0.00000000000E+00 0.  1.
         21   -1    0    0  501  503 -0.00000000000E+00 -0.00000000000E+00 -0.81932050186E+03  0.81932050186E+03  0.00000000000E+00 0.  1.
          6    2    1    2  501    0  0.97531171411E+02  0.47157353816E+02 -0.67142512630E+03  0.70144207159E+03  0.17167741309E+03 0.  0.
         24    2    3    3    0    0  0.13483199391E+02 -0.14144673683E+02 -0.15079265482E+03  0.17049738471E+03  0.77130182069E+02 0.  0.
         -6    2    1    2    0  502 -0.97531171411E+02 -0.47157353816E+02 -0.53827576023E+02  0.21194622981E+03  0.17403347660E+03 0.  0.
        -24    2    5    5    0    0 -0.50240569170E+02 -0.96692402170E+02 -0.42562567639E+02  0.14238250012E+03  0.81164454951E+02 0.  0.
          5    1    3    3  501    0  0.84047972020E+02  0.61302027500E+02 -0.52063247147E+03  0.53094468688E+03  0.47000000000E+01 0. -1.
        -13    1    4    4    0    0  0.39236989382E+02 -0.22143863105E+02 -0.12619617847E+03  0.13399763979E+03  0.00000000000E+00 0.  1.
         14    1    4    4    0    0 -0.25753789992E+02  0.79991894220E+01 -0.24596476350E+02  0.36499744919E+02  0.00000000000E+00 0. -1.
         -5    1    5    5    0  502 -0.47290602241E+02  0.49535048353E+02 -0.11265008384E+02  0.69563729698E+02  0.47000000000E+01 0.  1.
         13    1    6    6    0    0 -0.30639397732E+02 -0.10874683744E+01 -0.31840804133E+02  0.44201720427E+02  0.00000000000E+00 0. -1.
        -14    1    6    6    0    0 -0.19601171438E+02 -0.95604933795E+02 -0.10721763505E+02  0.98180779689E+02  0.00000000000E+00 0.  1.
</event>
<event>
12    1  0.1066489E+000  0.2772539E+03  0.7818608E-02  0.1097616E+00
         21   -1    0    0  501  502  0.00000000000E+00  0.00000000000E+00  0.94154969604E+03  0.94154969604E+03  0.00000000000E+00 0. -1.
         21   -1    0    0  502  503 -0.00000000000E+00 -0.00000000000E+00 -0.12134477536E+03  0.12134477536E+03  0.00000000000E+00 0. -1.
         -6    2    1    2    0  503  0.66563334562E+02 -0.20370096009E+03  0.71893551559E+03  0.77054397941E+03  0.17591188130E+03 0.  0.
        -24    2    3    3    0    0  0.36556931777E+02 -0.15505198270E+03  0.67548732957E+03  0.69859300946E+03  0.79821888278E+02 0.  0.
          6    2    1    2  501    0 -0.66563334562E+02  0.20370096009E+03  0.10126940509E+03  0.29235049199E+03  0.17113900522E+03 0.  0.
         24    2    5    5    0    0  0.29730012399E+02  0.85831079921E+02  0.55381870300E+02  0.13331127302E+03  0.80336144036E+02 0.  0.
          5    1    5    5  501    0 -0.96293346961E+02  0.11786988017E+03  0.45887534792E+02  0.15903921897E+03  0.47000000000E+01 0. -1.
        -13    1    6    6    0    0  0.10182119915E+02  0.49281902822E+02 -0.14228337222E+02  0.52295574305E+02  0.00000000000E+00 0.  1.
         14    1    6    6    0    0  0.19547892483E+02  0.36549177098E+02  0.69610207521E+02  0.81015698715E+02  0.00000000000E+00 0. -1.
         -5    1    3    3    0  503  0.30006402785E+02 -0.48648977392E+02  0.43448186015E+02  0.71950969954E+02  0.47000000000E+01 0.  1.
         13    1    4    4    0    0  0.49029664771E+01  0.50770953677E+01  0.10435704001E+03  0.10459544816E+03  0.00000000000E+00 0. -1.
        -14    1    4    4    0    0  0.31653965300E+02 -0.16012907807E+03  0.57113028957E+03  0.59399756130E+03  0.00000000000E+00 0.  1.
</event>
<event>
12    1  0.1066489E+000  0.3555675E+03  0.7818608E-02  0.1060393E+00
         21   -1    0    0  503  502  0.00000000000E+00  0.00000000000E+00  0.20664430262E+03  0.20664430262E+03  0.00000000000E+00 0.  1.
         21   -1    0    0  501  503 -0.00000000000E+00 -0.00000000000E+00 -0.62044695170E+03  0.62044695170E+03  0.00000000000E+00 0.  1.
          6    2    1    2  501    0 -0.84423621950E+02 -0.29988631675E+03 -0.25768197913E+03  0.43912215060E+03  0.17137418085E+03 0.  0.
         24    2    3    3    0    0 -0.79096243716E+02 -0.90396975306E+02 -0.12251216800E+03  0.18970857242E+03  0.80946168713E+02 0.  0.
         -6    2    1    2    0  502  0.84423621950E+02  0.29988631675E+03 -0.15612066996E+03  0.38796910373E+03  0.17054973158E+03 0.  0.
        -24    2    5    5    0    0  0.23764281310E+02  0.82472768449E+02 -0.10161277374E+03  0.15571620850E+03  0.80968408654E+02 0.  0.
          5    1    3    3  501    0 -0.53273782345E+01 -0.20948934144E+03 -0.13516981113E+03  0.24941357818E+03  0.47000000000E+01 0. -1.
        -13    1    4    4    0    0 -0.22977149002E+01  0.14516466301E+02 -0.10104679271E+02  0.17835689805E+02  0.00000000000E+00 0.  1.
         14    1    4    4    0    0 -0.76798528816E+02 -0.10491344161E+03 -0.11240748873E+03  0.17187288262E+03  0.00000000000E+00 0. -1.
         -5    1    5    5    0  502  0.60659340640E+02  0.21741354830E+03 -0.54507896211E+02  0.23225289522E+03  0.47000000000E+01 0.  1.
         11    1    6    6    0    0 -0.73554511405E+01  0.30213692801E+02  0.64072567703E+01  0.31749375325E+02  0.00000000000E+00 0. -1.
        -12    1    6    6    0    0  0.31119732451E+02  0.52259075647E+02 -0.10802003051E+03  0.12396683318E+03  0.00000000000E+00 0.  1.
</event>
<event>
12    1  0.1066489E+000  0.1904335E+03  0.7818608E-02  0.1158094E+00
         21   -1    0    0  501  502  0.00000000000E+00  0.00000000000E+00  0.98026601633E+03  0.98026601633E+03  0.00000000000E+00 0. -1.
         21   -1    0    0  502  503 -0.00000000000E+00 -0.00000000000E+00 -0.37187300392E+02  0.37187300392E+02  0.00000000000E+00 0. -1.
         -6    2    1    2    0  503  0.62561360912E+02  0.53313170620E+02  0.43295928642E+03  0.47294735119E+03  0.17166605738E+03 0.  0.
        -24    2    3    3    0    0  0.35287922479E+02 -0.17807895226E+02  0.15966042906E+03  0.18919322895E+03  0.93489393343E+02 0.  0.
          6    2    1    2  501    0 -0.62561360912E+02 -0.53313170620E+02  0.51011942952E+03  0.54450596554E+03  0.17178095381E+03 0.  0.
         24    2    5    5    0    0 -0.33432819114E+02 -0.89861740350E+02  0.24520272142E+03  0.27545722994E+03  0.80990278192E+02 0.  0.
          5    1    5    5  501    0 -0.29128541798E+02  0.36548569729E+02  0.26491670810E+03  0.26904873560E+03  0.47000000000E+01 0. -1.
        -13    1    6    6    0    0  0.12600884077E+02 -0.47002015578E+02  0.17293875991E+03  0.17965463097E+03  0.00000000000E+00 0.  1.
         14    1    6    6    0    0 -0.46033703191E+02 -0.42859724771E+02  0.72263961502E+02  0.95802598967E+02  0.00000000000E+00 0. -1.
         -5    1    3    3    0  503  0.27273438433E+02  0.71121065847E+02  0.27329885736E+03  0.28375412223E+03  0.47000000000E+01 0.  1.
         13    1    4    4    0    0  0.63421783779E+02 -0.15631100492E+02  0.72531242779E+02  0.97608581279E+02  0.00000000000E+00 0. -1.
        -14    1    4    4    0    0 -0.28133861300E+02 -0.21767947343E+01  0.87129186284E+02  0.91584647674E+02  0.00000000000E+00 0.  1.
</event>
<event>
12    1  0.1066489E+000  0.2067979E+03  0.7818608E-02  0.1144914E+00
         21   -1    0    0  503  502  0.00000000000E+00  0.00000000000E+00  0.21201374734E+03  0.21201374734E+03  0.00000000000E+00 0. -1.
         21   -1    0    0  501  503 -0.00000000000E+00 -0.00000000000E+00 -0.22255451315E+03  0.22255451315E+03  0.00000000000E+00 0. -1.
          6    2    1    2  501    0  0.43380990358E+02 -0.10566172515E+03  0.66908637890E+02  0.21735259019E+03  0.17239220444E+03 0.  0.
         24    2    3    3    0    0  0.62131676404E+02 -0.68216455987E+02  0.10642462558E+03  0.15958287760E+03  0.75011091263E+02 0.  0.
         -6    2    1    2    0  502 -0.43380990358E+02  0.10566172515E+03 -0.77449403702E+02  0.21721567031E+03  0.16774363418E+03 0.  0.
        -24    2    5    5    0    0 -0.39409088035E+02  0.13585490311E+03 -0.88244781031E+02  0.18456549152E+03  0.79168480850E+02 0.  0.
          5    1    3    3  501    0 -0.18750686046E+02 -0.37445269162E+02 -0.39515987687E+02  0.57769712590E+02  0.47000000000E+01 0. -1.
        -11    1    4    4    0    0  0.11952392118E+02 -0.56319497610E+02  0.24045683433E+02  0.62393432187E+02  0.00000000000E+00 0.  1.
         12    1    4    4    0    0  0.50179284286E+02 -0.11896958377E+02  0.82378942144E+02  0.97189445409E+02  0.00000000000E+00 0. -1.
         -5    1    5    5    0  502 -0.39719023226E+01 -0.30193177964E+02  0.10795377329E+02  0.32650178794E+02  0.47000000000E+01 0.  1.
         13    1    6    6    0    0  0.14567728239E+02  0.88857543267E+02 -0.42019577350E+02  0.99365620726E+02  0.00000000000E+00 0. -1.
        -14    1    6    6    0    0 -0.53976816274E+02  0.46997359845E+02 -0.46225203680E+02  0.85199870791E+02  0.00000000000E+00 0.  1.
</event>
<event>
12    1  0.1066489E+000  0.2632626E+03  0.7818608E-02  0.1106572E+00
         21   -1    0    0  501  502  0.00000000000E+00  0.00000000000E+00  0.20149535197E+04  0.20149535197E+04  0.00000000000E+00 0. -1.
         21   -1    0    0  502  503 -0.00000000000E+00 -0.00000000000E+00 -0.33235260777E+02  0.33235260777E+02  0.00000000000E+00 0. -1.
         -6    2    1    2    0  503 -0.11836119242E+01  0.18785752025E+03  0.99837258861E+03  0.10302124086E+04  0.17116638760E+03 0.  0.
        -24    2    3    3    0    0  0.24664243299E+01  0.40369921196E+02  0.58111518970E+03  0.58761581845E+03  0.77211868352E+02 0.  0.
          6    2    1    2  501    0  0.11836119242E+01 -0.18785752025E+03  0.98334567029E+03  0.10179763719E+04  0.18443247428E+03 0.  0.
         24    2    5    5    0    0 -0.52123321297E+02 -0.11620774678E+03  0.37910494029E+03  0.40715375527E+03  0.76371091673E+02 0.  0.
          5    1    5    5  501    0  0.53306933221E+02 -0.71649773470E+02  0.60424073000E+03  0.61082261661E+03  0.47000000000E+01 0. -1.
        -13    1    6    6    0    0 -0.35575974223E+02 -0.20540269063E+02  0.19215184861E+03  0.19649398342E+03  0.00000000000E+00 0.  1.
         14    1    6    6    0    0 -0.16547347074E+02 -0.95667477721E+02  0.18695309168E+03  0.21065977186E+03  0.00000000000E+00 0. -1.
         -5    1    3    3    0  503 -0.36500362540E+01  0.14748759906E+03  0.41725739891E+03  0.44259659012E+03  0.47000000000E+01 0.  1.
         13    1    4    4    0    0  0.32094979061E+02  0.39007361528E+02  0.46643182758E+03  0.46915915393E+03  0.00000000000E+00 0. -1.
        -14    1    4    4    0    0 -0.29628554731E+02  0.13625596679E+01  0.11468336212E+03  0.11845666453E+03  0.00000000000E+00 0.  1.
</event>
<event>
12    1  0.1066489E+000  0.3216606E+03  0.7818608E-02  0.1075181E+00
         21   -1    0    0  503  502  0.00000000000E+00  0.00000000000E+00  0.66626376797E+03  0.66626376797E+03  0.00000000000E+00 0.  1.
         21   -1    0    0  501  503 -0.00000000000E+00 -0.00000000000E+00 -0.33871268211E+03  0.33871268211E+03  0.00000000000E+00 0. -1.
          6    2    1    2  501    0 -0.21409391564E+03  0.16466527267E+03  0.53508144265E+03  0.62432179588E+03  0.17468456657E+03 0.  0.
         24    2    3    3    0    0 -0.19377451706E+03  0.19387182803E+03  0.48162728491E+03  0.55993749799E+03  0.80189219484E+02 0.  0.
         -6    2    1    2    0  502  0.21409391564E+03 -0.16466527267E+03 -0.20753035679E+03  0.38065465420E+03  0.16993604689E+03 0.  0.
        -24    2    5    5    0    0  0.20805930182E+03 -0.18147108030E+03 -0.21701394997E+03  0.35989699842E+03  0.78805894006E+02 0.  0.
          5    1    3    3  501    0 -0.20319398584E+02 -0.29206555355E+02  0.53454157734E+02  0.64384297881E+02  0.47000000000E+01 0. -1.
        -13    1    4    4    0    0 -0.16010330608E+02  0.49228410323E+02  0.13310333068E+03  0.14281548834E+03  0.00000000000E+00 0.  1.
         14    1    4    4    0    0 -0.17776418645E+03  0.14464341771E+03  0.34852395423E+03  0.41712200966E+03  0.00000000000E+00 0. -1.
         -5    1    5    5    0  502  0.60346138255E+01  0.16805807628E+02  0.94835931777E+01  0.20757655783E+02  0.47000000000E+01 0.  1.
         13    1    6    6    0    0  0.12369683234E+03 -0.15194309962E+03 -0.12984393030E+03  0.23504692741E+03  0.00000000000E+00 0. -1.
        -14    1    6    6    0    0  0.84362469481E+02 -0.29527980684E+02 -0.87170019667E+02  0.12485007100E+03  0.00000000000E+00 0.  1.
</event>
<event>
12    1  0.1066489E+000  0.2019091E+03  0.7818608E-02  0.1148356E+00
         21   -1    0    0  503  502  0.00000000000E+00  0.00000000000E+00  0.21464500466E+03  0.21464500466E+03  0.00000000000E+00 0.  1.
         21   -1    0    0  501  503 -0.00000000000E+00 -0.00000000000E+00 -0.21895490259E+03  0.21895490259E+03  0.00000000000E+00 0.  1.
          6    2    1    2  501    0  0.88312304401E+02 -0.57922383042E+02  0.78098251530E+02  0.21648700525E+03  0.17208492376E+03 0.  0.
         24    2    3    3    0    0  0.70245605699E+02 -0.18905381466E+02  0.11630509419E+03  0.15877578589E+03  0.79943834554E+02 0.  0.
         -6    2    1    2    0  502 -0.88312304401E+02  0.57922383042E+02 -0.82408149464E+02  0.21711290200E+03  0.17085913365E+03 0.  0.
        -24    2    5    5    0    0 -0.57762311173E+01  0.82046985114E+02 -0.43551221436E+02  0.12263459405E+03  0.79859014244E+02 0.  0.
          5    1    3    3  501    0  0.18066698702E+02 -0.39017001575E+02 -0.38206842657E+02  0.57711219358E+02  0.47000000000E+01 0. -1.
        -11    1    4    4    0    0 -0.12176027444E+02  0.14455819931E+02  0.16307650888E+02  0.24963290081E+02  0.00000000000E+00 0.  1.
         12    1    4    4    0    0  0.82421633143E+02 -0.33361201398E+02  0.99997443300E+02  0.13381249581E+03  0.00000000000E+00 0. -1.
         -5    1    5    5    0  502 -0.82536073284E+02 -0.24124602072E+02 -0.38856928029E+02  0.94478307955E+02  0.47000000000E+01 0.  1.
         11    1    6    6    0    0 -0.82334808291E+01  0.84310412929E+01 -0.47433460398E+02  0.48875411294E+02  0.00000000000E+00 0. -1.
        -12    1    6    6    0    0  0.24572497118E+01  0.73615943821E+02  0.38822389627E+01  0.73759182752E+02  0.00000000000E+00 0.  1.
</event>
<event>
12    1  0.1066489E+000  0.2411855E+03  0.7818608E-02  0.1119104E+00
         21   -1    0    0  501  502  0.00000000000E+00  0.00000000000E+00  0.14817720130E+03  0.14817720130E+03  0.00000000000E+00 0.  1.
         21   -1    0    0  502  503 -0.00000000000E+00 -0.00000000000E+00 -0.41982553466E+03  0.41982553466E+03  0.00000000000E+00 0.  1.
         -6    2    1    2    0  503 -0.16697375826E+03 -0.27379443573E+02 -0.20960472452E+03  0.31953811829E+03  0.17187378689E+03 0.  0.
        -24    2    3    3    0    0 -0.54101010722E+02  0.43432098140E+02 -0.10895753893E+03  0.15248579851E+03  0.81036454434E+02 0.  0.
          6    2    1    2  501    0  0.16697375826E+03  0.27379443573E+02 -0.62043608841E+02  0.24846461768E+03  0.17104206197E+03 0.  0.
         24    2    5    5    0    0  0.24248115594E+02 -0.16610684475E+02 -0.46465012440E+02  0.98229724577E+02  0.81401446307E+02 0.  0.
          5    1    5    5  501    0  0.14272564266E+03  0.43990128048E+02 -0.15578596401E+02  0.15023489310E+03  0.47000000000E+01 0. -1.
        -13    1    6    6    0    0  0.29401383779E+02 -0.27944403644E+02 -0.64572026885E+02  0.76255345512E+02  0.00000000000E+00 0.  1.
         14    1    6    6    0    0 -0.51532681845E+01  0.11333719169E+02  0.18107014445E+02  0.21974379065E+02  0.00000000000E+00 0. -1.
         -5    1    3    3    0  503 -0.11287274754E+03 -0.70811541713E+02 -0.10064718559E+03  0.16705231978E+03  0.47000000000E+01 0.  1.
         11    1    4    4    0    0 -0.67820542706E+00 -0.15198894373E+02  0.27711221389E+01  0.15464328976E+02  0.00000000000E+00 0. -1.
        -12    1    4    4    0    0 -0.53422805295E+02  0.58630992513E+02 -0.11172866107E+03  0.13702146953E+03  0.00000000000E+00 0.  1.
</event>
<event>
12    1  0.1066489E+000  0.2464166E+03  0.7818608E-02  0.1115753E+00
         21   -1    0    0  501  502  0.00000000000E+00  0.00000000000E+00  0.25185088158E+03  0.25185088158E+03  0.00000000000E+00 0.  1.
         21   -1    0    0  502  503 -0.00000000000E+00 -0.00000000000E+00 -0.25000225418E+03  0.25000225418E+03  0.00000000000E+00 0.  1.
         -6    2    1    2    0  503  0.17533044124E+03  0.19272323535E+02 -0.48972857528E+02  0.25025032932E+03  0.17063030349E+03 0.  0.
        -24    2    3    3    0    0  0.14093872788E+03  0.20315066783E+02  0.28079208208E+02  0.16573412912E+03  0.80018327076E+02 0.  0.
          6    2    1    2  501    0 -0.17533044124E+03 -0.19272323535E+02  0.50821484926E+02  0.25160280644E+03  0.17207255097E+03 0.  0.
         24    2    5    5    0    0 -0.13811380432E+03  0.37178843263E+02 -0.48385671332E+01  0.16389907965E+03  0.79886214388E+02 0.  0.
          5    1    5    5  501    0 -0.37216636927E+02 -0.56451166798E+02  0.55660052060E+02  0.87703726787E+02  0.47000000000E+01 0. -1.
        -13    1    6    6    0    0 -0.40056947745E+02  0.60733264561E+01 -0.38269035142E+02  0.55731170879E+02  0.00000000000E+00 0.  1.
         14    1    6    6    0    0 -0.98056856572E+02  0.31105516807E+02  0.33430468009E+02  0.10816790877E+03  0.00000000000E+00 0. -1.
         -5    1    3    3    0  503  0.34391713366E+02 -0.10427432481E+01 -0.77052065735E+02  0.84516200197E+02  0.47000000000E+01 0.  1.
         13    1    4    4    0    0  0.87484675977E+02  0.32484223844E+02 -0.16879082131E+02  0.94835102906E+02  0.00000000000E+00 0. -1.
        -14    1    4    4    0    0  0.53454051900E+02 -0.12169157061E+02  0.44958290339E+02  0.70899026215E+02  0.00000000000E+00 0.  1.
</event>
<event>
12    1  0.1066489E+000  0.2181426E+03  0.7818608E-02  0.1136133E+00
         21   -1    0    0  503  502  0.00000000000E+00  0.00000000000E+00  0.10342116747E+03  0.10342116747E+03  0.00000000000E+00 0.  1.
         21   -1    0    0  501  503 -0.00000000000E+00 -0.00000000000E+00 -0.50028480203E+03  0.50028480203E+03  0.00000000000E+00 0.  1.
          6    2    1    2  501    0 -0.77757475464E+01  0.12640971800E+03 -0.10524868686E+03  0.24220543632E+03  0.17761280427E+03 0.  0.
         24    2    3    3    0    0 -0.73949958412E+02  0.82375544713E+02 -0.88806603234E+02  0.16090065962E+03  0.75816111553E+02 0.  0.
         -6    2    1    2    0  502  0.77757475464E+01 -0.12640971800E+03 -0.29161494770E+03  0.36150053318E+03  0.17205661486E+03 0.  0.
        -24    2    5    5    0    0 -0.53228656742E+02 -0.11405479264E+03 -0.18414180664E+03  0.23721558811E+03  0.80754223825E+02 0.  0.
          5    1    3    3  501    0  0.66174210866E+02  0.44034173287E+02 -0.16442083631E+02  0.81304776704E+02  0.47000000000E+01 0. -1.
        -11    1    4    4    0    0 -0.39874690985E+02  0.33110705165E+02  0.22833466423E+01  0.51879894464E+02  0.00000000000E+00 0.  1.
         12    1    4    4    0    0 -0.34075267427E+02  0.49264839548E+02 -0.91089949876E+02  0.10902076515E+03  0.00000000000E+00 0. -1.
         -5    1    5    5    0  502  0.61004404288E+02 -0.12354925355E+02 -0.10747314106E+03  0.12428494508E+03  0.47000000000E+01 0.  1.
         11    1    6    6    0    0 -0.55111412868E+02 -0.72974579042E+02 -0.17121912098E+03  0.19410961955E+03  0.00000000000E+00 0. -1.
        -12    1    6    6    0    0  0.18827561269E+01 -0.41080213603E+02 -0.12922685659E+02  0.43105968554E+02  0.00000000000E+00 0.  1.
</event>
<event>
12    1  0.1066489E+000  0.3066337E+03  0.7818608E-02  0.1082007E+00
         21   -1    0    0  501  502  0.00000000000E+00  0.00000000000E+00  0.12353430086E+03  0.12353430086E+03  0.00000000000E+00 0. -1.
         21   -1    0    0  502  503 -0.00000000000E+00 -0.00000000000E+00 -0.83884243712E+03  0.83884243712E+03  0.00000000000E+00 0. -1.
         -6    2    1    2    0  503  0.21613415966E+03 -0.13232785690E+03 -0.50467109724E+03  0.59036571674E+03  0.17208755455E+03 0.  0.
        -24    2    3    3    0    0  0.19459728439E+03 -0.71136016157E+02 -0.28493206525E+03  0.36120286951E+03  0.79704424286E+02 0.  0.
          6    2    1    2  501    0 -0.21613415966E+03  0.13232785690E+03 -0.21063703902E+03  0.37201102124E+03  0.17262560942E+03 0.  0.
         24    2    5    5    0    0 -0.81695128713E+02  0.78661786496E+02 -0.32631730890E+02  0.14252925752E+03  0.79924893981E+02 0.  0.
          5    1    5    5  501    0 -0.13443903095E+03  0.53666070406E+02 -0.17800530813E+03  0.22948176372E+03  0.47000000000E+01 0. -1.
        -13    1    6    6    0    0 -0.77439474139E+02  0.20098162353E+02 -0.20026552345E+02  0.82473456844E+02  0.00000000000E+00 0.  1.
         14    1    6    6    0    0 -0.42556545743E+01  0.58563624143E+02 -0.12605178545E+02  0.60055800676E+02  0.00000000000E+00 0. -1.
         -5    1    3    3    0  503  0.21536875271E+02 -0.61191840745E+02 -0.21973903199E+03  0.22916284723E+03  0.47000000000E+01 0.  1.
         11    1    4    4    0    0  0.19888137864E+03 -0.56796898030E+02 -0.26167468460E+03  0.33354659488E+03  0.00000000000E+00 0. -1.
        -12    1    4    4    0    0 -0.42840942430E+01 -0.14339118128E+02 -0.23257380647E+02  0.27656274636E+02  0.00000000000E+00 0.  1.
</event>
<event>
12    1  0.1836345E+000  0.3849097E+03  0.7818608E-02  0.1049206E+00
         21   -1    0    0  501  502  0.00000000000E+00  0.00000000000E+00  0.17320137531E+04  0.17320137531E+04  0.00000000000E+00 0. -1.
         21   -1    0    0  502  503 -0.00000000000E+00 -0.00000000000E+00 -0.31021509101E+03  0.31021509101E+03  0.00000000000E+00 0. -1.
         -6    2    1    2    0  503 -0.28069972992E+01 -0.34443187986E+03  0.15800411399E+04  0.16260604576E+04  0.17000414436E+03 0.  0.
        -24    2    3    3    0    0  0.10667824198E+02 -0.22023357740E+03  0.12741008878E+04  0.12955633820E+04  0.80837945752E+02 0.  0.
          6    2    1    2  501    0  0.28069972992E+01  0.34443187986E+03 -0.15824247776E+03  0.41616838650E+03  0.17179710434E+03 0.  0.
         24    2    5    5    0    0 -0.26311910437E+01  0.35740258385E+03 -0.13841377602E+03  0.39140792473E+03  0.79361577823E+02 0.  0.
          5    1    5    5  501    0  0.54381883429E+01 -0.12970703996E+02 -0.19828701742E+02  0.24760461776E+02  0.47000000000E+01 0. -1.
        -11    1    6    6    0    0 -0.39501317552E+01  0.50120345181E+02  0.81966110349E+01  0.50939542346E+02  0.00000000000E+00 0.  1.
         12    1    6    6    0    0  0.13189407115E+01  0.30728223867E+03 -0.14661038705E+03  0.34046838238E+03  0.00000000000E+00 0. -1.
         -5    1    3    3    0  503 -0.13474821497E+02 -0.12419830246E+03  0.30594025211E+03  0.33049707564E+03  0.47000000000E+01 0.  1.
         11    1    4    4    0    0 -0.34230056248E+02 -0.68050091889E+02  0.41165932547E+03  0.41864771826E+03  0.00000000000E+00 0. -1.
        -12    1    4    4    0    0  0.44897880446E+02 -0.15218348552E+03  0.86244156229E+03  0.87691566373E+03  0.00000000000E+00 0.  1.
</event>
<event>
12    1  0.1066489E+000  0.1854198E+03  0.7818608E-02  0.1168198E+00
         21   -1    0    0  501  502  0.00000000000E+00  0.00000000000E+00  0.30653105953E+03  0.30653105953E+03  0.00000000000E+00 0.  1.
         21   -1    0    0  502  503 -0.00000000000E+00 -0.00000000000E+00 -0.38483815834E+03  0.38483815834E+03  0.00000000000E+00 0.  1.
         -6    2    1    2    0  503  0.11333283415E+02 -0.59459329314E+02  0.25790884226E+03  0.31764361155E+03  0.17526162697E+03 0.  0.
        -24    2    3    3    0    0 -0.53593012013E+02 -0.67946315136E+02  0.12142219999E+03  0.16619016562E+03  0.73395557232E+02 0.  0.
          6    2    1    2  501    0 -0.11333283415E+02  0.59459329314E+02 -0.33621594106E+03  0.37372560632E+03  0.15154476118E+03 0.  0.
         24    2    5    5    0    0  0.18119603514E+02  0.36850180116E+02 -0.98677461683E+02  0.13325676144E+03  0.79585596799E+02 0.  0.
          5    1    5    5  501    0 -0.29452886929E+02  0.22609149198E+02 -0.23753847938E+03  0.24046884489E+03  0.47000000000E+01 0. -1.
        -13    1    6    6    0    0 -0.29088397734E+02 -0.89358907029E+00 -0.33071576734E+02  0.44052951908E+02  0.00000000000E+00 0.  1.
         14    1    6    6    0    0  0.47208001247E+02  0.37743769186E+02 -0.65605884949E+02  0.89203809527E+02  0.00000000000E+00 0. -1.
         -5    1    3    3    0  503  0.64926295428E+02  0.84869858224E+01  0.13648664226E+03  0.15145344592E+03  0.47000000000E+01 0.  1.
         13    1    4    4    0    0 -0.20792779907E+02 -0.15294722728E+01  0.77097431002E+02  0.79866719281E+02  0.00000000000E+00 0. -1.
        -14    1    4    4    0    0 -0.32800232106E+02 -0.66416842864E+02  0.44324768991E+02  0.86323446342E+02  0.00000000000E+00 0.  1.
</event>
<event>
12    1  0.1066489E+000  0.2993654E+03  0.7818608E-02  0.1085986E+00
         21   -1    0    0  501  502  0.00000000000E+00  0.00000000000E+00  0.10972875178E+03  0.10972875178E+03  0.00000000000E+00 0.  1.
         21   -1    0    0  502  503 -0.00000000000E+00 -0.00000000000E+00 -0.81204768227E+03  0.81204768227E+03  0.00000000000E+00 0.  1.
         -6    2    1    2    0  503  0.24001559398E+03 -0.49963236665E+02 -0.31872333079E+03  0.43726902564E+03  0.17180171367E+03 0.  0.
        -24    2    3    3    0    0  0.16694408192E+03 -0.10062724585E+03 -0.22492851635E+03  0.30794058748E+03  0.78983535333E+02 0.  0.
          6    2    1    2  501    0 -0.24001559398E+03  0.49963236665E+02 -0.38359559969E+03  0.48450740841E+03  0.16582531270E+03 0.  0.
         24    2    5    5    0    0 -0.13451050464E+03  0.92967013007E+02 -0.22618039881E+03  0.29013075312E+03  0.79261212016E+02 0.  0.
          5    1    5    5  501    0 -0.10550508934E+03 -0.43003776342E+02 -0.15741520088E+03  0.19437665530E+03  0.47000000000E+01 0. -1.
        -13    1    6    6    0    0 -0.10976147129E+03  0.43907974433E+02 -0.10940914510E+03  0.16107716110E+03  0.00000000000E+00 0.  1.
         14    1    6    6    0    0 -0.24749033358E+02  0.49059038574E+02 -0.11677125371E+03  0.12905359202E+03  0.00000000000E+00 0. -1.
         -5    1    3    3    0  503  0.73071512057E+02  0.50664009182E+02 -0.93794814442E+02  0.12932843816E+03  0.47000000000E+01 0.  1.
         13    1    4    4    0    0  0.13387034517E+03 -0.49291155849E+02 -0.18998549170E+03  0.23758235291E+03  0.00000000000E+00 0. -1.
        -14    1    4    4    0    0  0.33073736754E+02 -0.51336089997E+02 -0.34943024648E+02  0.70358234562E+02  0.00000000000E+00 0.  1.
</event>
<event>
12    1  0.1066489E+000  0.2136237E+03  0.7818608E-02  0.1139507E+00
         21   -1    0    0  501  502  0.00000000000E+00  0.00000000000E+00  0.39387175321E+03  0.39387175321E+03  0.00000000000E+00 0. -1.
         21   -1    0    0  502  503 -0.00000000000E+00 -0.00000000000E+00 -0.11377550703E+03  0.11377550703E+03  0.00000000000E+00 0. -1.
         -6    2    1    2    0  503  0.74462434649E+02 -0.93376342750E+02  0.14469630776E+03  0.25472784929E+03  0.17229468990E+03 0.  0.
        -24    2    3    3    0    0 -0.16871222430E+02 -0.24903700676E+02  0.24863869198E+02  0.89161418640E+02  0.80166789437E+02 0.  0.
          6    2    1    2  501    0 -0.74462434649E+02  0.93376342750E+02  0.13539993842E+03  0.25291941095E+03  0.17711942172E+03 0.  0.
         24    2    5    5    0    0 -0.55153793397E+02  0.73378608428E+02  0.16985655967E+03  0.20839883421E+03  0.78437632141E+02 0.  0.
          5    1    5    5  501    0 -0.19308641251E+02  0.19997734321E+02 -0.34456621249E+02  0.44520576735E+02  0.47000000000E+01 0. -1.
        -11    1    6    6    0    0 -0.44595601929E+02  0.65962202832E+02  0.65093643642E+02  0.10284435987E+03  0.00000000000E+00 0.  1.
         12    1    6    6    0    0 -0.10558191468E+02  0.74164055968E+01  0.10476291603E+03  0.10555447434E+03  0.00000000000E+00 0. -1.
         -5    1    3    3    0  503  0.91333657079E+02 -0.68472642073E+02  0.11983243856E+03  0.16556643066E+03  0.47000000000E+01 0.  1.
         13    1    4    4    0    0  0.20495357162E+02 -0.29922761856E+02 -0.10198309501E+02  0.37675414516E+02  0.00000000000E+00 0. -1.
        -14    1    4    4    0    0 -0.37366579592E+02  0.50190611792E+01  0.35062178700E+02  0.51486004124E+02  0.00000000000E+00 0.  1.
</event>
<event>
12    1  0.1066489E+000  0.2395806E+03  0.7818608E-02  0.1120212E+00
         21   -1    0    0  501  502  0.00000000000E+00  0.00000000000E+00  0.44443318329E+03  0.44443318329E+03  0.00000000000E+00 0.  1.
         21   -1    0    0  502  503 -0.00000000000E+00 -0.00000000000E+00 -0.18781177595E+03  0.18781177595E+03  0.00000000000E+00 0.  1.
         -6    2    1    2    0  503  0.16626031016E+03  0.34401406402E+01 -0.48884986054E+02  0.24451711653E+03  0.17246609265E+03 0.  0.
        -24    2    3    3    0    0  0.74043573421E+02  0.34454609101E+02 -0.82411173342E+02  0.14150294749E+03  0.81005628225E+02 0.  0.
          6    2    1    2  501    0 -0.16626031016E+03 -0.34401406402E+01  0.30550639340E+03  0.38772784270E+03  0.17130206740E+03 0.  0.
         24    2    5    5    0    0 -0.32319801264E+02 -0.19313110743E+01  0.44023167194E+02  0.93894719863E+02  0.76353648585E+02 0.  0.
          5    1    5    5  501    0 -0.13394050890E+03 -0.15088295659E+01  0.26148322620E+03  0.29383312284E+03  0.47000000000E+01 0. -1.
        -13    1    6    6    0    0 -0.16909824772E+02  0.11772587107E+02 -0.18726873356E+02  0.27842984156E+02  0.00000000000E+00 0.  1.
         14    1    6    6    0    0 -0.15409976492E+02 -0.13703898182E+02  0.62750040550E+02  0.66051735707E+02  0.00000000000E+00 0. -1.
         -5    1    3    3    0  503  0.92216736743E+02 -0.31014468461E+02  0.33526187288E+02  0.10301416904E+03  0.47000000000E+01 0.  1.
         13    1    4    4    0    0  0.47561317958E+02 -0.17312232754E+02 -0.15669479323E+02  0.52984195295E+02  0.00000000000E+00 0. -1.
        -14    1    4    4    0    0  0.26482255463E+02  0.51766841855E+02 -0.66741694019E+02  0.88518752197E+02  0.00000000000E+00 0.  1.
</event>
<event>
12    1  0.1066489E+000  0.2781108E+03  0.7818608E-02  0.1096815E+00
         21   -1    0    0  503  502  0.00000000000E+00  0.00000000000E+00  0.40174459340E+03  0.40174459340E+03  0.00000000000E+00 0. -1.
         21   -1    0    0  501  503 -0.00000000000E+00 -0.00000000000E+00 -0.34876307092E+03  0.34876307092E+03  0.00000000000E+00 0. -1.
          6    2    1    2  501    0 -0.17154977396E+03 -0.13559514605E+03  0.27803256436E+03  0.39325277017E+03  0.17184372500E+03 0.  0.
         24    2    3    3    0    0 -0.12150143968E+03 -0.12619347661E+03  0.11826280810E+03  0.22549791280E+03  0.78586407971E+02 0.  0.
         -6    2    1    2    0  502  0.17154977396E+03  0.13559514605E+03 -0.22505104187E+03  0.35725489415E+03  0.17078559473E+03 0.  0.
        -24    2    5    5    0    0  0.10366871620E+03  0.60309024411E+02 -0.20849446836E+03  0.25443442809E+03  0.82961157885E+02 0.  0.
          5    1    3    3  501    0 -0.50048334287E+02 -0.94016694357E+01  0.15976975626E+03  0.16775485737E+03  0.47000000000E+01 0. -1.
        -11    1    4    4    0    0 -0.13964287629E+02  0.78716557022E+01 -0.13793685776E+01  0.16089342751E+02  0.00000000000E+00 0.  1.
         12    1    4    4    0    0 -0.10753715205E+03 -0.13406513231E+03  0.11964217667E+03  0.20940857005E+03  0.00000000000E+00 0. -1.
         -5    1    5    5    0  502  0.67881057758E+02  0.75286121635E+02 -0.16556573513E+02  0.10282046605E+03  0.47000000000E+01 0.  1.
         13    1    6    6    0    0  0.34828270843E-01 -0.25461504927E-01 -0.74953238166E+02  0.74953250583E+02  0.00000000000E+00 0. -1.
        -14    1    6    6    0    0  0.10363388793E+03  0.60334485916E+02 -0.13354123020E+03  0.17948117751E+03  0.00000000000E+00 0.  1.
</event>
<event>
12    1  0.1066489E+000  0.3372333E+03  0.7818608E-02  0.1068041E+00
         21   -1    0    0  501  502  0.00000000000E+00  0.00000000000E+00  0.87055437316E+03  0.87055437316E+03  0.00000000000E+00 0.  1.
         21   -1    0    0  502  503 -0.00000000000E+00 -0.00000000000E+00 -0.13042036364E+03  0.13042036364E+03  0.00000000000E+00 0.  1.
         -6    2    1    2    0  503 -0.28556161192E+03 -0.51839391395E+02  0.36890564257E+03  0.49944027477E+03  0.17063545423E+03 0.  0.
        -24    2    3    3    0    0 -0.20491546827E+03  0.14119768137E+02  0.18338247415E+03  0.28661323881E+03  0.79550611881E+02 0.  0.
          6    2    1    2  501    0  0.28556161192E+03  0.51839391395E+02  0.37122836695E+03  0.50153446202E+03  0.17173689024E+03 0.  0.
         24    2    5    5    0    0  0.16960570227E+03  0.38422673126E+02  0.32453725695E+03  0.37572535637E+03  0.74851294055E+02 0.  0.
          5    1    5    5  501    0  0.11595590965E+03  0.13416718269E+02  0.46691110000E+02  0.12580910565E+03  0.47000000000E+01 0. -1.
        -13    1    6    6    0    0  0.12091465856E+02  0.19465808015E+02  0.87817381538E+02  0.90757995397E+02  0.00000000000E+00 0.  1.
         14    1    6    6    0    0  0.15751423641E+03  0.18956865111E+02  0.23671987541E+03  0.28496736097E+03  0.00000000000E+00 0. -1.
         -5    1    3    3    0  503 -0.80646143648E+02 -0.65959159532E+02  0.18552316842E+03  0.21282703596E+03  0.47000000000E+01 0.  1.
         11    1    4    4    0    0 -0.76636616192E+02 -0.26525114946E+02  0.98183927507E+02  0.12734534261E+03  0.00000000000E+00 0. -1.
        -12    1    4    4    0    0 -0.12827885208E+03  0.40644883082E+02  0.85198546643E+02  0.15926789620E+03  0.00000000000E+00 0.  1.
</event>
<event>
12    1  0.1066489E+000  0.3972970E+03  0.7818608E-02  0.1044832E+00
         21   -1    0    0  503  502  0.00000000000E+00  0.00000000000E+00  0.12518334662E+03  0.12518334662E+03  0.00000000000E+00 0.  1.
         21   -1    0    0  501  503 -0.00000000000E+00 -0.00000000000E+00 -0.13260244796E+04  0.13260244796E+04  0.00000000000E+00 0.  1.
          6    2    1    2  501    0 -0.35707909878E+03 -0.79479518459E+01 -0.43558908638E+03  0.58956148740E+03  0.17400069689E+03 0.  0.
         24    2    3    3    0    0 -0.20951177180E+03 -0.69467838777E+02 -0.28765295356E+03  0.37168996132E+03  0.81781675852E+02 0.  0.
         -6    2    1    2    0  502  0.35707909878E+03  0.79479518459E+01 -0.76525204659E+03  0.86164633882E+03  0.17104112272E+03 0.  0.
        -24    2    5    5    0    0  0.25429218395E+03  0.70835427405E+02 -0.54237813155E+03  0.60823983446E+03  0.78099206482E+02 0.  0.
          5    1    3    3  501    0 -0.14756732698E+03  0.61519886932E+02 -0.14793613282E+03  0.21787152608E+03  0.47000000000E+01 0. -1.
        -11    1    4    4    0    0 -0.29521158682E+02 -0.41279574806E+02 -0.42135979006E+02  0.65961677002E+02  0.00000000000E+00 0.  1.
         12    1    4    4    0    0 -0.17999061312E+03 -0.28188263971E+02 -0.24551697455E+03  0.30572828431E+03  0.00000000000E+00 0. -1.
         -5    1    5    5    0  502  0.10278691484E+03 -0.62887475559E+02 -0.22287391504E+03  0.25340650436E+03  0.47000000000E+01 0.  1.
         13    1    6    6    0    0  0.20234733632E+03  0.77054683568E+02 -0.48167950110E+03  0.52810700673E+03  0.00000000000E+00 0. -1.
        -14    1    6    6    0    0  0.51944847632E+02 -0.62192561628E+01 -0.60698630449E+02  0.80132827736E+02  0.00000000000E+00 0.  1.
</event>
<event>
12    1  0.1066489E+000  0.2358235E+03  0.7818608E-02  0.1122618E+00
         21   -1    0    0  501  502  0.00000000000E+00  0.00000000000E+00  0.10780191165E+04  0.10780191165E+04  0.00000000000E+00 0.  1.
         21   -1    0    0  502  503 -0.00000000000E+00 -0.00000000000E+00 -0.58112466460E+02  0.58112466460E+02  0.00000000000E+00 0.  1.
         -6    2    1    2    0  503  0.15620196848E+03  0.23691054945E+02  0.31934355653E+03  0.39694190412E+03  0.17499213440E+03 0.  0.
        -24    2    3    3    0    0  0.44035170957E+02  0.37897818049E+02  0.23649566923E+03  0.25669538896E+03  0.81160213481E+02 0.  0.
          6    2    1    2  501    0 -0.15620196848E+03 -0.23691054945E+02  0.70056309350E+03  0.73918967883E+03  0.17507830328E+03 0.  0.
         24    2    5    5    0    0 -0.25423929501E+02 -0.55430123368E+02  0.32792034332E+03  0.34296376701E+03  0.79834323116E+02 0.  0.
          5    1    5    5  501    0 -0.13077803898E+03  0.31739068423E+02  0.37264275017E+03  0.39622591182E+03  0.47000000000E+01 0. -1.
        -11    1    6    6    0    0 -0.68767833542E+01 -0.50363641214E+02  0.31659461537E+03  0.32064924292E+03  0.00000000000E+00 0.  1.
         12    1    6    6    0    0 -0.18547146147E+02 -0.50664821539E+01  0.11325727959E+02  0.22314524091E+02  0.00000000000E+00 0. -1.
         -5    1    3    3    0  503  0.11216679752E+03 -0.14206763104E+02  0.82847887303E+02  0.14024651516E+03  0.47000000000E+01 0.  1.
         13    1    4    4    0    0  0.16950575499E+02  0.13728606440E+02  0.50099393832E+01  0.22380709040E+02  0.00000000000E+00 0. -1.
        -14    1    4    4    0    0  0.27084595458E+02  0.24169211609E+02  0.23148572985E+03  0.23431467992E+03  0.00000000000E+00 0.  1.
</event>
<event>
12    1  0.1066489E+000  0.1852078E+03  0.7818608E-02  0.1163693E+00
         21   -1    0    0  501  502  0.00000000000E+00  0.00000000000E+00  0.13215219580E+03  0.13215219580E+03  0.00000000000E+00 0. -1.
         21   -1    0    0  502  503 -0.00000000000E+00 -0.00000000000E+00 -0.25680223081E+03  0.25680223081E+03  0.00000000000E+00 0. -1.
         -6    2    1    2    0  503 -0.56051143328E+02 -0.12253144458E+01 -0.44950132945E+02  0.19058450185E+03  0.17651828753E+03 0.  0.
        -24    2    3    3    0    0  0.11292989200E+01 -0.25112766430E+02  0.35456046232E+02  0.88960405362E+02  0.77620204547E+02 0.  0.
          6    2    1    2  501    0  0.56051143328E+02  0.12253144458E+01 -0.79699902062E+02  0.19836992476E+03  0.17278692253E+03 0.  0.
         24    2    5    5    0    0 -0.14390271871E+02 -0.16464368541E+02  0.89013043639E+01  0.83708764640E+02  0.80310452011E+02 0.  0.
          5    1    5    5  501    0  0.70441415199E+02  0.17689682987E+02 -0.88601206425E+02  0.11466116012E+03  0.47000000000E+01 0. -1.
        -13    1    6    6    0    0  0.12349207518E+01 -0.36511501115E+02 -0.22809772896E+02  0.43068555612E+02  0.00000000000E+00 0.  1.
         14    1    6    6    0    0 -0.15625192623E+02  0.20047132574E+02  0.31711077260E+02  0.40640209029E+02  0.00000000000E+00 0. -1.
         -5    1    3    3    0  503 -0.57180442248E+02  0.23887451985E+02 -0.80406179177E+02  0.10162409649E+03  0.47000000000E+01 0.  1.
         13    1    4    4    0    0  0.63545310339E+01 -0.52813253583E+02  0.20139410206E+02  0.56878956232E+02  0.00000000000E+00 0. -1.
        -14    1    4    4    0    0 -0.52252321139E+01  0.27700487152E+02  0.15316636026E+02  0.32081449130E+02  0.00000000000E+00 0.  1.
</event>
<event>
12    1  0.1066489E+000  0.2556560E+03  0.7818608E-02  0.1110067E+00
         21   -1    0    0  501  502  0.00000000000E+00  0.00000000000E+00  0.12619595612E+04  0.12619595612E+04  0.00000000000E+00 0.  1.
         21   -1    0    0  502  503 -0.00000000000E+00 -0.00000000000E+00 -0.53628335589E+02  0.53628335589E+02  0.00000000000E+00 0.  1.
         -6    2    1    2    0  503  0.14266218872E+03 -0.12250160136E+03  0.73980201454E+03  0.78273049000E+03  0.17320755421E+03 0.  0.
        -24    2    3    3    0    0  0.17247788439E+03 -0.97295793875E+02  0.58121841111E+03  0.61934396144E+03  0.80975360735E+02 0.  0.
          6    2    1    2  501    0 -0.14266218872E+03  0.12250160136E+03  0.46852921110E+03  0.53285740682E+03  0.17046481138E+03 0.  0.
         24    2    5    5    0    0 -0.14049681820E+03  0.45589574475E+02  0.37789334499E+03  0.41387379898E+03  0.81672370278E+02 0.  0.
          5    1    5    5  501    0 -0.21653705196E+01  0.76912026886E+02  0.90635866108E+02  0.11898360784E+03  0.47000000000E+01 0. -1.
        -13    1    6    6    0    0 -0.67035145460E+02  0.75694371144E+01  0.79687610251E+02  0.10440843995E+03  0.00000000000E+00 0.  1.
         14    1    6    6    0    0 -0.73461672736E+02  0.38020137360E+02  0.29820573474E+03  0.30946535903E+03  0.00000000000E+00 0. -1.
         -5    1    3    3    0  503 -0.29815695672E+02 -0.25205807486E+02  0.15858360343E+03  0.16338652856E+03  0.47000000000E+01 0.  1.
         11    1    4    4    0    0  0.33605321089E+02 -0.55328975096E+02  0.12743985737E+03  0.14293890422E+03  0.00000000000E+00 0. -1.
        -12    1    4    4    0    0  0.13887256330E+03 -0.41966818779E+02  0.45377855374E+03  0.47640505722E+03  0.00000000000E+00 0.  1.
</event>
<event>
12    1  0.1066489E+000  0.1951131E+03  0.7818608E-02  0.1154158E+00
         21   -1    0    0  503  502  0.00000000000E+00  0.00000000000E+00  0.18624001451E+04  0.18624001451E+04  0.00000000000E+00 0. -1.
         21   -1    0    0  501  503 -0.00000000000E+00 -0.00000000000E+00 -0.21157031218E+02  0.21157031218E+02  0.00000000000E+00 0. -1.
          6    2    1    2  501    0  0.68155282529E+02  0.60318479297E+02  0.73218199955E+03  0.75746407575E+03  0.17139977861E+03 0.  0.
         24    2    3    3    0    0  0.10638433957E+03  0.17284756981E+02  0.56486991700E+03  0.58046468303E+03  0.79024265747E+02 0.  0.
         -6    2    1    2    0  502 -0.68155282529E+02 -0.60318479297E+02  0.11090611143E+04  0.11260931005E+04  0.17258520892E+03 0.  0.
        -24    2    5    5    0    0 -0.67653239931E+02 -0.63164168454E+02  0.42757862928E+03  0.44458828222E+03  0.79174386158E+02 0.  0.
          5    1    3    3  501    0 -0.38229057040E+02  0.43033722316E+02  0.16731208254E+03  0.17699939272E+03  0.47000000000E+01 0. -1.
        -13    1    4    4    0    0  0.72350354610E+02 -0.26409355567E+02  0.28878637672E+03  0.29888057691E+03  0.00000000000E+00 0.  1.
         14    1    4    4    0    0  0.34033984958E+02  0.43694112548E+02  0.27608354028E+03  0.28158410611E+03  0.00000000000E+00 0. -1.
         -5    1    5    5    0  502 -0.50204259798E+00  0.28456891562E+01  0.68148248501E+03  0.68150481830E+03  0.47000000000E+01 0.  1.
         13    1    6    6    0    0 -0.20815867363E+01 -0.24010167862E+02  0.25160499644E+03  0.25275659318E+03  0.00000000000E+00 0. -1.
        -14    1    6    6    0    0 -0.65571653194E+02 -0.39154000592E+02  0.17597363284E+03  0.19183168904E+03  0.00000000000E+00 0.  1.
</event>
<event>
12    1  0.1066489E+000  0.1819605E+03  0.7818608E-02  0.1165963E+00
         21   -1    0    0  501  502  0.00000000000E+00  0.00000000000E+00  0.10697452595E+03  0.10697452595E+03  0.00000000000E+00 0.  1.
         21   -1    0    0  502  503 -0.00000000000E+00 -0.00000000000E+00 -0.30923891619E+03  0.30923891619E+03  0.00000000000E+00 0.  1.
         -6    2    1    2    0  503  0.41307530299E+02 -0.42606379739E+02 -0.98541069021E+02  0.20676617676E+03  0.17181470809E+03 0.  0.
        -24    2    3    3    0    0 -0.10925159723E+02 -0.74137422702E+02 -0.11141573583E+03  0.14423372421E+03  0.52670527328E+02 0.  0.
          6    2    1    2  501    0 -0.41307530299E+02  0.42606379739E+02 -0.10372332122E+03  0.20944726538E+03  0.17201166808E+03 0.  0.
         24    2    5    5    0    0 -0.28995597816E+02 -0.41614538833E+02 -0.40628105305E+02  0.10339141651E+03  0.80415343892E+02 0.  0.
          5    1    5    5  501    0 -0.12311932483E+02  0.84220918572E+02 -0.63095215914E+02  0.10605584886E+03  0.47000000000E+01 0. -1.
        -11    1    6    6    0    0  0.27603481819E+02 -0.68966316485E+01 -0.15474898818E+02  0.32388087780E+02  0.00000000000E+00 0.  1.
         12    1    6    6    0    0 -0.56599079635E+02 -0.34717907184E+02 -0.25153206487E+02  0.71003328734E+02  0.00000000000E+00 0. -1.
         -5    1    3    3    0  503  0.52232690022E+02  0.31531042962E+02  0.12874666807E+02  0.62532452555E+02  0.47000000000E+01 0.  1.
         11    1    4    4    0    0 -0.27940465754E+02 -0.47097135048E+02 -0.46334039040E+02  0.71733206606E+02  0.00000000000E+00 0. -1.
        -12    1    4    4    0    0  0.17015306031E+02 -0.27040287654E+02 -0.65081696788E+02  0.72500517602E+02  0.00000000000E+00 0.  1.
</event>
<event>
12    1  0.1066489E+000  0.1733567E+03  0.7818608E-02  0.1174525E+00
         21   -1    0    0  501  502  0.00000000000E+00  0.00000000000E+00  0.11746182565E+03  0.11746182565E+03  0.00000000000E+00 0.  1.
         21   -1    0    0  502  503 -0.00000000000E+00 -0.00000000000E+00 -0.34427442013E+03  0.34427442013E+03  0.00000000000E+00 0.  1.
         -6    2    1    2    0  503 -0.91165235263E+01 -0.18817885733E+02  0.42344293261E+01  0.17288462149E+03  0.17156321905E+03 0.  0.
        -24    2    3    3    0    0 -0.64169954294E+02 -0.36015407211E+02  0.11635813837E+02  0.11454505106E+03  0.87007378819E+02 0.  0.
          6    2    1    2  501    0  0.91165235263E+01  0.18817885733E+02 -0.23104702380E+03  0.28885162430E+03  0.17209099287E+03 0.  0.
         24    2    5    5    0    0  0.25105704815E+02 -0.27531868706E+02 -0.22216610992E+03  0.23880250556E+03  0.79249959350E+02 0.  0.
          5    1    5    5  501    0 -0.15989181289E+02  0.46349754439E+02 -0.88809138864E+01  0.50049118737E+02  0.47000000000E+01 0. -1.
        -11    1    6    6    0    0 -0.17004139325E+02 -0.92670353737E+01 -0.16186583867E+03  0.16302014731E+03  0.00000000000E+00 0.  1.
         12    1    6    6    0    0  0.42109844140E+02 -0.18264833333E+02 -0.60300271247E+02  0.75782358254E+02  0.00000000000E+00 0. -1.
         -5    1    3    3    0  503  0.55053430768E+02  0.17197521478E+02 -0.74013845110E+01  0.58339570422E+02  0.47000000000E+01 0.  1.
         13    1    4    4    0    0  0.11793702088E+01 -0.14559603891E+02 -0.30546215617E+02  0.33859182921E+02  0.00000000000E+00 0. -1.
        -14    1    4    4    0    0 -0.65349324503E+02 -0.21455803320E+02  0.42182029454E+02  0.80685868143E+02  0.00000000000E+00 0.  1.
</event>
<event>
12    1  0.1066489E+000  0.3199410E+03  0.7818608E-02  0.1075830E+00
         21   -1    0    0  501  502  0.00000000000E+00  0.00000000000E+00  0.21755941466E+03  0.21755941466E+03  0.00000000000E+00 0.  1.
         21   -1    0    0  502  503 -0.00000000000E+00 -0.00000000000E+00 -0.14174186616E+04  0.14174186616E+04  0.00000000000E+00 0.  1.
         -6    2    1    2    0  503 -0.20663317593E+01  0.26969005085E+03  0.68519437952E+02  0.32719589334E+03  0.17211985937E+03 0.  0.
        -24    2    3    3    0    0 -0.75815319077E+01  0.10867396261E+03 -0.29532451765E+02  0.13853518948E+03  0.80326354595E+02 0.  0.
          6    2    1    2  501    0  0.20663317593E+01 -0.26969005085E+03 -0.12683786849E+04  0.13077821829E+04  0.16962534128E+03 0.  0.
         24    2    5    5    0    0 -0.41984243977E+02 -0.19418732443E+03 -0.10686386530E+04  0.10897012684E+04  0.77387919218E+02 0.  0.
          5    1    5    5  501    0  0.44050575736E+02 -0.75502726421E+02 -0.19974003196E+03  0.21808091454E+03  0.47000000000E+01 0. -1.
        -11    1    6    6    0    0 -0.33288325635E+02 -0.57154756736E+02 -0.51778693692E+03  0.52199433990E+03  0.00000000000E+00 0.  1.
         12    1    6    6    0    0 -0.86959183421E+01 -0.13703256769E+03 -0.55085171604E+03  0.56770692850E+03  0.00000000000E+00 0. -1.
         -5    1    3    3    0  503  0.55152001484E+01  0.16101608824E+03  0.98051889717E+02  0.18866070386E+03  0.47000000000E+01 0.  1.
         13    1    4    4    0    0  0.33747660259E+02  0.70701067700E+02 -0.93819208920E+01  0.78902255903E+02  0.00000000000E+00 0. -1.
        -14    1    4    4    0    0 -0.41329192167E+02  0.37972894909E+02 -0.20150530873E+02  0.59632933580E+02  0.00000000000E+00 0.  1.
</event>
<event>
12    1  0.1066489E+000  0.2327533E+03  0.7818608E-02  0.1124857E+00
         21   -1    0    0  501  502  0.00000000000E+00  0.00000000000E+00  0.24485288017E+03  0.24485288017E+03  0.00000000000E+00 0.  1.
         21   -1    0    0  502  503 -0.00000000000E+00 -0.00000000000E+00 -0.22049062032E+03  0.22049062032E+03  0.00000000000E+00 0.  1.
         -6    2    1    2    0  503  0.12311271987E+03  0.92905781621E+02  0.11204657129E+02  0.23302282191E+03  0.17431541852E+03 0.  0.
        -24    2    3    3    0    0  0.11985229564E+03  0.88748044548E+02 -0.46761760773E+02  0.17462665124E+03  0.77891057721E+02 0.  0.
          6    2    1    2  501    0 -0.12311271987E+03 -0.92905781621E+02  0.13157602720E+02  0.23232067858E+03  0.17323841702E+03 0.  0.
         24    2    5    5    0    0 -0.43336052877E+02 -0.57365654712E+02  0.69880317716E+02  0.12807590118E+03  0.79695331354E+02 0.  0.
          5    1    5    5  501    0 -0.79776666996E+02 -0.35540126909E+02 -0.56722714996E+02  0.10424477740E+03  0.47000000000E+01 0. -1.
        -13    1    6    6    0    0 -0.10237228989E+02  0.19845556399E+02  0.79285178368E+01  0.23696167648E+02  0.00000000000E+00 0.  1.
         14    1    6    6    0    0 -0.33098823889E+02 -0.77211211110E+02  0.61951799879E+02  0.10437973353E+03  0.00000000000E+00 0. -1.
         -5    1    3    3    0  503  0.32604242351E+01  0.41577370730E+01  0.57966417902E+02  0.58396170663E+02  0.47000000000E+01 0.  1.
         13    1    4    4    0    0  0.80745593160E+02  0.62476739837E+02  0.79777412166E+01  0.10240526447E+03  0.00000000000E+00 0. -1.
        -14    1    4    4    0    0  0.39106702479E+02  0.26271304712E+02 -0.54739501990E+02  0.72221386778E+02  0.00000000000E+00 0.  1.
</event>
<event>
12    1  0.1066489E+000  0.3563510E+03  0.7818608E-02  0.1060342E+00
         21   -1    0    0  501  502  0.00000000000E+00  0.00000000000E+00  0.39572495004E+03  0.39572495004E+03  0.00000000000E+00 0. -1.
         21   -1    0    0  502  503 -0.00000000000E+00 -0.00000000000E+00 -0.57279208208E+03  0.57279208208E+03  0.00000000000E+00 0. -1.
         -6    2    1    2    0  503 -0.22406869007E+03 -0.21510047378E+03 -0.41159948910E+03  0.54442643800E+03  0.17467402577E+03 0.  0.
        -24    2    3    3    0    0 -0.46473864658E+02 -0.13181370730E+02 -0.11776239908E+03  0.14608792410E+03  0.71694702026E+02 0.  0.
          6    2    1    2  501    0  0.22406869007E+03  0.21510047378E+03  0.23453235707E+03  0.42409059412E+03  0.16844112863E+03 0.  0.
         24    2    5    5    0    0  0.95253622449E+02  0.33272948804E+02  0.98553913665E+02  0.16300287408E+03  0.81711206982E+02 0.  0.
          5    1    5    5  501    0  0.12881506762E+03  0.18182752498E+03  0.13597844340E+03  0.26108772004E+03  0.47000000000E+01 0. -1.
        -11    1    6    6    0    0  0.41989875700E+01  0.31236428034E+02  0.51777739752E+02  0.60615841715E+02  0.00000000000E+00 0.  1.
         12    1    6    6    0    0  0.91054634879E+02  0.20365207700E+01  0.46776173913E+02  0.10238703236E+03  0.00000000000E+00 0. -1.
         -5    1    3    3    0  503 -0.17759482541E+03 -0.20191910305E+03 -0.29383709002E+03  0.39833851391E+03  0.47000000000E+01 0.  1.
         13    1    4    4    0    0  0.40861316528E+01 -0.14388374440E+02  0.29174217828E+01  0.15239197511E+02  0.00000000000E+00 0. -1.
        -14    1    4    4    0    0 -0.50559996311E+02  0.12070037104E+01 -0.12067982087E+03  0.13084872659E+03  0.00000000000E+00 0.  1.
</event>
<event>
12    1  0.1066489E+000  0.2966548E+03  0.7818608E-02  0.1087060E+00
         21   -1    0    0  501  502  0.00000000000E+00  0.00000000000E+00  0.36177612160E+03  0.36177612160E+03  0.00000000000E+00 0. -1.
         21   -1    0    0  502  503 -0.00000000000E+00 -0.00000000000E+00 -0.24837988130E+03  0.24837988130E+03  0.00000000000E+00 0.  1.
         -6    2    1    2    0  503 -0.82785753389E+02  0.22686542009E+03  0.94052567502E+01  0.29680383752E+03  0.17228656162E+03 0.  0.
        -24    2    3    3    0    0 -0.17031743938E+02  0.84190017817E+02 -0.50198127783E+02  0.12871304770E+03  0.81664908098E+02 0.  0.
          6    2    1    2  501    0  0.82785753389E+02 -0.22686542009E+03  0.10399098355E+03  0.31335216538E+03  0.17045250097E+03 0.  0.
         24    2    5    5    0    0 -0.11748146479E+02 -0.10582336216E+03  0.83380186165E+02  0.15832077184E+03  0.82320158081E+02 0.  0.
          5    1    5    5  501    0  0.94533899868E+02 -0.12104205794E+03  0.20610797385E+02  0.15503139354E+03  0.47000000000E+01 0. -1.
        -11    1    6    6    0    0 -0.14141834026E+02  0.28161241411E+01 -0.78664497347E+01  0.16425682824E+02  0.00000000000E+00 0.  1.
         12    1    6    6    0    0  0.23936875472E+01 -0.10863948630E+03  0.91246635899E+02  0.14189508901E+03  0.00000000000E+00 0. -1.
         -5    1    3    3    0  503 -0.65754009452E+02  0.14267540228E+03  0.59603384533E+02  0.16809078982E+03  0.47000000000E+01 0.  1.
         11    1    4    4    0    0  0.24799389421E+02  0.21623428304E+02  0.76588803251E+01  0.33782255921E+02  0.00000000000E+00 0. -1.
        -12    1    4    4    0    0 -0.41831133358E+02  0.62566589513E+02 -0.57857008108E+02  0.94930791783E+02  0.00000000000E+00 0.  1.
</event>
<event>
12    1  0.1066489E+000  0.4312749E+03  0.7818608E-02  0.1033579E+00
         21   -1    0    0  503  502  0.00000000000E+00  0.00000000000E+00  0.36890714539E+03  0.36890714539E+03  0.00000000000E+00 0.  1.
         21   -1    0    0  501  503 -0.00000000000E+00 -0.00000000000E+00 -0.51404173403E+03  0.51404173403E+03  0.00000000000E+00 0.  1.
          6    2    1    2  501    0 -0.35921414131E+03 -0.16137685141E+03 -0.13913168210E+03  0.45316187388E+03  0.17584303081E+03 0.  0.
         24    2    3    3    0    0 -0.10585329817E+03 -0.13438878776E+02 -0.78049563863E+02  0.15344454747E+03  0.77897179228E+02 0.  0.
         -6    2    1    2    0  502  0.35921414131E+03  0.16137685141E+03 -0.60029065352E+01  0.42978700554E+03  0.17205681547E+03 0.  0.
        -24    2    5    5    0    0  0.33937458254E+03  0.16328922331E+03  0.32081610090E+02  0.38654598722E+03  0.80932643618E+02 0.  0.
          5    1    3    3  501    0 -0.25336084314E+03 -0.14793797263E+03 -0.61082118239E+02  0.29971732642E+03  0.47000000000E+01 0. -1.
        -11    1    4    4    0    0 -0.57585656484E+02 -0.21160749761E+02 -0.84197283816E+02  0.10417805798E+03  0.00000000000E+00 0.  1.
         12    1    4    4    0    0 -0.48267641686E+02  0.77218709845E+01  0.61477199524E+01  0.49266489483E+02  0.00000000000E+00 0. -1.
         -5    1    5    5    0  502  0.19839558769E+02 -0.19123719028E+01 -0.38084516626E+02  0.43241018317E+02  0.47000000000E+01 0.  1.
         13    1    6    6    0    0  0.14602166327E+03  0.74936895591E+02 -0.25993335445E+02  0.16617315653E+03  0.00000000000E+00 0. -1.
        -14    1    6    6    0    0  0.19335291927E+03  0.88352327723E+02  0.58074945535E+02  0.22037283069E+03  0.00000000000E+00 0.  1.
</event>
<event>
12    1  0.1066489E+000  0.1950672E+03  0.7818608E-02  0.1154131E+00
         21   -1    0    0  503  502  0.00000000000E+00  0.00000000000E+00  0.39395291377E+02  0.39395291377E+02  0.00000000000E+00 0. -1.
         21   -1    0    0  501  503 -0.00000000000E+00 -0.00000000000E+00 -0.10540443980E+04  0.10540443980E+04  0.00000000000E+00 0. -1.
          6    2    1    2  501    0 -0.68780496984E+01 -0.92283585110E+02 -0.66781867264E+03  0.69551685802E+03  0.17087525453E+03 0.  0.
         24    2    3    3    0    0 -0.60063355942E+02 -0.95462133498E+02 -0.52393215751E+03  0.54201050894E+03  0.80931208259E+02 0.  0.
         -6    2    1    2    0  502  0.68780496984E+01  0.92283585110E+02 -0.34683043396E+03  0.39792283134E+03  0.17171971969E+03 0.  0.
        -24    2    5    5    0    0 -0.25107748719E+02  0.16530237760E+02 -0.77427423178E+02  0.11621068543E+03  0.81278962479E+02 0.  0.
          5    1    3    3  501    0  0.53185306243E+02  0.31785483881E+01 -0.14388651513E+03  0.15350634908E+03  0.47000000000E+01 0. -1.
        -13    1    4    4    0    0 -0.18023401814E+02 -0.14306778338E+02 -0.22038022948E+02  0.31862224888E+02  0.00000000000E+00 0.  1.
         14    1    4    4    0    0 -0.42039954127E+02 -0.81155355160E+02 -0.50189413456E+03  0.51014828406E+03  0.00000000000E+00 0. -1.
         -5    1    5    5    0  502  0.31985798417E+02  0.75753347350E+02 -0.26940301078E+03  0.28171214591E+03  0.47000000000E+01 0.  1.
         11    1    6    6    0    0 -0.53282003645E+02  0.16901243419E+02 -0.64073741566E+02  0.85029808301E+02  0.00000000000E+00 0. -1.
        -12    1    6    6    0    0  0.28174254926E+02 -0.37100565881E+00 -0.13353681613E+02  0.31180877127E+02  0.00000000000E+00 0.  1.
</event>
<event>
12    1  0.1066489E+000  0.8099388E+03  0.7818608E-02  0.9545950E-01
         21   -1    0    0  501  502  0.00000000000E+00  0.00000000000E+00  0.40811208613E+03  0.40811208613E+03  0.00000000000E+00 0. -1.
         21   -1    0    0  502  503 -0.00000000000E+00 -0.00000000000E+00 -0.17779859002E+04  0.17779859002E+04  0.00000000000E+00 0.  1.
         -6    2    1    2    0  503 -0.55251874031E+03 -0.56592070985E+03 -0.34544467447E+03  0.88052986484E+03  0.17452109190E+03 0.  0.
        -24    2    3    3    0    0 -0.12951499008E+03 -0.17241106545E+03 -0.69673364090E+02  0.24033152168E+03  0.80032209185E+02 0.  0.
          6    2    1    2  501    0  0.55251874031E+03  0.56592070985E+03 -0.10244291396E+04  0.13055681215E+04  0.17178431121E+03 0.  0.
         24    2    5    5    0    0  0.12911730568E+03  0.12730880326E+03 -0.21326777383E+03  0.29084942611E+03  0.78939440721E+02 0.  0.
          5    1    5    5  501    0  0.42340143463E+03  0.43861190659E+03 -0.81116136577E+03  0.10147186954E+04  0.47000000000E+01 0. -1.
        -11    1    6    6    0    0  0.97508106134E+02  0.98279963292E+02 -0.10309601406E+03  0.17261393357E+03  0.00000000000E+00 0.  1.
         12    1    6    6    0    0  0.31609199543E+02  0.29028839968E+02 -0.11017175978E+03  0.11823549255E+03  0.00000000000E+00 0. -1.
         -5    1    3    3    0  503 -0.42300375024E+03 -0.39350964440E+03 -0.27577131038E+03  0.64019834316E+03  0.47000000000E+01 0.  1.
         13    1    4    4    0    0 -0.55341783324E+02 -0.17591569788E+02 -0.22709659631E+02  0.62353066883E+02  0.00000000000E+00 0. -1.
        -14    1    4    4    0    0 -0.74173206751E+02 -0.15481949566E+03 -0.46963704459E+02  0.17797845480E+03  0.00000000000E+00 0.  1.
</event>
<event>
12    1  0.1066489E+000  0.2763589E+03  0.7818608E-02  0.1097772E+00
         21   -1    0    0  501  502  0.00000000000E+00  0.00000000000E+00  0.54966313999E+03  0.54966313999E+03  0.00000000000E+00 0. -1.
         21   -1    0    0  502  503 -0.00000000000E+00 -0.00000000000E+00 -0.17908730538E+03  0.17908730538E+03  0.00000000000E+00 0. -1.
         -6    2    1    2    0  503 -0.15830368167E+03 -0.14494428457E+03  0.12036155654E+02  0.27606407675E+03  0.17319816445E+03 0.  0.
        -24    2    3    3    0    0 -0.32742517196E+02 -0.45394554230E+02  0.45832398688E+02  0.11223480318E+03  0.85809698107E+02 0.  0.
          6    2    1    2  501    0  0.15830368167E+03  0.14494428457E+03  0.35853967896E+03  0.45268636861E+03  0.17408430624E+03 0.  0.
         24    2    5    5    0    0  0.84832599688E+02  0.48548393416E+02  0.87514383356E+02  0.15575713702E+03  0.83952379144E+02 0.  0.
          5    1    5    5  501    0  0.73471081986E+02  0.96395891155E+02  0.27102529560E+03  0.29692923160E+03  0.47000000000E+01 0. -1.
        -13    1    6    6    0    0  0.66828695699E+02  0.67380135395E+01  0.87408768766E+02  0.11023505909E+03  0.00000000000E+00 0.  1.
         14    1    6    6    0    0  0.18003903989E+02  0.41810379877E+02  0.10561459018E+00  0.45522077926E+02  0.00000000000E+00 0. -1.
         -5    1    3    3    0  503 -0.12556116448E+03 -0.99549730341E+02 -0.33796243034E+02  0.16382927357E+03  0.47000000000E+01 0.  1.
         11    1    4    4    0    0 -0.13071065911E+02 -0.69770338476E+02  0.34506084787E+02  0.78926692458E+02  0.00000000000E+00 0. -1.
        -12    1    4    4    0    0 -0.19671451285E+02  0.24375784246E+02  0.11326313901E+02  0.33308110721E+02  0.00000000000E+00 0.  1.
</event>
<event>
12    1  0.1066489E+000  0.3271865E+03  0.7818608E-02  0.1072404E+00
         21   -1    0    0  503  502  0.00000000000E+00  0.00000000000E+00  0.45318476074E+03  0.45318476074E+03  0.00000000000E+00 0. -1.
         21   -1    0    0  501  503 -0.00000000000E+00 -0.00000000000E+00 -0.24461515701E+03  0.24461515701E+03  0.00000000000E+00 0. -1.
          6    2    1    2  501    0 -0.13510132018E+03 -0.24346726818E+03  0.16933527816E+03  0.36840937159E+03  0.17182069506E+03 0.  0.
         24    2    3    3    0    0 -0.10178488457E+03 -0.25984209466E+03  0.14816806742E+03  0.32541796972E+03  0.77878122265E+02 0.  0.
         -6    2    1    2    0  502  0.13510132018E+03  0.24346726818E+03  0.39234325569E+02  0.32939054616E+03  0.17155209764E+03 0.  0.
        -24    2    5    5    0    0  0.27529828242E+02  0.14120205948E+03  0.64346255396E+02  0.17878344869E+03  0.84422555619E+02 0.  0.
          5    1    3    3  501    0 -0.33316435609E+02  0.16374826478E+02  0.21167210740E+02  0.42991401866E+02  0.47000000000E+01 0. -1.
        -11    1    4    4    0    0 -0.75979308813E+02 -0.13949800210E+03  0.12020173988E+03  0.19920091925E+03  0.00000000000E+00 0.  1.
         12    1    4    4    0    0 -0.25805575757E+02 -0.12034409256E+03  0.27966327543E+02  0.12621705047E+03  0.00000000000E+00 0. -1.
         -5    1    5    5    0  502  0.10757149194E+03  0.10226520870E+03 -0.25111929826E+02  0.15060709747E+03  0.47000000000E+01 0.  1.
         13    1    6    6    0    0 -0.10448898105E+02 -0.91305568505E+00  0.24086840385E+02  0.26271448799E+02  0.00000000000E+00 0. -1.
        -14    1    6    6    0    0  0.37978726347E+02  0.14211511517E+03  0.40259415011E+02  0.15251199989E+03  0.00000000000E+00 0.  1.
</event>
<event>
12    1  0.1066489E+000  0.2073696E+03  0.7818608E-02  0.1144638E+00
         21   -1    0    0  501  502  0.00000000000E+00  0.00000000000E+00  0.20146253980E+03  0.20146253980E+03  0.00000000000E+00 0. -1.
         21   -1    0    0  502  503 -0.00000000000E+00 -0.00000000000E+00 -0.21480194367E+03  0.21480194367E+03  0.00000000000E+00 0. -1.
         -6    2    1    2    0  503  0.92321534031E+02  0.49808336394E+02 -0.42199104520E+02  0.21161970994E+03  0.17887985128E+03 0.  0.
        -24    2    3    3    0    0  0.79878039716E+02  0.42843018593E+02  0.41087148328E+02  0.12699083711E+03  0.78882783181E+02 0.  0.
          6    2    1    2  501    0 -0.92321534031E+02 -0.49808336394E+02  0.28859700642E+02  0.20464477353E+03  0.17332762327E+03 0.  0.
         24    2    5    5    0    0 -0.25284448348E+01  0.14710909380E+02  0.36861060164E+02  0.93686927040E+02  0.84827464029E+02 0.  0.
          5    1    5    5  501    0 -0.89793089196E+02 -0.64519245773E+02 -0.80013595220E+01  0.11095784649E+03  0.47000000000E+01 0. -1.
        -13    1    6    6    0    0 -0.23317159230E+02  0.12712852969E+02  0.58111118927E+02  0.63892164529E+02  0.00000000000E+00 0.  1.
         14    1    6    6    0    0  0.20788714395E+02  0.19980564106E+01 -0.21250058763E+02  0.29794762511E+02  0.00000000000E+00 0. -1.
         -5    1    3    3    0  503  0.12443494315E+02  0.69653178007E+01 -0.83286252848E+02  0.84628872829E+02  0.47000000000E+01 0.  1.
         13    1    4    4    0    0 -0.43786544026E+01  0.25617318398E+02  0.30921555320E+02  0.40392600804E+02  0.00000000000E+00 0. -1.
        -14    1    4    4    0    0  0.84256694119E+02  0.17225700195E+02  0.10165593008E+02  0.86598236311E+02  0.00000000000E+00 0.  1.
</event>
<event>
12    1  0.1066489E+000  0.2308956E+03  0.7818608E-02  0.1126087E+00
         21   -1    0    0  501  502  0.00000000000E+00  0.00000000000E+00  0.50485323841E+02  0.50485323841E+02  0.00000000000E+00 0.  1.
         21   -1    0    0  502  503 -0.00000000000E+00 -0.00000000000E+00 -0.10682208830E+04  0.10682208830E+04  0.00000000000E+00 0.  1.
         -6    2    1    2    0  503  0.15516433223E+03 -0.75274002785E+01 -0.44483958716E+03  0.50119362603E+03  0.17082201471E+03 0.  0.
        -24    2    3    3    0    0  0.17396445823E+03 -0.36889069508E+02 -0.39180483415E+03  0.43755144359E+03  0.79472017403E+02 0.  0.
          6    2    1    2  501    0 -0.15516433223E+03  0.75274002785E+01 -0.57289597198E+03  0.61751258080E+03  0.17023325463E+03 0.  0.
         24    2    5    5    0    0 -0.10003799378E+03  0.65647677245E+02 -0.29442512020E+03  0.32771095023E+03  0.79944341717E+02 0.  0.
          5    1    5    5  501    0 -0.55126338451E+02 -0.58120276966E+02 -0.27847085178E+03  0.28980163057E+03  0.47000000000E+01 0. -1.
        -13    1    6    6    0    0 -0.32486164557E+01  0.14815566865E+02 -0.12603331778E+03  0.12694271039E+03  0.00000000000E+00 0.  1.
         14    1    6    6    0    0 -0.96789377325E+02  0.50832110380E+02 -0.16839180241E+03  0.20076823984E+03  0.00000000000E+00 0. -1.
         -5    1    3    3    0  503 -0.18800126001E+02  0.29361669230E+02 -0.53034753014E+02  0.63642182433E+02  0.47000000000E+01 0.  1.
         11    1    4    4    0    0 -0.44698270066E+01  0.30673929336E+01 -0.27541773301E+00  0.54280850956E+01  0.00000000000E+00 0. -1.
        -12    1    4    4    0    0  0.17843428524E+03 -0.39956462442E+02 -0.39152941642E+03  0.43212335850E+03  0.00000000000E+00 0.  1.
</event>
<event>
12    1  0.1066489E+000  0.5184714E+03  0.7818608E-02  0.1009081E+00
         21   -1    0    0  503  502  0.00000000000E+00  0.00000000000E+00  0.81973635820E+03  0.81973635820E+03  0.00000000000E+00 0.  1.
         21   -1    0    0  501  503 -0.00000000000E+00 -0.00000000000E+00 -0.53400488606E+03  0.53400488606E+03  0.00000000000E+00 0.  1.
          6    2    1    2  501    0 -0.39856677561E+03 -0.28364040474E+03  0.56351244075E+03  0.76574073508E+03  0.17177091915E+03 0.  0.
         24    2    3    3    0    0 -0.24869784591E+03 -0.11944963807E+03  0.38602472862E+03  0.48123540665E+03  0.80334244969E+02 0.  0.
         -6    2    1    2    0  502  0.39856677561E+03  0.28364040474E+03 -0.27778096860E+03  0.58800050918E+03  0.17109932337E+03 0.  0.
        -24    2    5    5    0    0  0.23570425799E+03  0.17053786077E+03 -0.24121052242E+03  0.38631790549E+03  0.80120838653E+02 0.  0.
          5    1    3    3  501    0 -0.14986892970E+03 -0.16419076667E+03  0.17748771213E+03  0.28450532843E+03  0.47000000000E+01 0. -1.
        -11    1    4    4    0    0 -0.14054890175E+03 -0.29834176880E+02  0.15923506545E+03  0.21447582139E+03  0.00000000000E+00 0.  1.
         12    1    4    4    0    0 -0.10814894416E+03 -0.89615461193E+02  0.22678966317E+03  0.26675958526E+03  0.00000000000E+00 0. -1.
         -5    1    5    5    0  502  0.16286251761E+03  0.11310254397E+03 -0.36570446185E+02  0.20168260369E+03  0.47000000000E+01 0.  1.
         13    1    6    6    0    0  0.21178061051E+03  0.15828148972E+03 -0.18109865394E+03  0.32046962326E+03  0.00000000000E+00 0. -1.
        -14    1    6    6    0    0  0.23923647480E+02  0.12256371049E+02 -0.60111868480E+02  0.65848282227E+02  0.00000000000E+00 0.  1.
</event>
<event>
12    1  0.1066489E+000  0.4394176E+03  0.7818608E-02  0.1030932E+00
         21   -1    0    0  503  502  0.00000000000E+00  0.00000000000E+00  0.38834027347E+03  0.38834027347E+03  0.00000000000E+00 0.  1.
         21   -1    0    0  501  503 -0.00000000000E+00 -0.00000000000E+00 -0.49853766024E+03  0.49853766024E+03  0.00000000000E+00 0.  1.
          6    2    1    2  501    0 -0.32815947019E+02  0.40343659654E+03 -0.78700873477E+02  0.44633298977E+03  0.17082545613E+03 0.  0.
         24    2    3    3    0    0 -0.66402831088E+02  0.19021366744E+03 -0.78068390530E+02  0.23042887607E+03  0.80076326531E+02 0.  0.
         -6    2    1    2    0  502  0.32815947019E+02 -0.40343659654E+03 -0.31496513290E+02  0.44054494394E+03  0.17102585616E+03 0.  0.
        -24    2    5    5    0    0  0.23643603386E+02 -0.40874519209E+03 -0.11543604442E+02  0.41746851341E+03  0.80715877323E+02 0.  0.
          5    1    3    3  501    0  0.33586884070E+02  0.21322292910E+03 -0.63248294676E+00  0.21590411369E+03  0.47000000000E+01 0. -1.
        -11    1    4    4    0    0 -0.17309931625E+02  0.12639466319E+03 -0.78724467100E+02  0.14990926034E+03  0.00000000000E+00 0.  1.
         12    1    4    4    0    0 -0.49092899463E+02  0.63819004251E+02  0.65607656965E+00  0.80519615733E+02  0.00000000000E+00 0. -1.
         -5    1    5    5    0  502  0.91723436328E+01  0.53085955466E+01 -0.19952908848E+02  0.23076430528E+02  0.47000000000E+01 0.  1.
         13    1    6    6    0    0 -0.24618757399E+02 -0.23211577801E+03 -0.19184943253E+02  0.23420478147E+03  0.00000000000E+00 0. -1.
        -14    1    6    6    0    0  0.48262360785E+02 -0.17662941408E+03  0.76413388113E+01  0.18326373194E+03  0.00000000000E+00 0.  1.
</event>
<event>
12    1  0.1066489E+000  0.2543292E+03  0.7818608E-02  0.1110726E+00
         21   -1    0    0  501  502  0.00000000000E+00  0.00000000000E+00  0.44909524248E+03  0.44909524248E+03  0.00000000000E+00 0.  1.
         21   -1    0    0  502  503 -0.00000000000E+00 -0.00000000000E+00 -0.17602752809E+03  0.17602752809E+03  0.00000000000E+00 0.  1.
         -6    2    1    2    0  503 -0.18680197492E+03  0.59826218048E+01  0.27057895084E+03  0.37078137782E+03  0.17127490155E+03 0.  0.
        -24    2    3    3    0    0 -0.11630930903E+03  0.66809121665E+01  0.68000766168E+02  0.15623601091E+03  0.78823200600E+02 0.  0.
          6    2    1    2  501    0  0.18680197492E+03 -0.59826218048E+01  0.24887635464E+01  0.25434139275E+03  0.17248936351E+03 0.  0.
         24    2    5    5    0    0  0.14123059740E+03  0.52374919866E+02 -0.32657210421E+02  0.17224582280E+03  0.76895488863E+02 0.  0.
          5    1    5    5  501    0  0.45571377516E+02 -0.58357541671E+02  0.35145973967E+02  0.82095569946E+02  0.47000000000E+01 0. -1.
        -13    1    6    6    0    0  0.12226163696E+02  0.19381202112E+02 -0.31663113209E+02  0.39085327325E+02  0.00000000000E+00 0.  1.
         14    1    6    6    0    0  0.12900443371E+03  0.32993717754E+02 -0.99409721218E+00  0.13316049548E+03  0.00000000000E+00 0. -1.
         -5    1    3    3    0  503 -0.70492665888E+02 -0.69829036170E+00  0.20257818467E+03  0.21454536690E+03  0.47000000000E+01 0.  1.
         13    1    4    4    0    0 -0.47229306713E+02  0.16162050451E+02  0.70594232620E+02  0.86460192959E+02  0.00000000000E+00 0. -1.
        -14    1    4    4    0    0 -0.69080002317E+02 -0.94811382840E+01 -0.25934664513E+01  0.69775817956E+02  0.00000000000E+00 0.  1.
</event>
<event>
12    1  0.1066489E+000  0.2098033E+03  0.7818608E-02  0.1142050E+00
         21   -1    0    0  501  502  0.00000000000E+00  0.00000000000E+00  0.39668255915E+02  0.39668255915E+02  0.00000000000E+00 0.  1.
         21   -1    0    0  502  503 -0.00000000000E+00 -0.00000000000E+00 -0.11010891863E+04  0.11010891863E+04  0.00000000000E+00 0.  1.
         -6    2    1    2    0  503 -0.89662053104E+02  0.78966953546E+02 -0.52628362398E+03  0.56656146147E+03  0.17245977280E+03 0.  0.
        -24    2    3    3    0    0 -0.16492822305E+02  0.17433670751E+02 -0.10275714714E+03  0.13235316145E+03  0.79889811569E+02 0.  0.
          6    2    1    2  501    0  0.89662053104E+02 -0.78966953546E+02 -0.53513730638E+03  0.57419598072E+03  0.17045241000E+03 0.  0.
         24    2    5    5    0    0 -0.48411028188E+01  0.38331930455E+01 -0.19295557009E+03  0.20964537874E+03  0.81738627048E+02 0.  0.
          5    1    5    5  501    0  0.94503155923E+02 -0.82800146591E+02 -0.34218173629E+03  0.36455060198E+03  0.47000000000E+01 0. -1.
        -13    1    6    6    0    0 -0.35048101433E+01  0.11971730909E+02  0.35478658646E+01  0.12968939328E+02  0.00000000000E+00 0.  1.
         14    1    6    6    0    0 -0.13362926755E+01 -0.81385378639E+01 -0.19650343595E+03  0.19667643941E+03  0.00000000000E+00 0. -1.
         -5    1    3    3    0  503 -0.73169230800E+02  0.61533282794E+02 -0.42352647684E+03  0.43420830003E+03  0.47000000000E+01 0.  1.
         11    1    4    4    0    0 -0.13720698161E+02  0.48824635004E+02 -0.73865670179E+02  0.89600445157E+02  0.00000000000E+00 0. -1.
        -12    1    4    4    0    0 -0.27721241434E+01 -0.31390964253E+02 -0.28891476965E+02  0.42752716290E+02  0.00000000000E+00 0.  1.
</event>
<event>
12    1  0.1066489E+000  0.3362636E+03  0.7818608E-02  0.1068784E+00
         21   -1    0    0  503  502  0.00000000000E+00  0.00000000000E+00  0.78105893628E+03  0.78105893628E+03  0.00000000000E+00 0. -1.
         21   -1    0    0  501  503 -0.00000000000E+00 -0.00000000000E+00 -0.15024433562E+03  0.15024433562E+03  0.00000000000E+00 0. -1.
          6    2    1    2  501    0 -0.32116591266E+02  0.28267264569E+03  0.41431923056E+03  0.53137394440E+03  0.17251824227E+03 0.  0.
         24    2    3    3    0    0  0.37997410318E+02  0.20276185330E+03  0.32011592385E+03  0.38925406207E+03  0.80550281126E+02 0.  0.
         -6    2    1    2    0  502  0.32116591266E+02 -0.28267264569E+03  0.21649537010E+03  0.39992932750E+03  0.17927052649E+03 0.  0.
        -24    2    5    5    0    0 -0.41407636235E+02 -0.16838700503E+03  0.17240153840E+03  0.25698396842E+03  0.79055004775E+02 0.  0.
          5    1    3    3  501    0 -0.70114001584E+02  0.79910792388E+02  0.94203306712E+02  0.14211988233E+03  0.47000000000E+01 0. -1.
        -11    1    4    4    0    0 -0.64895146187E+01  0.10672654557E+03  0.21481875822E+03  0.23995784674E+03  0.00000000000E+00 0.  1.
         12    1    4    4    0    0  0.44486924937E+02  0.96035307729E+02  0.10529716563E+03  0.14929621532E+03  0.00000000000E+00 0. -1.
         -5    1    5    5    0  502  0.73524227501E+02 -0.11428564065E+03  0.44093831699E+02  0.14294535908E+03  0.47000000000E+01 0.  1.
         11    1    6    6    0    0  0.78355654560E+01 -0.10520439581E+02  0.48788095164E+02  0.50520827039E+02  0.00000000000E+00 0. -1.
        -12    1    6    6    0    0 -0.49243201691E+02 -0.15786656545E+03  0.12361344324E+03  0.20646314138E+03  0.00000000000E+00 0.  1.
</event>
<event>
12    1  0.1066489E+000  0.2218975E+03  0.7818608E-02  0.1134017E+00
         21   -1    0    0  501  502  0.00000000000E+00  0.00000000000E+00  0.19051879434E+04  0.19051879434E+04  0.00000000000E+00 0.  1.
         21   -1    0    0  502  503 -0.00000000000E+00 -0.00000000000E+00 -0.25801097361E+02  0.25801097361E+02  0.00000000000E+00 0.  1.
         -6    2    1    2    0  503  0.13024919977E+03 -0.64025653047E+01  0.77625365767E+03  0.80734642675E+03  0.17953457843E+03 0.  0.
        -24    2    3    3    0    0  0.10840504269E+03  0.18914346666E+02  0.75563969701E+03  0.76778459408E+03  0.79952644789E+02 0.  0.
          6    2    1    2  501    0 -0.13024919977E+03  0.64025653047E+01  0.11031331884E+04  0.11236426140E+04  0.16930459494E+03 0.  0.
         24    2    5    5    0    0 -0.15904401883E+02  0.42283228302E+02  0.50203907919E+03  0.51070022450E+03  0.82040605012E+02 0.  0.
          5    1    5    5  501    0 -0.11434479789E+03 -0.35880662997E+02  0.60109410917E+03  0.61294238951E+03  0.47000000000E+01 0. -1.
        -13    1    6    6    0    0  0.12456107908E+01 -0.23011624031E+02  0.19314658513E+03  0.19451655388E+03  0.00000000000E+00 0.  1.
         14    1    6    6    0    0 -0.17150012674E+02  0.65294852332E+02  0.30889249406E+03  0.31618367061E+03  0.00000000000E+00 0. -1.
         -5    1    3    3    0  503  0.21844157078E+02 -0.25316911971E+02  0.20613960657E+02  0.39561832669E+02  0.47000000000E+01 0.  1.
         13    1    4    4    0    0  0.59902955614E+02 -0.29369772114E+02  0.32977677518E+03  0.33645752934E+03  0.00000000000E+00 0. -1.
        -14    1    4    4    0    0  0.48502087077E+02  0.48284118780E+02  0.42586292184E+03  0.43132706474E+03  0.00000000000E+00 0.  1.
</event>
<event>
12    1  0.1066489E+000  0.2215813E+03  0.7818608E-02  0.1132857E+00
         21   -1    0    0  503  502  0.00000000000E+00  0.00000000000E+00  0.21727974503E+03  0.21727974503E+03  0.00000000000E+00 0.  1.
         21   -1    0    0  501  503 -0.00000000000E+00 -0.00000000000E+00 -0.22517327250E+03  0.22517327250E+03  0.00000000000E+00 0.  1.
          6    2    1    2  501    0 -0.11596195416E+03 -0.72694079929E+02 -0.58349558247E+01  0.22165811187E+03  0.17426034483E+03 0.  0.
         24    2    3    3    0    0  0.28283627604E+02 -0.12386820514E+02  0.22030690518E+02  0.62779738133E+02  0.50025466339E+02 0.  0.
         -6    2    1    2    0  502  0.11596195416E+03  0.72694079929E+02 -0.20585716458E+01  0.22079490566E+03  0.17324707380E+03 0.  0.
        -24    2    5    5    0    0  0.28539904603E+02  0.66642156589E+02 -0.51907789790E+02  0.11986782766E+03  0.80113508703E+02 0.  0.
          5    1    3    3  501    0 -0.14424558176E+03 -0.60307259415E+02 -0.27865646343E+02  0.15887837374E+03  0.47000000000E+01 0. -1.
        -11    1    4    4    0    0 -0.45162358962E+00  0.82947234628E+01 -0.11387115531E+02  0.14095133959E+02  0.00000000000E+00 0.  1.
         12    1    4    4    0    0  0.28735251194E+02 -0.20681543977E+02  0.33417806049E+02  0.48684604174E+02  0.00000000000E+00 0. -1.
         -5    1    5    5    0  502  0.87422049554E+02  0.60519233395E+01  0.49849218144E+02  0.10092707800E+03  0.47000000000E+01 0.  1.
         13    1    6    6    0    0  0.27359468013E+02  0.80782308886E-01  0.98328888347E+01  0.29072886313E+02  0.00000000000E+00 0. -1.
        -14    1    6    6    0    0  0.11804365904E+01  0.66561374281E+02 -0.61740678624E+02  0.90794941344E+02  0.00000000000E+00 0.  1.
</event>
<event>
12    1  0.1066489E+000  0.2029602E+03  0.7818608E-02  0.1147391E+00
         21   -1    0    0  501  502  0.00000000000E+00  0.00000000000E+00  0.54625295260E+02  0.54625295260E+02  0.00000000000E+00 0. -1.
         21   -1    0    0  502  503 -0.00000000000E+00 -0.00000000000E+00 -0.79086443570E+03  0.79086443570E+03  0.00000000000E+00 0. -1.
         -6    2    1    2    0  503 -0.28212297627E+02 -0.10227441739E+03 -0.27369330892E+03  0.34037439097E+03  0.17230991989E+03 0.  0.
        -24    2    3    3    0    0 -0.10114817678E+02  0.10267693161E+02 -0.69595702371E+02  0.10655572528E+03  0.79390337833E+02 0.  0.
          6    2    1    2  501    0  0.28212297627E+02  0.10227441739E+03 -0.46254583152E+03  0.50511533999E+03  0.17302274488E+03 0.  0.
         24    2    5    5    0    0  0.55556112837E+02  0.13106852540E+03 -0.38837107446E+03  0.42084927641E+03  0.77566629128E+02 0.  0.
          5    1    5    5  501    0 -0.27343815210E+02 -0.28794108004E+02 -0.74174757056E+02  0.84266063574E+02  0.47000000000E+01 0. -1.
        -11    1    6    6    0    0  0.25382603744E+02  0.33104279593E+02 -0.21850136639E+03  0.22244778492E+03  0.00000000000E+00 0.  1.
         12    1    6    6    0    0  0.30173509093E+02  0.97964245803E+02 -0.16986970807E+03  0.19840149149E+03  0.00000000000E+00 0. -1.
         -5    1    3    3    0  503 -0.18097479949E+02 -0.11254211055E+03 -0.20409760655E+03  0.23381866569E+03  0.47000000000E+01 0.  1.
         11    1    4    4    0    0  0.28435191206E+01  0.37293533051E+02 -0.66665790635E+02  0.76440963164E+02  0.00000000000E+00 0. -1.
        -12    1    4    4    0    0 -0.12958336798E+02 -0.27025839890E+02 -0.29299117358E+01  0.30114762113E+02  0.00000000000E+00 0.  1.
</event>
<event>
12    1  0.1066489E+000  0.2908490E+03  0.7818608E-02  0.1090096E+00
         21   -1    0    0  503  502  0.00000000000E+00  0.00000000000E+00  0.47724747908E+03  0.47724747908E+03  0.00000000000E+00 0.  1.
         21   -1    0    0  501  503 -0.00000000000E+00 -0.00000000000E+00 -0.26735062059E+03  0.26735062059E+03  0.00000000000E+00 0.  1.
          6    2    1    2  501    0  0.11628501392E+03 -0.20351136064E+03  0.32230836588E+03  0.43413805649E+03  0.17220363237E+03 0.  0.
         24    2    3    3    0    0  0.11936131907E+03 -0.21697166237E+03  0.25188170532E+03  0.36221693376E+03  0.80205279565E+02 0.  0.
         -6    2    1    2    0  502 -0.11628501392E+03  0.20351136064E+03 -0.11241150739E+03  0.31046004317E+03  0.16973512613E+03 0.  0.
        -24    2    5    5    0    0 -0.61684739850E+02  0.20899042102E+03 -0.74889347231E+02  0.24381762024E+03  0.79728378903E+02 0.  0.
          5    1    3    3  501    0 -0.30763051479E+01  0.13460301728E+02  0.70426660565E+02  0.71921122727E+02  0.47000000000E+01 0. -1.
        -13    1    4    4    0    0  0.65470814185E+02 -0.76383568659E+02  0.14929279423E+03  0.18002559674E+03  0.00000000000E+00 0.  1.
         14    1    4    4    0    0  0.53890504883E+02 -0.14058809371E+03  0.10258891109E+03  0.18219133703E+03  0.00000000000E+00 0. -1.
         -5    1    5    5    0  502 -0.54600274069E+02 -0.54790603810E+01 -0.37522160161E+02  0.66642422932E+02  0.47000000000E+01 0.  1.
         13    1    6    6    0    0 -0.24765176713E+02  0.18374269885E+03 -0.72343428170E+02  0.19901825282E+03  0.00000000000E+00 0. -1.
        -14    1    6    6    0    0 -0.36919563137E+02  0.25247722174E+02 -0.25459190607E+01  0.44799367419E+02  0.00000000000E+00 0.  1.
</event>
<event>
12    1  0.1066489E+000  0.1787705E+03  0.7818608E-02  0.1169433E+00
         21   -1    0    0  501  502  0.00000000000E+00  0.00000000000E+00  0.82108315759E+02  0.82108315759E+02  0.00000000000E+00 0. -1.
         21   -1    0    0  502  503 -0.00000000000E+00 -0.00000000000E+00 -0.76833203205E+03  0.76833203205E+03  0.00000000000E+00 0.  1.
         -6    2    1    2    0  503 -0.13809139240E+02  0.43243557823E+02 -0.43771208977E+02  0.18405108198E+03  0.17291091470E+03 0.  0.
        -24    2    3    3    0    0  0.15624135427E+02  0.27812155746E+02 -0.88878535604E+02  0.12782647221E+03  0.86154415399E+02 0.  0.
          6    2    1    2  501    0  0.13809139240E+02 -0.43243557823E+02 -0.64245250731E+03  0.66638926583E+03  0.17108106804E+03 0.  0.
         24    2    5    5    0    0 -0.63695419120E+02  0.35677235287E+01 -0.33489800583E+03  0.34574910301E+03  0.57584137202E+02 0.  0.
          5    1    5    5  501    0  0.77504558361E+02 -0.46811281352E+02 -0.30755450148E+03  0.32064016282E+03  0.47000000000E+01 0. -1.
        -11    1    6    6    0    0 -0.62615060998E+02 -0.17002420483E+02 -0.26857324276E+03  0.27629932119E+03  0.00000000000E+00 0.  1.
         12    1    6    6    0    0 -0.10803581225E+01  0.20570144011E+02 -0.66324763074E+02  0.69449781823E+02  0.00000000000E+00 0. -1.
         -5    1    3    3    0  503 -0.29433274667E+02  0.15431402078E+02  0.45107326626E+02  0.56224609764E+02  0.47000000000E+01 0.  1.
         13    1    4    4    0    0  0.15052930271E+02 -0.29326924355E+02 -0.20943187188E+02  0.39054785769E+02  0.00000000000E+00 0. -1.
        -14    1    4    4    0    0  0.57120515607E+00  0.57139080101E+02 -0.67935348415E+02  0.88771686446E+02  0.00000000000E+00 0.  1.
</event>
<event>
12    1  0.1066489E+000  0.1810156E+03  0.7818608E-02  0.1166925E+00
         21   -1    0    0  501  502  0.00000000000E+00  0.00000000000E+00  0.38452443549E+03  0.38452443549E+03  0.00000000000E+00 0. -1.
         21   -1    0    0  502  503 -0.00000000000E+00 -0.00000000000E+00 -0.17866808582E+03  0.17866808582E+03  0.00000000000E+00 0. -1.
         -6    2    1    2    0  503 -0.36009096552E+02 -0.43445120679E+02 -0.10100430398E+03  0.20692001013E+03  0.17155141394E+03 0.  0.
        -24    2    3    3    0    0 -0.29643839056E+01 -0.90000653301E+02 -0.94108320827E+02  0.14922239116E+03  0.72815113866E+02 0.  0.
          6    2    1    2  501    0  0.36009096552E+02  0.43445120679E+02  0.30686065365E+03  0.35627251118E+03  0.17199566249E+03 0.  0.
         24    2    5    5    0    0 -0.42678282868E+02  0.31710766621E+02  0.21125330412E+03  0.23180462765E+03  0.79236471089E+02 0.  0.
          5    1    5    5  501    0  0.78687379420E+02  0.11734354058E+02  0.95607349528E+02  0.12446788352E+03  0.47000000000E+01 0. -1.
        -13    1    6    6    0    0  0.88499377511E+01  0.13298371821E+02  0.27102572730E+01  0.16202271006E+02  0.00000000000E+00 0.  1.
         14    1    6    6    0    0 -0.51528220619E+02  0.18412394801E+02  0.20854304685E+03  0.21560235665E+03  0.00000000000E+00 0. -1.
         -5    1    3    3    0  503 -0.33044712647E+02  0.46555532622E+02 -0.68959831552E+01  0.57697618974E+02  0.47000000000E+01 0.  1.
         13    1    4    4    0    0  0.20195059981E+02  0.74894505807E+00 -0.28220271044E+02  0.34710013889E+02  0.00000000000E+00 0. -1.
        -14    1    4    4    0    0 -0.23159443887E+02 -0.90749598359E+02 -0.65888049783E+02  0.11451237727E+03  0.00000000000E+00 0.  1.
</event>
<event>
12    1  0.1066489E+000  0.2034443E+03  0.7818608E-02  0.1146866E+00
         21   -1    0    0  503  502  0.00000000000E+00  0.00000000000E+00  0.16564888555E+03  0.16564888555E+03  0.00000000000E+00 0. -1.
         21   -1    0    0  501  503 -0.00000000000E+00 -0.00000000000E+00 -0.28041695001E+03  0.28041695001E+03  0.00000000000E+00 0. -1.
          6    2    1    2  501    0 -0.70837458592E+02  0.82878977464E+02  0.16242744249E+02  0.20409166001E+03  0.17176352494E+03 0.  0.
         24    2    3    3    0    0 -0.36328800865E+02  0.12185980402E+03  0.20834201075E+02  0.15161763050E+03  0.79901491442E+02 0.  0.
         -6    2    1    2    0  502  0.70837458592E+02 -0.82878977464E+02 -0.13101080871E+03  0.24197417555E+03  0.17175796688E+03 0.  0.
        -24    2    5    5    0    0  0.27622756961E+02 -0.27636466110E+02  0.65537851470E+01  0.87490024321E+02  0.78004879942E+02 0.  0.
          5    1    3    3  501    0 -0.34508657726E+02 -0.38980826560E+02 -0.45914568259E+01  0.52474029511E+02  0.47000000000E+01 0. -1.
        -11    1    4    4    0    0 -0.36748903136E+02  0.11000534617E+03 -0.12101573919E+02  0.11661091784E+03  0.00000000000E+00 0.  1.
         12    1    4    4    0    0  0.42010227068E+00  0.11854457855E+02  0.32935774994E+02  0.35006712662E+02  0.00000000000E+00 0. -1.
         -5    1    5    5    0  502  0.43214701631E+02 -0.55242511354E+02 -0.13756459386E+03  0.15448415123E+03  0.47000000000E+01 0.  1.
         11    1    6    6    0    0 -0.23373925613E+02  0.62524135453E+01  0.99595173203E+01  0.26165340796E+02  0.00000000000E+00 0. -1.
        -12    1    6    6    0    0  0.50996682574E+02 -0.33888879655E+02 -0.34057321732E+01  0.61324683525E+02  0.00000000000E+00 0.  1.
</event>
<event>
12    1  0.1066489E+000  0.2194909E+03  0.7818608E-02  0.1134513E+00
         21   -1    0    0  503  502  0.00000000000E+00  0.00000000000E+00  0.11479098534E+03  0.11479098534E+03  0.00000000000E+00 0. -1.
         21   -1    0    0  501  503 -0.00000000000E+00 -0.00000000000E+00 -0.43412523044E+03  0.43412523044E+03  0.00000000000E+00 0. -1.
          6    2    1    2  501    0 -0.87871456772E+02  0.10138208335E+03 -0.10585672679E+03  0.24368401001E+03  0.17371393263E+03 0.  0.
         24    2    3    3    0    0  0.16617184133E+02  0.22086043980E+02 -0.18010395028E+02  0.85744762383E+02  0.79144587938E+02 0.  0.
         -6    2    1    2    0  502  0.87871456772E+02 -0.10138208335E+03 -0.21347751831E+03  0.30523220576E+03  0.17203002317E+03 0.  0.
        -24    2    5    5    0    0  0.93811729127E+01 -0.11169927571E+03 -0.12182579254E+03  0.18403279176E+03  0.80385384958E+02 0.  0.
          5    1    3    3  501    0 -0.10448864091E+03  0.79296039374E+02 -0.87846331758E+02  0.15793924763E+03  0.47000000000E+01 0. -1.
        -11    1    4    4    0    0 -0.16223232548E+02 -0.86731885664E+01 -0.33449044221E+02  0.38174023020E+02  0.00000000000E+00 0.  1.
         12    1    4    4    0    0  0.32840416682E+02  0.30759232547E+02  0.15438649193E+02  0.47570739364E+02  0.00000000000E+00 0. -1.
         -5    1    5    5    0  502  0.78490283860E+02  0.10317192356E+02 -0.91651725772E+02  0.12119941401E+03  0.47000000000E+01 0.  1.
         11    1    6    6    0    0 -0.51722676883E+01  0.61656303599E+01 -0.37565194578E+02  0.38417589649E+02  0.00000000000E+00 0. -1.
        -12    1    6    6    0    0  0.14553440601E+02 -0.11786490607E+03 -0.84260597962E+02  0.14561520211E+03  0.00000000000E+00 0.  1.
</event>
<event>
12    1  0.1066489E+000  0.2965981E+03  0.7818608E-02  0.1087010E+00
         21   -1    0    0  501  502  0.00000000000E+00  0.00000000000E+00  0.26813953680E+03  0.26813953680E+03  0.00000000000E+00 0.  1.
         21   -1    0    0  502  503 -0.00000000000E+00 -0.00000000000E+00 -0.41483856121E+03  0.41483856121E+03  0.00000000000E+00 0.  1.
         -6    2    1    2    0  503 -0.58069059881E+02  0.23416435167E+03 -0.22991828955E+03  0.37492638780E+03  0.17176267665E+03 0.  0.
        -24    2    3    3    0    0 -0.43544735210E+02  0.15379224743E+03 -0.62818058737E+02  0.18887475979E+03  0.78608950183E+02 0.  0.
          6    2    1    2  501    0  0.58069059881E+02 -0.23416435167E+03  0.83219265142E+02  0.30805171021E+03  0.17252666682E+03 0.  0.
         24    2    5    5    0    0  0.97355685802E+02 -0.15768311746E+03  0.23018365100E+02  0.20298479568E+03  0.79566871596E+02 0.  0.
          5    1    5    5  501    0 -0.39286625921E+02 -0.76481234217E+02  0.60200900042E+02  0.10506691453E+03  0.47000000000E+01 0. -1.
        -13    1    6    6    0    0  0.19296470943E+02 -0.46301907244E+02 -0.28323572443E+02  0.57605947273E+02  0.00000000000E+00 0.  1.
         14    1    6    6    0    0  0.78059214858E+02 -0.11138121021E+03  0.51341937543E+02  0.14537884840E+03  0.00000000000E+00 0. -1.
         -5    1    3    3    0  503 -0.14524324670E+02  0.80372104244E+02 -0.16710023081E+03  0.18605162801E+03  0.47000000000E+01 0.  1.
         13    1    4    4    0    0 -0.22015888778E+02  0.49701086959E+02 -0.62163619901E+02  0.82578526523E+02  0.00000000000E+00 0. -1.
        -14    1    4    4    0    0 -0.21528846433E+02  0.10409116047E+03 -0.65443883622E+00  0.10629623327E+03  0.00000000000E+00 0.  1.
</event>
<event>
12    1  0.1066489E+000  0.5695120E+03  0.7818608E-02  0.9971087E-01
         21   -1    0    0  503  502  0.00000000000E+00  0.00000000000E+00  0.17274461570E+04  0.17274461570E+04  0.00000000000E+00 0. -1.
         21   -1    0    0  501  503 -0.00000000000E+00 -0.00000000000E+00 -0.24685846466E+03  0.24685846466E+03  0.00000000000E+00 0. -1.
          6    2    1    2  501    0  0.20068539464E+03 -0.50446821550E+03  0.25619967122E+03  0.62394542269E+03  0.17002003083E+03 0.  0.
         24    2    3    3    0    0  0.12215806398E+03 -0.34468926553E+03  0.10487650476E+03  0.39024337900E+03  0.86934062575E+02 0.  0.
         -6    2    1    2    0  502 -0.20068539464E+03  0.50446821550E+03  0.12243880211E+04  0.13503591989E+04  0.17199166238E+03 0.  0.
        -24    2    5    5    0    0 -0.57163461405E+02  0.30654667234E+03  0.63619175999E+03  0.71335965881E+03  0.83087446077E+02 0.  0.
          5    1    3    3  501    0  0.78527330655E+02 -0.15977894997E+03  0.15132316646E+03  0.23370204368E+03  0.47000000000E+01 0. -1.
        -11    1    4    4    0    0  0.84957139773E+02 -0.24082302393E+03  0.11375441431E+03  0.27955949497E+03  0.00000000000E+00 0.  1.
         12    1    4    4    0    0  0.37200924208E+02 -0.10386624160E+03 -0.88779095488E+01  0.11068388403E+03  0.00000000000E+00 0. -1.
         -5    1    5    5    0  502 -0.14352193323E+03  0.19792154316E+03  0.58819626108E+03  0.63699954012E+03  0.47000000000E+01 0.  1.
         11    1    6    6    0    0 -0.54155193307E+02  0.25087199771E+03  0.57976891926E+03  0.63403591691E+03  0.00000000000E+00 0. -1.
        -12    1    6    6    0    0 -0.30082680980E+01  0.55674674636E+02  0.56422840732E+02  0.79323741900E+02  0.00000000000E+00 0.  1.
</event>
<event>
12    1  0.1066489E+000  0.2583674E+03  0.7818608E-02  0.1108274E+00
         21   -1    0    0  501  502  0.00000000000E+00  0.00000000000E+00  0.27758477766E+03  0.27758477766E+03  0.00000000000E+00 0. -1.
         21   -1    0    0  502  503 -0.00000000000E+00 -0.00000000000E+00 -0.39180144165E+03  0.39180144165E+03  0.00000000000E+00 0. -1.
         -6    2    1    2    0  503 -0.19232418674E+03 -0.13939314867E+02  0.15157043869E+03  0.29871590992E+03  0.17051304833E+03 0.  0.
        -24    2    3    3    0    0 -0.95095553158E+02 -0.66897337669E+02  0.55016474468E+02  0.15173728095E+03  0.80492061406E+02 0.  0.
          6    2    1    2  501    0  0.19232418674E+03  0.13939314867E+02 -0.26578710268E+03  0.37067030939E+03  0.17196161491E+03 0.  0.
         24    2    5    5    0    0  0.95140948662E+02 -0.58674273844E+02 -0.13606906996E+03  0.19300159227E+03  0.78995900492E+02 0.  0.
          5    1    5    5  501    0  0.97183238082E+02  0.72613588711E+02 -0.12971803272E+03  0.17766871712E+03  0.47000000000E+01 0. -1.
        -11    1    6    6    0    0  0.17053959220E+02 -0.22560176230E+01  0.85684523482E+01  0.19218364036E+02  0.00000000000E+00 0.  1.
         12    1    6    6    0    0  0.78086989442E+02 -0.56418256221E+02 -0.14463752231E+03  0.17378322823E+03  0.00000000000E+00 0. -1.
         -5    1    3    3    0  503 -0.97228633586E+02  0.52958022802E+02  0.96553964222E+02  0.14697862897E+03  0.47000000000E+01 0.  1.
         11    1    4    4    0    0 -0.38819706613E+02  0.12113814189E+02  0.32742559830E+02  0.52209092502E+02  0.00000000000E+00 0. -1.
        -12    1    4    4    0    0 -0.56275846545E+02 -0.79011151858E+02  0.22273914639E+02  0.99528188447E+02  0.00000000000E+00 0.  1.
</event>
<event>
12    1  0.1066489E+000  0.4232094E+03  0.7818608E-02  0.1036114E+00
         21   -1    0    0  503  502  0.00000000000E+00  0.00000000000E+00  0.47126958919E+03  0.47126958919E+03  0.00000000000E+00 0. -1.
         21   -1    0    0  501  503 -0.00000000000E+00 -0.00000000000E+00 -0.43243106235E+03  0.43243106235E+03  0.00000000000E+00 0. -1.
          6    2    1    2  501    0  0.34212349388E+03  0.17695917274E+03  0.17814858061E+03  0.45917652777E+03  0.17533719798E+03 0.  0.
         24    2    3    3    0    0  0.11173606186E+03  0.10372319407E+03  0.29597722986E+02  0.17539611142E+03  0.81512711805E+02 0.  0.
         -6    2    1    2    0  502 -0.34212349388E+03 -0.17695917274E+03 -0.13931005378E+03  0.44452412378E+03  0.17271760667E+03 0.  0.
        -24    2    5    5    0    0 -0.14810168094E+03 -0.11538096792E+03 -0.12389643597E+02  0.20459242574E+03  0.80359702234E+02 0.  0.
          5    1    3    3  501    0  0.23038743201E+03  0.73235978676E+02  0.14855085763E+03  0.28378041635E+03  0.47000000000E+01 0. -1.
        -11    1    4    4    0    0  0.11933276679E+03  0.10619132271E+03  0.17221000611E+02  0.16066570608E+03  0.00000000000E+00 0.  1.
         12    1    4    4    0    0 -0.75967049235E+01 -0.24681286407E+01  0.12376722376E+02  0.14730405339E+02  0.00000000000E+00 0. -1.
         -5    1    5    5    0  502 -0.19402181294E+03 -0.61578204818E+02 -0.12692041018E+03  0.23993169804E+03  0.47000000000E+01 0.  1.
         13    1    6    6    0    0 -0.61511264862E+02 -0.65960489903E+02  0.31670220232E+02  0.95589878035E+02  0.00000000000E+00 0. -1.
        -14    1    6    6    0    0 -0.86590416080E+02 -0.49420478021E+02 -0.44059863829E+02  0.10900254770E+03  0.00000000000E+00 0.  1.
</event>
<event>
12    1  0.1066489E+000  0.3905389E+03  0.7818608E-02  0.1047147E+00
         21   -1    0    0  501  502  0.00000000000E+00  0.00000000000E+00  0.77030585824E+02  0.77030585824E+02  0.00000000000E+00 0.  1.
         21   -1    0    0  502  503 -0.00000000000E+00 -0.00000000000E+00 -0.24098680347E+04  0.24098680347E+04  0.00000000000E+00 0.  1.
         -6    2    1    2    0  503  0.26256744058E+03 -0.23169174843E+03 -0.16924387593E+04  0.17368112206E+04  0.17187651115E+03 0.  0.
        -24    2    3    3    0    0  0.21158930655E+03 -0.19425510455E+03 -0.15773732508E+04  0.16054246395E+04  0.82321446724E+02 0.  0.
          6    2    1    2  501    0 -0.26256744058E+03  0.23169174843E+03 -0.64039868962E+03  0.75008739991E+03  0.17291008846E+03 0.  0.
         24    2    5    5    0    0 -0.26287044076E+03  0.16131493715E+03 -0.54617124415E+03  0.63238485595E+03  0.80524533677E+02 0.  0.
          5    1    5    5  501    0  0.30300018021E+00  0.70376811279E+02 -0.94227445469E+02  0.11770254396E+03  0.47000000000E+01 0. -1.
        -11    1    6    6    0    0 -0.23196926205E+03  0.16841365773E+03 -0.48178790838E+03  0.56061795128E+03  0.00000000000E+00 0.  1.
         12    1    6    6    0    0 -0.30901178710E+02 -0.70987205805E+01 -0.64383335776E+02  0.71766904665E+02  0.00000000000E+00 0. -1.
         -5    1    3    3    0  503  0.50978134029E+02 -0.37436643878E+02 -0.11506550851E+03  0.13138658114E+03  0.47000000000E+01 0.  1.
         11    1    4    4    0    0  0.83358580663E+02 -0.29511748459E+02 -0.39669227357E+03  0.40642878364E+03  0.00000000000E+00 0. -1.
        -12    1    4    4    0    0  0.12823072589E+03 -0.16474335609E+03 -0.11806809772E+04  0.11989958559E+04  0.00000000000E+00 0.  1.
</event>
<event>
12    1  0.1324817E+000  0.1922575E+03  0.7818608E-02  0.1157107E+00
         21   -1    0    0  503  502  0.00000000000E+00  0.00000000000E+00  0.11631819998E+03  0.11631819998E+03  0.00000000000E+00 0. -1.
         21   -1    0    0  501  503 -0.00000000000E+00 -0.00000000000E+00 -0.12344009847E+04  0.12344009847E+04  0.00000000000E+00 0. -1.
          6    2    1    2  501    0 -0.78565622399E+02  0.51963188148E+00  0.25583771053E+02  0.19100537369E+03  0.17220829363E+03 0.  0.
         24    2    3    3    0    0 -0.91922979006E+02 -0.33836420230E+02 -0.24149090698E+02  0.12892313122E+03  0.80269905802E+02 0.  0.
         -6    2    1    2    0  502  0.78565622399E+02 -0.51963188148E+00 -0.11436665558E+04  0.11597138110E+04  0.17547109615E+03 0.  0.
        -24    2    5    5    0    0  0.16183691328E+02  0.62478096886E+02 -0.54581359595E+03  0.55530461953E+03  0.79279975395E+02 0.  0.
          5    1    3    3  501    0  0.13357356607E+02  0.34356052112E+02  0.49732861750E+02  0.62082242470E+02  0.47000000000E+01 0. -1.
        -11    1    4    4    0    0 -0.45216847158E+02  0.67154867020E+01  0.22976537859E+02  0.51162313480E+02  0.00000000000E+00 0.  1.
         12    1    4    4    0    0 -0.46706131848E+02 -0.40551906932E+02 -0.47125628557E+02  0.77760817736E+02  0.00000000000E+00 0. -1.
         -5    1    5    5    0  502  0.62381931071E+02 -0.62997728768E+02 -0.59785295981E+03  0.60440919145E+03  0.47000000000E+01 0.  1.
         13    1    6    6    0    0 -0.25781361147E+02  0.47748142175E+01 -0.83563214246E+02  0.87580181597E+02  0.00000000000E+00 0. -1.
        -14    1    6    6    0    0  0.41965052476E+02  0.57703282669E+02 -0.46225038170E+03  0.46772443793E+03  0.00000000000E+00 0.  1.
</event>
<event>
12    1  0.1066489E+000  0.1835083E+03  0.7818608E-02  0.1165305E+00
         21   -1    0    0  501  502  0.00000000000E+00  0.00000000000E+00  0.24063230327E+03  0.24063230327E+03  0.00000000000E+00 0. -1.
         21   -1    0    0  502  503 -0.00000000000E+00 -0.00000000000E+00 -0.13736823118E+03  0.13736823118E+03  0.00000000000E+00 0. -1.
         -6    2    1    2    0  503  0.59942886346E+02  0.13775920732E+02  0.58226594812E+02  0.19252434186E+03  0.17289407234E+03 0.  0.
        -24    2    3    3    0    0  0.90978427413E+02 -0.14587715094E+02  0.18560682182E+01  0.12204436658E+03  0.80009416561E+02 0.  0.
          6    2    1    2  501    0 -0.59942886346E+02 -0.13775920732E+02  0.45037477273E+02  0.18547619259E+03  0.16908612611E+03 0.  0.
         24    2    5    5    0    0  0.71163422377E+01  0.44144643758E+02  0.37350157522E+02  0.96409269357E+02  0.76813547318E+02 0.  0.
          5    1    5    5  501    0 -0.67059228584E+02 -0.57920564490E+02  0.76873197510E+01  0.89066923232E+02  0.47000000000E+01 0. -1.
        -11    1    6    6    0    0  0.26425210849E+02  0.90065499129E+01  0.47458268640E+02  0.55060847905E+02  0.00000000000E+00 0.  1.
         12    1    6    6    0    0 -0.19308868611E+02  0.35138093845E+02 -0.10108111118E+02  0.41348421451E+02  0.00000000000E+00 0. -1.
         -5    1    3    3    0  503 -0.31035541067E+02  0.28363635826E+02  0.56370526594E+02  0.70479975277E+02  0.47000000000E+01 0.  1.
         13    1    4    4    0    0 -0.35075636636E+01  0.11198300574E+02  0.19274891366E+02  0.22566044752E+02  0.00000000000E+00 0. -1.
        -14    1    4    4    0    0  0.94485991077E+02 -0.25786015668E+02 -0.17418823148E+02  0.99478321827E+02  0.00000000000E+00 0.  1.
</event>
<event>
12    1  0.1066489E+000  0.2433243E+03  0.7818608E-02  0.1117803E+00
         21   -1    0    0  501  502  0.00000000000E+00  0.00000000000E+00  0.58879297779E+03  0.58879297779E+03  0.00000000000E+00 0. -1.
         21   -1    0    0  502  503 -0.00000000000E+00 -0.00000000000E+00 -0.13183442509E+03  0.13183442509E+03  0.00000000000E+00 0. -1.
         -6    2    1    2    0  503  0.12825032891E+03  0.11279839302E+03  0.51978501239E+02  0.24881416926E+03  0.17330638160E+03 0.  0.
        -24    2    3    3    0    0  0.15480304954E+03  0.60608929200E+02  0.35523711813E+02  0.18780894651E+03  0.79830068536E+02 0.  0.
          6    2    1    2  501    0 -0.12825032891E+03 -0.11279839302E+03  0.40498005146E+03  0.47181323361E+03  0.17154375827E+03 0.  0.
         24    2    5    5    0    0 -0.72347406677E+02 -0.13864614553E+03  0.29817372012E+03  0.34843201366E+03  0.89668276723E+02 0.  0.
          5    1    5    5  501    0 -0.55902922228E+02  0.25847752504E+02  0.10680633134E+03  0.12338121996E+03  0.47000000000E+01 0. -1.
        -11    1    6    6    0    0 -0.34521702091E+02 -0.10248010521E+03  0.11469266051E+03  0.15763351881E+03  0.00000000000E+00 0.  1.
         12    1    6    6    0    0 -0.37825704586E+02 -0.36166040318E+02  0.18348105961E+03  0.19079849484E+03  0.00000000000E+00 0. -1.
         -5    1    3    3    0  503 -0.26552720639E+02  0.52189463824E+02  0.16454789425E+02  0.61005222749E+02  0.47000000000E+01 0.  1.
         11    1    4    4    0    0  0.61088286793E+02  0.54330074224E+02 -0.11859979588E+02  0.82608685163E+02  0.00000000000E+00 0. -1.
        -12    1    4    4    0    0  0.93714762752E+02  0.62788549753E+01  0.47383691402E+02  0.10520026135E+03  0.00000000000E+00 0.  1.
</event>
<event>
12    1  0.1066489E+000  0.2960871E+03  0.7818608E-02  0.1087931E+00
         21   -1    0    0  503  502  0.00000000000E+00  0.00000000000E+00  0.98235721183E+02  0.98235721183E+02  0.00000000000E+00 0. -1.
         21   -1    0    0  501  503 -0.00000000000E+00 -0.00000000000E+00 -0.88197887317E+03  0.88197887317E+03  0.00000000000E+00 0. -1.
          6    2    1    2  501    0  0.10077248296E+03  0.21334696245E+03 -0.43712609111E+03  0.52796474085E+03  0.17887293911E+03 0.  0.
         24    2    3    3    0    0  0.71310213871E+02  0.14141056433E+03 -0.40849356044E+03  0.44499015145E+03  0.77891922910E+02 0.  0.
         -6    2    1    2    0  502 -0.10077248296E+03 -0.21334696245E+03 -0.34661706088E+03  0.45224985350E+03  0.16945360247E+03 0.  0.
        -24    2    5    5    0    0  0.10200282290E+02 -0.62827908141E+02 -0.10275658970E+03  0.14490483606E+03  0.79919353030E+02 0.  0.
          5    1    3    3  501    0  0.29462269087E+02  0.71936398123E+02 -0.28632530663E+02  0.82974589404E+02  0.47000000000E+01 0. -1.
        -11    1    4    4    0    0  0.70523450305E+02  0.79833640217E+02 -0.31932312405E+03  0.33662178288E+03  0.00000000000E+00 0.  1.
         12    1    4    4    0    0  0.78676356545E+00  0.61576924113E+02 -0.89170436390E+02  0.10836836857E+03  0.00000000000E+00 0. -1.
         -5    1    5    5    0  502 -0.11097276525E+03 -0.15051905431E+03 -0.24386047119E+03  0.30734501744E+03  0.47000000000E+01 0.  1.
         11    1    6    6    0    0  0.94699417088E+01  0.18424246341E+02 -0.24624961806E+02  0.32179518224E+02  0.00000000000E+00 0. -1.
        -12    1    6    6    0    0  0.73034058151E+00 -0.81252154482E+02 -0.78131627889E+02  0.11272531784E+03  0.00000000000E+00 0.  1.
</event>
<event>
12    1  0.1066489E+000  0.2044309E+03  0.7818608E-02  0.1146655E+00
         21   -1    0    0  503  502  0.00000000000E+00  0.00000000000E+00  0.11313878588E+03  0.11313878588E+03  0.00000000000E+00 0.  1.
         21   -1    0    0  501  503 -0.00000000000E+00 -0.00000000000E+00 -0.38994556139E+03  0.38994556139E+03  0.00000000000E+00 0.  1.
          6    2    1    2  501    0  0.10858524958E+03 -0.11288237343E+02 -0.72770497997E+02  0.21425430424E+03  0.16938471235E+03 0.  0.
         24    2    3    3    0    0  0.74520079414E+02  0.31054365434E+02 -0.10166623679E+03  0.15252598377E+03  0.80065823995E+02 0.  0.
         -6    2    1    2    0  502 -0.10858524958E+03  0.11288237343E+02 -0.20403627752E+03  0.28883004302E+03  0.17284041912E+03 0.  0.
        -24    2    5    5    0    0 -0.92615090163E+02  0.74140126656E+02 -0.12858854914E+03  0.18923157065E+03  0.72105887794E+02 0.  0.
          5    1    3    3  501    0  0.34065170163E+02 -0.42342602778E+02  0.28895738794E+02  0.61728320475E+02  0.47000000000E+01 0. -1.
        -13    1    4    4    0    0 -0.77379007208E+01  0.16194221202E+02  0.33974142713E+01  0.18266645331E+02  0.00000000000E+00 0.  1.
         14    1    4    4    0    0  0.82257980135E+02  0.14860144232E+02 -0.10506365106E+03  0.13425933844E+03  0.00000000000E+00 0. -1.
         -5    1    5    5    0  502 -0.15970159414E+02 -0.62851889313E+02 -0.75447728373E+02  0.99598472371E+02  0.47000000000E+01 0.  1.
         13    1    6    6    0    0 -0.76472507458E+01  0.18992829031E+02  0.54830215022E+01  0.21196026122E+02  0.00000000000E+00 0. -1.
        -14    1    6    6    0    0 -0.84967839417E+02  0.55147297625E+02 -0.13407157065E+03  0.16803554453E+03  0.00000000000E+00 0.  1.
</event>
<event>
12    1  0.1066489E+000  0.2188478E+03  0.7818608E-02  0.1134797E+00
         21   -1    0    0  503  502  0.00000000000E+00  0.00000000000E+00  0.34232598006E+03  0.34232598006E+03  0.00000000000E+00 0.  1.
         21   -1    0    0  501  503 -0.00000000000E+00 -0.00000000000E+00 -0.15088038777E+03  0.15088038777E+03  0.00000000000E+00 0. -1.
          6    2    1    2  501    0 -0.46449349956E+02 -0.12651040999E+03  0.16281443637E+03  0.27276892264E+03  0.17242945955E+03 0.  0.
         24    2    3    3    0    0  0.20205984780E+02 -0.20075108435E+02  0.29298045464E+02  0.89411011148E+02  0.79527741367E+02 0.  0.
         -6    2    1    2    0  502  0.46449349956E+02  0.12651040999E+03  0.28631155927E+02  0.22043744519E+03  0.17207701243E+03 0.  0.
        -24    2    5    5    0    0  0.29270862017E+02 -0.64393085167E+01  0.59812538915E+01  0.84401287643E+02  0.78673717977E+02 0.  0.
          5    1    3    3  501    0 -0.66655334737E+02 -0.10643530155E+03  0.13351639091E+03  0.18335791149E+03  0.47000000000E+01 0. -1.
        -11    1    4    4    0    0 -0.99004228975E+01  0.23393197642E+02 -0.56584009295E+01  0.26024557067E+02  0.00000000000E+00 0.  1.
         12    1    4    4    0    0  0.30106407678E+02 -0.43468306077E+02  0.34956446393E+02  0.63386454081E+02  0.00000000000E+00 0. -1.
         -5    1    5    5    0  502  0.17178487940E+02  0.13294971851E+03  0.22649902035E+02  0.13603615755E+03  0.47000000000E+01 0.  1.
         13    1    6    6    0    0  0.21139342976E+02  0.35563245830E+02  0.41566050132E+01  0.41579966819E+02  0.00000000000E+00 0. -1.
        -14    1    6    6    0    0  0.81315190401E+01 -0.42002554347E+02  0.18246488783E+01  0.42821320824E+02  0.00000000000E+00 0.  1.
</event>
<event>
12    1  0.1066489E+000  0.1845443E+03  0.7818608E-02  0.1163774E+00
         21   -1    0    0  501  502  0.00000000000E+00  0.00000000000E+00  0.42693989599E+03  0.42693989599E+03  0.00000000000E+00 0. -1.
         21   -1    0    0  502  503 -0.00000000000E+00 -0.00000000000E+00 -0.11485852756E+03  0.11485852756E+03  0.00000000000E+00 0. -1.
         -6    2    1    2    0  503 -0.50113891544E+02 -0.39286361853E+02  0.30730478393E+03  0.35845895175E+03  0.17321018882E+03 0.  0.
        -24    2    3    3    0    0  0.15487868491E+01 -0.44881252272E+02  0.28853533465E+03  0.30300881772E+03  0.80901042822E+02 0.  0.
          6    2    1    2  501    0  0.50113891544E+02  0.39286361853E+02  0.47765844954E+01  0.18333947180E+03  0.17185961075E+03 0.  0.
         24    2    5    5    0    0  0.94689019466E+02  0.28476628202E+02 -0.22747711571E+02  0.12964152728E+03  0.80700300209E+02 0.  0.
          5    1    5    5  501    0 -0.44575127921E+02  0.10809733651E+02  0.27524296066E+02  0.53697944511E+02  0.47000000000E+01 0. -1.
        -11    1    6    6    0    0  0.28383705098E+02  0.47987587533E+02  0.31259908038E+01  0.55840980389E+02  0.00000000000E+00 0.  1.
         12    1    6    6    0    0  0.66305314368E+02 -0.19510959331E+02 -0.25873702374E+02  0.73800546895E+02  0.00000000000E+00 0. -1.
         -5    1    3    3    0  503 -0.51662678393E+02  0.55948904193E+01  0.18769449281E+02  0.55450134030E+02  0.47000000000E+01 0.  1.
         11    1    4    4    0    0  0.22844160655E+02  0.17996646217E+01  0.22656173007E+02  0.32224162427E+02  0.00000000000E+00 0. -1.
        -12    1    4    4    0    0 -0.21295373806E+02 -0.46680916894E+02  0.26587916164E+03  0.27078465529E+03  0.00000000000E+00 0.  1.
</event>
<event>
12    1  0.1066489E+000  0.3401317E+03  0.7818608E-02  0.1066807E+00
         21   -1    0    0  501  502  0.00000000000E+00  0.00000000000E+00  0.17989218895E+04  0.17989218895E+04  0.00000000000E+00 0. -1.
         21   -1    0    0  502  503 -0.00000000000E+00 -0.00000000000E+00 -0.76086960494E+02  0.76086960494E+02  0.00000000000E+00 0. -1.
         -6    2    1    2    0  503 -0.27494486311E+03  0.10616026921E+03  0.12327692265E+04  0.12788313082E+04  0.16977888151E+03 0.  0.
        -24    2    3    3    0    0 -0.26779721651E+03  0.56175953524E+02  0.96823981074E+03  0.10094850210E+04  0.81857128677E+02 0.  0.
          6    2    1    2  501    0  0.27494486311E+03 -0.10616026921E+03  0.49006570253E+03  0.59617754178E+03  0.16851880613E+03 0.  0.
         24    2    5    5    0    0  0.25974097917E+03 -0.11917303168E+03  0.36817376364E+03  0.47256433521E+03  0.78086765445E+02 0.  0.
          5    1    5    5  501    0  0.15203883944E+02  0.13012762468E+02  0.12189193889E+03  0.12361320658E+03  0.47000000000E+01 0. -1.
        -13    1    6    6    0    0  0.15612234897E+03 -0.11104493530E+03  0.22259320621E+03  0.29368844199E+03  0.00000000000E+00 0.  1.
         14    1    6    6    0    0  0.10361863019E+03 -0.81280963798E+01  0.14558055743E+03  0.17887589322E+03  0.00000000000E+00 0. -1.
         -5    1    3    3    0  503 -0.71476466010E+01  0.49984315690E+02  0.26452941577E+03  0.26934628728E+03  0.47000000000E+01 0.  1.
         11    1    4    4    0    0 -0.33788381808E+02 -0.90425683226E+01  0.22095374744E+03  0.22370512129E+03  0.00000000000E+00 0. -1.
        -12    1    4    4    0    0 -0.23400883470E+03  0.65218521847E+02  0.74728606331E+03  0.78577989967E+03  0.00000000000E+00 0.  1.
</event>
<event>
12    1  0.1066489E+000  0.1791998E+03  0.7818608E-02  0.1169319E+00
         21   -1    0    0  503  502  0.00000000000E+00  0.00000000000E+00  0.14565825731E+03  0.14565825731E+03  0.00000000000E+00 0. -1.
         21   -1    0    0  501  503 -0.00000000000E+00 -0.00000000000E+00 -0.23241278524E+03  0.23241278524E+03  0.00000000000E+00 0. -1.
          6    2    1    2  501    0  0.50088189769E+02 -0.10962173383E+02  0.53084404925E+01  0.17927838605E+03  0.17170778714E+03 0.  0.
         24    2    3    3    0    0  0.78924012426E+02 -0.50015262174E+02 -0.18966475358E+02  0.12479894083E+03  0.80526531380E+02 0.  0.
         -6    2    1    2    0  502 -0.50088189769E+02  0.10962173383E+02 -0.92062968425E+02  0.19879265650E+03  0.16856433230E+03 0.  0.
        -24    2    5    5    0    0 -0.73990890218E+02  0.26730423531E+02 -0.11631186562E+03  0.16097631325E+03  0.78713124469E+02 0.  0.
          5    1    3    3  501    0 -0.28835822657E+02  0.39053088791E+02  0.24274915850E+02  0.54479445224E+02  0.47000000000E+01 0. -1.
        -13    1    4    4    0    0 -0.16484790727E+02 -0.28602993915E+01 -0.49903150538E+01  0.17459463974E+02  0.00000000000E+00 0.  1.
         14    1    4    4    0    0  0.95408803153E+02 -0.47154962782E+02 -0.13976160304E+02  0.10733947685E+03  0.00000000000E+00 0. -1.
         -5    1    5    5    0  502  0.23902700449E+02 -0.15768250148E+02  0.24248897199E+02  0.37816343251E+02  0.47000000000E+01 0.  1.
         13    1    6    6    0    0 -0.37902857949E+02 -0.54608928506E+00 -0.19093908711E+01  0.37954849857E+02  0.00000000000E+00 0. -1.
        -14    1    6    6    0    0 -0.36088032270E+02  0.27276512816E+02 -0.11440247475E+03  0.12302146339E+03  0.00000000000E+00 0.  1.
</event>
<event>
12    1  0.1066489E+000  0.2019876E+03  0.7818608E-02  0.1148248E+00
         21   -1    0    0  503  502  0.00000000000E+00  0.00000000000E+00  0.12191162476E+03  0.12191162476E+03  0.00000000000E+00 0. -1.
         21   -1    0    0  501  503 -0.00000000000E+00 -0.00000000000E+00 -0.36497523837E+03  0.36497523837E+03  0.00000000000E+00 0. -1.
          6    2    1    2  501    0  0.88907036296E+02  0.55992933866E+02 -0.49550685731E+02  0.20716152664E+03  0.17152538564E+03 0.  0.
         24    2    3    3    0    0 -0.23288668969E+02  0.42231909115E+02 -0.46780704685E+02  0.93993488408E+02  0.65730094192E+02 0.  0.
         -6    2    1    2    0  502 -0.88907036296E+02 -0.55992933866E+02 -0.19351292788E+03  0.27972533649E+03  0.17250895882E+03 0.  0.
        -24    2    5    5    0    0 -0.10730143832E+03 -0.74153884765E+02 -0.10102080630E+03  0.18357411852E+03  0.80509976978E+02 0.  0.
          5    1    3    3  501    0  0.11219570527E+03  0.13761024752E+02 -0.27699810464E+01  0.11316803823E+03  0.47000000000E+01 0. -1.
        -13    1    4    4    0    0 -0.58595897690E+01  0.49169406648E+02 -0.54564691416E+02  0.73683586311E+02  0.00000000000E+00 0.  1.
         14    1    4    4    0    0 -0.17429079200E+02 -0.69374975329E+01  0.77839867307E+01  0.20309902098E+02  0.00000000000E+00 0. -1.
         -5    1    5    5    0  502  0.18394402024E+02  0.18160950899E+02 -0.92492121586E+02  0.96151217979E+02  0.47000000000E+01 0.  1.
         11    1    6    6    0    0  0.36135179075E+01 -0.35703760621E+02 -0.24013683588E+02  0.43179544157E+02  0.00000000000E+00 0. -1.
        -12    1    6    6    0    0 -0.11091495623E+03 -0.38450124144E+02 -0.77007122708E+02  0.14039457436E+03  0.00000000000E+00 0.  1.
</event>
<event>
12    1  0.1066489E+000  0.2684082E+03  0.7818608E-02  0.1102411E+00
         21   -1    0    0  501  502  0.00000000000E+00  0.00000000000E+00  0.28789210031E+03  0.28789210031E+03  0.00000000000E+00 0.  1.
         21   -1    0    0  502  503 -0.00000000000E+00 -0.00000000000E+00 -0.40132850957E+03  0.40132850957E+03  0.00000000000E+00 0. -1.
         -6    2    1    2    0  503 -0.18199056632E+03  0.93217147194E+02 -0.26903333185E+03  0.37897336871E+03  0.17155721432E+03 0.  0.
        -24    2    3    3    0    0 -0.14526340450E+03  0.90009455331E+02 -0.11510049755E+03  0.22061749992E+03  0.78872035616E+02 0.  0.
          6    2    1    2  501    0  0.18199056632E+03 -0.93217147194E+02  0.15559692259E+03  0.31024724117E+03  0.17387623637E+03 0.  0.
         24    2    5    5    0    0  0.13809187200E+02 -0.94738881238E+01  0.40036173030E+02  0.89624743313E+02  0.78417161742E+02 0.  0.
          5    1    5    5  501    0  0.16818137912E+03 -0.83743259071E+02  0.11556074956E+03  0.22062249786E+03  0.47000000000E+01 0. -1.
        -11    1    6    6    0    0  0.12634237375E+02 -0.42850783413E+02  0.32877936277E+02  0.55468660404E+02  0.00000000000E+00 0.  1.
         12    1    6    6    0    0  0.11749498246E+01  0.33376895289E+02  0.71582367531E+01  0.34156082909E+02  0.00000000000E+00 0. -1.
         -5    1    3    3    0  503 -0.36727161823E+02  0.32076918631E+01 -0.15393283430E+03  0.15835586879E+03  0.47000000000E+01 0.  1.
         11    1    4    4    0    0 -0.31530234199E+02  0.53121395459E+02 -0.68634351180E+02  0.92340199730E+02  0.00000000000E+00 0. -1.
        -12    1    4    4    0    0 -0.11373317030E+03  0.36888059872E+02 -0.46466146367E+02  0.12827730019E+03  0.00000000000E+00 0.  1.
</event>
<event>
12    1  0.1066489E+000  0.1779366E+03  0.7818608E-02  0.1169993E+00
         21   -1    0    0  503  502  0.00000000000E+00  0.00000000000E+00  0.72747763956E+03  0.72747763956E+03  0.00000000000E+00 0.  1.
         21   -1    0    0  501  503 -0.00000000000E+00 -0.00000000000E+00 -0.53021676337E+02  0.53021676337E+02  0.00000000000E+00 0.  1.
          6    2    1    2  501    0  0.37347286485E+02  0.14856379815E+02  0.50449529787E+03  0.53495509741E+03  0.17333758637E+03 0.  0.
         24    2    3    3    0    0  0.73133168301E+01 -0.56829751155E+02  0.29303729580E+03  0.30961642487E+03  0.81904631114E+02 0.  0.
         -6    2    1    2    0  502 -0.37347286485E+02 -0.14856379815E+02  0.16996066536E+03  0.24554421849E+03  0.17259722951E+03 0.  0.
        -24    2    5    5    0    0 -0.22483513654E+02 -0.62965991975E+02  0.50168765555E+02  0.11551477650E+03  0.79727874806E+02 0.  0.
          5    1    3    3  501    0  0.30033969655E+02  0.71686130969E+02  0.21145800207E+03  0.22533867255E+03  0.47000000000E+01 0. -1.
        -13    1    4    4    0    0  0.77426582017E+01 -0.51062599297E+02  0.29772543557E+03  0.30217176040E+03  0.00000000000E+00 0.  1.
         14    1    4    4    0    0 -0.42934137167E+00 -0.57671518573E+01 -0.46881397628E+01  0.74446644648E+01  0.00000000000E+00 0. -1.
         -5    1    5    5    0  502 -0.14863772831E+02  0.48109612160E+02  0.11979189980E+03  0.13002944199E+03  0.47000000000E+01 0.  1.
         13    1    6    6    0    0 -0.32800938973E+02 -0.47639840182E+02  0.68387600437E+02  0.89567404024E+02  0.00000000000E+00 0. -1.
        -14    1    6    6    0    0  0.10317425319E+02 -0.15326151792E+02 -0.18218834882E+02  0.25947372477E+02  0.00000000000E+00 0.  1.
</event>
<event>
12    1  0.1066489E+000  0.2134636E+03  0.7818608E-02  0.1138884E+00
         21   -1    0    0  501  502  0.00000000000E+00  0.00000000000E+00  0.16370425763E+03  0.16370425763E+03  0.00000000000E+00 0.  1.
         21   -1    0    0  502  503 -0.00000000000E+00 -0.00000000000E+00 -0.28190397808E+03  0.28190397808E+03  0.00000000000E+00 0.  1.
         -6    2    1    2    0  503  0.53587944065E+02  0.11499007683E+03 -0.84846017057E+02  0.22955458291E+03  0.17147033098E+03 0.  0.
        -24    2    3    3    0    0  0.62222360988E+02  0.14310307489E+03 -0.48224116701E+02  0.18235132665E+03  0.81094566081E+02 0.  0.
          6    2    1    2  501    0 -0.53587944065E+02 -0.11499007683E+03 -0.33353703394E+02  0.21605365279E+03  0.17167505887E+03 0.  0.
         24    2    5    5    0    0 -0.76925377445E+02 -0.11249178221E+03 -0.69906623665E+02  0.17236059553E+03  0.79052666621E+02 0.  0.
          5    1    5    5  501    0  0.23337433380E+02 -0.24982946190E+01  0.36552920271E+02  0.43693057264E+02  0.47000000000E+01 0. -1.
        -13    1    6    6    0    0 -0.80584323177E+02 -0.50114116383E+02 -0.46014498461E+02  0.10546369931E+03  0.00000000000E+00 0.  1.
         14    1    6    6    0    0  0.36589457328E+01 -0.62377665823E+02 -0.23892125204E+02  0.66896896223E+02  0.00000000000E+00 0. -1.
         -5    1    3    3    0  503 -0.86344169234E+01 -0.28112998069E+02 -0.36621900356E+02  0.47203256261E+02  0.47000000000E+01 0.  1.
         11    1    4    4    0    0  0.31905537844E+01  0.99773471174E+02 -0.11660323155E+02  0.10050317567E+03  0.00000000000E+00 0. -1.
        -12    1    4    4    0    0  0.59031807204E+02  0.43329603720E+02 -0.36563793546E+02  0.81848150980E+02  0.00000000000E+00 0.  1.
</event>
<event>
12    1  0.1066489E+000  0.2044358E+03  0.7818608E-02  0.1146192E+00
         21   -1    0    0  501  502  0.00000000000E+00  0.00000000000E+00  0.49235361773E+03  0.49235361773E+03  0.00000000000E+00 0.  1.
         21   -1    0    0  502  503 -0.00000000000E+00 -0.00000000000E+00 -0.11048707154E+03  0.11048707154E+03  0.00000000000E+00 0.  1.
         -6    2    1    2    0  503 -0.71917427282E+02 -0.83685606496E+02  0.33708878096E+03  0.39423706168E+03  0.17210060277E+03 0.  0.
        -24    2    3    3    0    0 -0.10977177835E+03 -0.36727892998E+02  0.26169807345E+03  0.29757358600E+03  0.81641753963E+02 0.  0.
          6    2    1    2  501    0  0.71917427282E+02  0.83685606496E+02  0.44777765233E+02  0.20860362759E+03  0.17127471530E+03 0.  0.
         24    2    5    5    0    0  0.13096669425E+02 -0.15692875663E+01 -0.34881400645E+02  0.77852141077E+02  0.68339288450E+02 0.  0.
          5    1    5    5  501    0  0.58820757858E+02  0.85254894062E+02  0.79659165878E+02  0.13075148651E+03  0.47000000000E+01 0. -1.
        -11    1    6    6    0    0  0.29899777545E+02 -0.19759286632E+02 -0.95769446354E+00  0.35851684537E+02  0.00000000000E+00 0.  1.
         12    1    6    6    0    0 -0.16803108121E+02  0.18189999066E+02 -0.33923706181E+02  0.42000456540E+02  0.00000000000E+00 0. -1.
         -5    1    3    3    0  503  0.37854351071E+02 -0.46957713498E+02  0.75390707507E+02  0.96663475679E+02  0.47000000000E+01 0.  1.
         13    1    4    4    0    0 -0.34364963999E+02 -0.54250915397E+02  0.11667521243E+03  0.13318114644E+03  0.00000000000E+00 0. -1.
        -14    1    4    4    0    0 -0.75406814354E+02  0.17523022399E+02  0.14502286102E+03  0.16439243956E+03  0.00000000000E+00 0.  1.
</event>
<event>
12    1  0.1066489E+000  0.2430148E+03  0.7818608E-02  0.1118081E+00
         21   -1    0    0  503  502  0.00000000000E+00  0.00000000000E+00  0.43016918814E+03  0.43016918814E+03  0.00000000000E+00 0. -1.
         21   -1    0    0  501  503 -0.00000000000E+00 -0.00000000000E+00 -0.15518795655E+03  0.15518795655E+03  0.00000000000E+00 0. -1.
          6    2    1    2  501    0  0.53769004930E+02  0.16035970095E+03  0.35027942034E+02  0.24384028113E+03  0.17211852428E+03 0.  0.
         24    2    3    3    0    0  0.96850804590E+01  0.19184007757E+01  0.92449191847E+01  0.77305323047E+02  0.76112833317E+02 0.  0.
         -6    2    1    2    0  502 -0.53769004930E+02 -0.16035970095E+03  0.23995328956E+03  0.34151686356E+03  0.17449884626E+03 0.  0.
        -24    2    5    5    0    0 -0.80882460588E+02 -0.50670797241E+02  0.16276906549E+03  0.20459977362E+03  0.79106235903E+02 0.  0.
          5    1    3    3  501    0  0.44083924471E+02  0.15844130017E+03  0.25783022849E+02  0.16653495808E+03  0.47000000000E+01 0. -1.
        -13    1    4    4    0    0  0.14002030605E+02  0.17992068604E+01  0.41978189009E+02  0.44288399823E+02  0.00000000000E+00 0.  1.
         14    1    4    4    0    0 -0.43169501462E+01  0.11919391535E+00 -0.32733269825E+02  0.33016923224E+02  0.00000000000E+00 0. -1.
         -5    1    5    5    0  502  0.27113455658E+02 -0.10968890371E+03  0.77184224068E+02  0.13691708994E+03  0.47000000000E+01 0.  1.
         11    1    6    6    0    0 -0.27144189469E+02 -0.27822314800E+02  0.13396100408E+03  0.13948633925E+03  0.00000000000E+00 0. -1.
        -12    1    6    6    0    0 -0.53738271119E+02 -0.22848482441E+02  0.28808061410E+02  0.65113434366E+02  0.00000000000E+00 0.  1.
</event>
<event>
12    1  0.1066489E+000  0.1922493E+03  0.7818608E-02  0.1156655E+00
         21   -1    0    0  503  502  0.00000000000E+00  0.00000000000E+00  0.28616919779E+03  0.28616919779E+03  0.00000000000E+00 0.  1.
         21   -1    0    0  501  503 -0.00000000000E+00 -0.00000000000E+00 -0.12854074345E+03  0.12854074345E+03  0.00000000000E+00 0.  1.
          6    2    1    2  501    0  0.83512082601E+02 -0.17488372293E+02  0.77049914340E+02  0.20711467580E+03  0.17227793976E+03 0.  0.
         24    2    3    3    0    0 -0.80057856649E+01 -0.18687329579E+02 -0.75462004041E+01  0.82392783820E+02  0.79487840543E+02 0.  0.
         -6    2    1    2    0  502 -0.83512082601E+02  0.17488372293E+02  0.80578539997E+02  0.20759526544E+03  0.17123896174E+03 0.  0.
        -24    2    5    5    0    0  0.63012395932E+01  0.37111748606E+02  0.73314685737E+02  0.11525695638E+03  0.80573788196E+02 0.  0.
          5    1    3    3  501    0  0.91517868265E+02  0.11989572858E+01  0.84596114744E+02  0.12472189198E+03  0.47000000000E+01 0. -1.
        -11    1    4    4    0    0  0.31888177486E+02 -0.22527020523E+02 -0.14629268946E+02  0.41693381093E+02  0.00000000000E+00 0.  1.
         12    1    4    4    0    0 -0.39893963151E+02  0.38396909444E+01  0.70830685423E+01  0.40699402728E+02  0.00000000000E+00 0. -1.
         -5    1    5    5    0  502 -0.89813322194E+02 -0.19623376313E+02  0.72638542598E+01  0.92338309060E+02  0.47000000000E+01 0.  1.
         13    1    6    6    0    0 -0.22988377610E+00  0.57109138845E+02  0.24577946323E+02  0.62173805027E+02  0.00000000000E+00 0. -1.
        -14    1    6    6    0    0  0.65311233693E+01 -0.19997390239E+02  0.48736739414E+02  0.53083151353E+02  0.00000000000E+00 0.  1.
</event>
<event>
12    1  0.1066489E+000  0.2870519E+03  0.7818608E-02  0.1091908E+00
         21   -1    0    0  503  502  0.00000000000E+00  0.00000000000E+00  0.52846599890E+02  0.52846599890E+02  0.00000000000E+00 0.  1.
         21   -1    0    0  501  503 -0.00000000000E+00 -0.00000000000E+00 -0.25173071975E+04  0.25173071975E+04  0.00000000000E+00 0.  1.
          6    2    1    2  501    0 -0.22839342915E+03 -0.19024133732E+02 -0.43917051066E+03  0.52462238659E+03  0.17272068473E+03 0.  0.
         24    2    3    3    0    0 -0.97442447279E+02  0.18651836479E+02 -0.89947410090E+02  0.14972706472E+03  0.66968170003E+02 0.  0.
         -6    2    1    2    0  502  0.22839342915E+03  0.19024133732E+02 -0.20252900870E+04  0.20455314109E+04  0.17283905845E+03 0.  0.
        -24    2    5    5    0    0  0.17839643742E+03 -0.43088425960E+02 -0.15782439920E+04  0.15914059102E+04  0.89648042424E+02 0.  0.
          5    1    3    3  501    0 -0.13095098188E+03 -0.37675970211E+02 -0.34922310057E+03  0.37489532187E+03  0.47000000000E+01 0. -1.
        -11    1    4    4    0    0  0.11370394234E+01  0.18255438219E+02 -0.35232110388E+01  0.18627047518E+02  0.00000000000E+00 0.  1.
         12    1    4    4    0    0 -0.98579486702E+02  0.39639826002E+00 -0.86424199051E+02  0.13110001721E+03  0.00000000000E+00 0. -1.
         -5    1    5    5    0  502  0.49996991733E+02  0.62112559692E+02 -0.44704609505E+03  0.45412550066E+03  0.47000000000E+01 0.  1.
         11    1    6    6    0    0  0.10724713190E+03 -0.19754961411E+01 -0.11742741637E+04  0.11791631191E+04  0.00000000000E+00 0. -1.
        -12    1    6    6    0    0  0.71149305520E+02 -0.41112929819E+02 -0.40396982822E+03  0.41224279106E+03  0.00000000000E+00 0.  1.
</event>
<event>
12    1  0.1066489E+000  0.1893916E+03  0.7818608E-02  0.1159915E+00
         21   -1    0    0  503  502  0.00000000000E+00  0.00000000000E+00  0.99327668518E+03  0.99327668518E+03  0.00000000000E+00 0. -1.
         21   -1    0    0  501  503 -0.00000000000E+00 -0.00000000000E+00 -0.35985133977E+02  0.35985133977E+02  0.00000000000E+00 0. -1.
          6    2    1    2  501    0  0.30398881836E+02 -0.74050470752E+02  0.54135160219E+03  0.57223314278E+03  0.16727716002E+03 0.  0.
         24    2    3    3    0    0  0.22352597323E+02 -0.11365051367E+03  0.46428464312E+03  0.48508779136E+03  0.79585536530E+02 0.  0.
         -6    2    1    2    0  502 -0.30398881836E+02  0.74050470752E+02  0.41593994901E+03  0.45702867638E+03  0.17164383360E+03 0.  0.
        -24    2    5    5    0    0  0.28196773023E+02  0.50944016545E+02  0.12574440712E+03  0.16003894335E+03  0.80065327290E+02 0.  0.
          5    1    3    3  501    0  0.80462845133E+01  0.39600042917E+02  0.77066959072E+02  0.87145351420E+02  0.47000000000E+01 0. -1.
        -13    1    4    4    0    0 -0.21556009400E+02 -0.72860423037E+02  0.19650475403E+03  0.21068322464E+03  0.00000000000E+00 0.  1.
         14    1    4    4    0    0  0.43908606723E+02 -0.40790090632E+02  0.26777988909E+03  0.27440456672E+03  0.00000000000E+00 0. -1.
         -5    1    5    5    0  502 -0.58595654859E+02  0.23106454207E+02  0.29019554189E+03  0.29698973303E+03  0.47000000000E+01 0.  1.
         11    1    6    6    0    0  0.44310715304E+02  0.14194974887E+02  0.10504348103E+03  0.11488720429E+03  0.00000000000E+00 0. -1.
        -12    1    6    6    0    0 -0.16113942281E+02  0.36749041658E+02  0.20700926092E+02  0.45151739055E+02  0.00000000000E+00 0.  1.
</event>
<event>
12    1  0.1066489E+000  0.2551009E+03  0.7818608E-02  0.1110267E+00
         21   -1    0    0  503  502  0.00000000000E+00  0.00000000000E+00  0.79338554060E+02  0.79338554060E+02  0.00000000000E+00 0.  1.
         21   -1    0    0  501  503 -0.00000000000E+00 -0.00000000000E+00 -0.10892486741E+04  0.10892486741E+04  0.00000000000E+00 0.  1.
          6    2    1    2  501    0 -0.17087743755E+03 -0.78729225846E+02 -0.21226979635E+03  0.33114676424E+03  0.17088687300E+03 0.  0.
         24    2    3    3    0    0 -0.88229072557E+02  0.62972045629E+01 -0.47776366325E+02  0.12831573944E+03  0.79739098181E+02 0.  0.
         -6    2    1    2    0  502  0.17087743755E+03  0.78729225846E+02 -0.79764032365E+03  0.83744046388E+03  0.17227610095E+03 0.  0.
        -24    2    5    5    0    0  0.17493787795E+03  0.88383786475E+02 -0.79773345140E+03  0.82596020299E+03  0.86119931410E+02 0.  0.
          5    1    3    3  501    0 -0.82648364988E+02 -0.85026430409E+02 -0.16449343002E+03  0.20283102480E+03  0.47000000000E+01 0. -1.
        -11    1    4    4    0    0  0.62241046265E+01 -0.18020543888E+02  0.13421693184E+01  0.19112323221E+02  0.00000000000E+00 0.  1.
         12    1    4    4    0    0 -0.94453177183E+02  0.24317748451E+02 -0.49118535643E+02  0.10920341622E+03  0.00000000000E+00 0. -1.
         -5    1    5    5    0  502 -0.40604404054E+01 -0.96545606293E+01  0.93127748995E-01  0.11480260886E+02  0.47000000000E+01 0.  1.
         11    1    6    6    0    0  0.51172284207E+02  0.21585229570E+02 -0.40527168381E+03  0.40905948529E+03  0.00000000000E+00 0. -1.
        -12    1    6    6    0    0  0.12376559374E+03  0.66798556905E+02 -0.39246176759E+03  0.41690071770E+03  0.00000000000E+00 0.  1.
</event>
<event>
12    1  0.1066489E+000  0.2280527E+03  0.7818608E-02  0.1128286E+00
         21   -1    0    0  503  502  0.00000000000E+00  0.00000000000E+00  0.11357914766E+04  0.11357914766E+04  0.00000000000E+00 0.  1.
         21   -1    0    0  501  503 -0.00000000000E+00 -0.00000000000E+00 -0.53056197924E+02  0.53056197924E+02  0.00000000000E+00 0.  1.
          6    2    1    2  501    0 -0.14727348673E+03  0.25272301619E+02  0.31841607523E+03  0.39165907027E+03  0.17227844102E+03 0.  0.
         24    2    3    3    0    0 -0.16878926069E+03  0.34837724055E+02  0.22265362939E+03  0.29293236735E+03  0.80816159424E+02 0.  0.
         -6    2    1    2    0  502  0.14727348673E+03 -0.25272301619E+02  0.76431920342E+03  0.79718860423E+03  0.17028698385E+03 0.  0.
        -24    2    5    5    0    0  0.16851912433E+03 -0.31345358822E+01  0.71412963828E+03  0.73817555280E+03  0.80706170240E+02 0.  0.
          5    1    3    3  501    0  0.21515773957E+02 -0.95654224358E+01  0.95762445843E+02  0.98726702919E+02  0.47000000000E+01 0. -1.
        -13    1    4    4    0    0 -0.72931209380E+02 -0.12822609322E+02  0.48540051700E+02  0.88541048280E+02  0.00000000000E+00 0.  1.
         14    1    4    4    0    0 -0.95858051306E+02  0.47660333377E+02  0.17411357769E+03  0.20439131907E+03  0.00000000000E+00 0. -1.
         -5    1    5    5    0  502 -0.21245637598E+02 -0.22137765737E+02  0.50189565147E+02  0.59013051424E+02  0.47000000000E+01 0.  1.
         13    1    6    6    0    0  0.89506380988E+02 -0.24711487658E+02  0.24613200215E+03  0.26306465430E+03  0.00000000000E+00 0. -1.
        -14    1    6    6    0    0  0.79012743339E+02  0.21576951776E+02  0.46799763612E+03  0.47511089850E+03  0.00000000000E+00 0.  1.
</event>
<event>
12    1  0.1066489E+000  0.2639635E+03  0.7818608E-02  0.1105070E+00
         21   -1    0    0  503  502  0.00000000000E+00  0.00000000000E+00  0.20937511799E+03  0.20937511799E+03  0.00000000000E+00 0.  1.
         21   -1    0    0  501  503 -0.00000000000E+00 -0.00000000000E+00 -0.34119779905E+03  0.34119779905E+03  0.00000000000E+00 0.  1.
          6    2    1    2  501    0 -0.18420117524E+03  0.75501746509E+02 -0.16615969207E+02  0.26256369260E+03  0.17039077309E+03 0.  0.
         24    2    3    3    0    0 -0.92997495500E+02  0.37013694169E+02 -0.72719611467E+02  0.14868151645E+03  0.82459103289E+02 0.  0.
         -6    2    1    2    0  502  0.18420117524E+03 -0.75501746509E+02 -0.11520671185E+03  0.28800922444E+03  0.17333822492E+03 0.  0.
        -24    2    5    5    0    0  0.47319324996E+02 -0.84165077223E+02 -0.71222230755E+02  0.14389670311E+03  0.79440394448E+02 0.  0.
          5    1    3    3  501    0 -0.91203679743E+02  0.38488052340E+02  0.56103642260E+02  0.11388217616E+03  0.47000000000E+01 0. -1.
        -11    1    4    4    0    0 -0.50517818949E+02 -0.96691344629E+01  0.12411609122E+01  0.51449807317E+02  0.00000000000E+00 0.  1.
         12    1    4    4    0    0 -0.42479676551E+02  0.46682828632E+02 -0.73960772380E+02  0.97231709128E+02  0.00000000000E+00 0. -1.
         -5    1    5    5    0  502  0.13688185025E+03  0.86633307140E+01 -0.43984481094E+02  0.14411252133E+03  0.47000000000E+01 0.  1.
         11    1    6    6    0    0  0.33563718489E+02 -0.10589497233E+02 -0.58065319000E+02  0.67898762294E+02  0.00000000000E+00 0. -1.
        -12    1    6    6    0    0  0.13755606506E+02 -0.73575579990E+02 -0.13156911754E+02  0.75997940816E+02  0.00000000000E+00 0.  1.
</event>
<event>
12    1  0.1066489E+000  0.2308135E+03  0.7818608E-02  0.1126188E+00
         21   -1    0    0  503  502  0.00000000000E+00  0.00000000000E+00  0.14181030272E+04  0.14181030272E+04  0.00000000000E+00 0. -1.
         21   -1    0    0  501  503 -0.00000000000E+00 -0.00000000000E+00 -0.49483707790E+02  0.49483707790E+02  0.00000000000E+00 0. -1.
          6    2    1    2  501    0  0.85706076845E+02 -0.12885541420E+03  0.32331964904E+03  0.39725365690E+03  0.17124725717E+03 0.  0.
         24    2    3    3    0    0  0.22386584041E+02 -0.24523952588E+02  0.21600799034E+03  0.23467354082E+03  0.85496406211E+02 0.  0.
         -6    2    1    2    0  502 -0.85706076845E+02  0.12885541420E+03  0.10452996704E+04  0.10703330781E+04  0.17032982064E+03 0.  0.
        -24    2    5    5    0    0 -0.96181409952E+02  0.98264360845E+02  0.10087877574E+04  0.10213355788E+04  0.81036268512E+02 0.  0.
          5    1    3    3  501    0  0.63319492804E+02 -0.10433146162E+03  0.10731165870E+03  0.16258011608E+03  0.47000000000E+01 0. -1.
        -11    1    4    4    0    0  0.54357040079E+02 -0.19977204777E+02  0.15806261256E+03  0.16833765475E+03  0.00000000000E+00 0.  1.
         12    1    4    4    0    0 -0.31970456038E+02 -0.45467478114E+01  0.57945377778E+02  0.66335886071E+02  0.00000000000E+00 0. -1.
         -5    1    5    5    0  502  0.10475333107E+02  0.30591053359E+02  0.36511913040E+02  0.48997499356E+02  0.47000000000E+01 0.  1.
         13    1    6    6    0    0 -0.68259688649E+02  0.10980420321E+03  0.80311246440E+03  0.81345312011E+03  0.00000000000E+00 0. -1.
        -14    1    6    6    0    0 -0.27921721304E+02 -0.11539842368E+02  0.20567529296E+03  0.20788245866E+03  0.00000000000E+00 0.  1.
</event>
<event>
12    1  0.1066489E+000  0.1917490E+03  0.7818608E-02  0.1160247E+00
         21   -1    0    0  503  502  0.00000000000E+00  0.00000000000E+00  0.50571226635E+03  0.50571226635E+03  0.00000000000E+00 0.  1.
         21   -1    0    0  501  503 -0.00000000000E+00 -0.00000000000E+00 -0.13327993377E+03  0.13327993377E+03  0.00000000000E+00 0.  1.
          6    2    1    2  501    0  0.45223461945E+02 -0.28929595239E+02  0.41454801823E+03  0.45674691573E+03  0.18408042434E+03 0.  0.
         24    2    3    3    0    0  0.41427773079E+02 -0.35145094153E+02  0.42887433535E+03  0.44000257212E+03  0.81961148898E+02 0.  0.
         -6    2    1    2    0  502 -0.45223461945E+02  0.28929595239E+02 -0.42115685653E+02  0.18224528439E+03  0.16898973257E+03 0.  0.
        -24    2    5    5    0    0 -0.36672356882E+02  0.10334382309E+02 -0.92252478937E+02  0.12788821141E+03  0.79957573318E+02 0.  0.
          5    1    3    3  501    0  0.37956888658E+01  0.62154989146E+01 -0.14326317122E+02  0.16744343612E+02  0.47000000000E+01 0. -1.
        -11    1    4    4    0    0  0.56743679019E+02 -0.18358010568E+02  0.39325680153E+03  0.39775340804E+03  0.00000000000E+00 0.  1.
         12    1    4    4    0    0 -0.15315905940E+02 -0.16787083585E+02  0.35617533817E+02  0.42249164078E+02  0.00000000000E+00 0. -1.
         -5    1    5    5    0  502 -0.85511050626E+01  0.18595212930E+02  0.50136793284E+02  0.54357072976E+02  0.47000000000E+01 0.  1.
         13    1    6    6    0    0  0.79932005794E+01  0.14003412953E+02  0.80551627521E+01  0.18024219173E+02  0.00000000000E+00 0. -1.
        -14    1    6    6    0    0 -0.44665557462E+02 -0.36690306447E+01 -0.10030764169E+03  0.10986399224E+03  0.00000000000E+00 0.  1.
</event>
<event>
12    1  0.1066489E+000  0.1765645E+03  0.7818608E-02  0.1171999E+00
         21   -1    0    0  503  502  0.00000000000E+00  0.00000000000E+00  0.77950969515E+03  0.77950969515E+03  0.00000000000E+00 0.  1.
         21   -1    0    0  501  503 -0.00000000000E+00 -0.00000000000E+00 -0.98064702239E+02  0.98064702239E+02  0.00000000000E+00 0.  1.
          6    2    1    2  501    0  0.99474087132E+01  0.18701410155E+02  0.21966458862E+01  0.17657812727E+03  0.17528923554E+03 0.  0.
         24    2    3    3    0    0  0.40247335694E+02  0.16524719942E+02 -0.59238773891E+02  0.10788151631E+03  0.78970088191E+02 0.  0.
         -6    2    1    2    0  502 -0.99474087132E+01 -0.18701410155E+02  0.67924834703E+03  0.70099627012E+03  0.17195569225E+03 0.  0.
        -24    2    5    5    0    0 -0.47507354555E+01 -0.80870402446E+02  0.34184794922E+03  0.35784454353E+03  0.68044878371E+02 0.  0.
          5    1    3    3  501    0 -0.30299926981E+02  0.21766902130E+01  0.61435419777E+02  0.68696610968E+02  0.47000000000E+01 0. -1.
        -13    1    4    4    0    0  0.34815226186E+02 -0.28094251405E+02 -0.24010607830E+02  0.50772987156E+02  0.00000000000E+00 0.  1.
         14    1    4    4    0    0  0.54321095086E+01  0.44618971347E+02 -0.35228166061E+02  0.57108529151E+02  0.00000000000E+00 0. -1.
         -5    1    5    5    0  502 -0.51966732577E+01  0.62168992292E+02  0.33740039781E+03  0.34315172658E+03  0.47000000000E+01 0.  1.
         11    1    6    6    0    0 -0.19301393097E+02 -0.27056067201E+01  0.28224711104E+02  0.34300122450E+02  0.00000000000E+00 0. -1.
        -12    1    6    6    0    0  0.14550657641E+02 -0.78164795726E+02  0.31362323811E+03  0.32354442108E+03  0.00000000000E+00 0.  1.
</event>
<event>
12    1  0.1066489E+000  0.1743809E+03  0.7818608E-02  0.1173440E+00
         21   -1    0    0  501  502  0.00000000000E+00  0.00000000000E+00  0.24155202809E+03  0.24155202809E+03  0.00000000000E+00 0.  1.
         21   -1    0    0  502  503 -0.00000000000E+00 -0.00000000000E+00 -0.13115446202E+03  0.13115446202E+03  0.00000000000E+00 0.  1.
         -6    2    1    2    0  503 -0.66000972024E+01 -0.26415687812E+02  0.17054847807E+02  0.17521287401E+03  0.17224207831E+03 0.  0.
        -24    2    3    3    0    0  0.28247054254E+02 -0.38591033963E+02  0.64440773063E+02  0.11496273765E+03  0.82320433912E+02 0.  0.
          6    2    1    2  501    0  0.66000972024E+01  0.26415687812E+02  0.93342718260E+02  0.19749361610E+03  0.17189972513E+03 0.  0.
         24    2    5    5    0    0 -0.34120191500E+02  0.23613568640E+02 -0.50894362336E+01  0.90830722727E+02  0.80638264726E+02 0.  0.
          5    1    5    5  501    0  0.40720288703E+02  0.28021191720E+01  0.98432154494E+02  0.10666289337E+03  0.47000000000E+01 0. -1.
        -13    1    6    6    0    0  0.13906144681E+02 -0.20951297673E+02 -0.23495893512E+01  0.25255856830E+02  0.00000000000E+00 0.  1.
         14    1    6    6    0    0 -0.48026336181E+02  0.44564866313E+02 -0.27398468823E+01  0.65574865897E+02  0.00000000000E+00 0. -1.
         -5    1    3    3    0  503 -0.34847151456E+02  0.12175346151E+02 -0.47385925257E+02  0.60250136356E+02  0.47000000000E+01 0.  1.
         13    1    4    4    0    0 -0.94335487616E+01 -0.15876623660E+02  0.68341456996E+02  0.70792752209E+02  0.00000000000E+00 0. -1.
        -14    1    4    4    0    0  0.37680603015E+02 -0.22714410303E+02 -0.39006839324E+01  0.44169985444E+02  0.00000000000E+00 0.  1.
</event>
<event>
12    1  0.1066489E+000  0.2256060E+03  0.7818608E-02  0.1129862E+00
         21   -1    0    0  501  502  0.00000000000E+00  0.00000000000E+00  0.75879067000E+02  0.75879067000E+02  0.00000000000E+00 0. -1.
         21   -1    0    0  502  503 -0.00000000000E+00 -0.00000000000E+00 -0.10215208311E+04  0.10215208311E+04  0.00000000000E+00 0. -1.
         -6    2    1    2    0  503  0.56171818313E+01  0.14476297489E+03 -0.15027517485E+03  0.27065564350E+03  0.17229038729E+03 0.  0.
        -24    2    3    3    0    0 -0.10341629146E+02  0.12550062051E+03 -0.35959449001E+02  0.15354075495E+03  0.80151895895E+02 0.  0.
          6    2    1    2  501    0 -0.56171818313E+01 -0.14476297489E+03 -0.79536658921E+03  0.82674425456E+03  0.17294559717E+03 0.  0.
         24    2    5    5    0    0  0.26056642823E+02 -0.14896105166E+02 -0.39911528292E+03  0.40852681978E+03  0.81855426393E+02 0.  0.
          5    1    5    5  501    0 -0.31673824654E+02 -0.12986686973E+03 -0.39625130629E+03  0.41821743478E+03  0.47000000000E+01 0. -1.
        -13    1    6    6    0    0 -0.24967572079E+02 -0.20264961317E+02 -0.21520237000E+03  0.21759160913E+03  0.00000000000E+00 0.  1.
         14    1    6    6    0    0  0.51024214902E+02  0.53688561507E+01 -0.18391291292E+03  0.19093521064E+03  0.00000000000E+00 0. -1.
         -5    1    3    3    0  503  0.15958810978E+02  0.19262354378E+02 -0.11431572585E+03  0.11711488855E+03  0.47000000000E+01 0.  1.
         13    1    4    4    0    0 -0.44283805236E+02  0.77879935714E+02 -0.12189054937E+02  0.90415224676E+02  0.00000000000E+00 0. -1.
        -14    1    4    4    0    0  0.33942176089E+02  0.47620684800E+02 -0.23770394064E+02  0.63125530275E+02  0.00000000000E+00 0.  1.
</event>
<event>
12    1  0.1066489E+000  0.2407795E+03  0.7818608E-02  0.1119643E+00
         21   -1    0    0  501  502  0.00000000000E+00  0.00000000000E+00  0.26906429263E+03  0.26906429263E+03  0.00000000000E+00 0.  1.
         21   -1    0    0  502  503 -0.00000000000E+00 -0.00000000000E+00 -0.25052171545E+03  0.25052171545E+03  0.00000000000E+00 0.  1.
         -6    2    1    2    0  503  0.11174977402E+03  0.12486032079E+03  0.10918604546E+03  0.26437918037E+03  0.17290646833E+03 0.  0.
        -24    2    3    3    0    0  0.10558432910E+03  0.14980129467E+03  0.12353459445E+03  0.23457925174E+03  0.78601214261E+02 0.  0.
          6    2    1    2  501    0 -0.11174977402E+03 -0.12486032079E+03 -0.90643468289E+02  0.25520682770E+03  0.16981217525E+03 0.  0.
         24    2    5    5    0    0 -0.98191332502E+02 -0.63854563140E+02 -0.12026254027E+03  0.18588934630E+03  0.79829990997E+02 0.  0.
          5    1    5    5  501    0 -0.13558441518E+02 -0.61005757653E+02  0.29619071984E+02  0.69317481405E+02  0.47000000000E+01 0. -1.
        -13    1    6    6    0    0 -0.27426928381E+02  0.18546134494E+02 -0.29439059953E+02  0.44304105408E+02  0.00000000000E+00 0.  1.
         14    1    6    6    0    0 -0.70764404121E+02 -0.82400697633E+02 -0.90823480320E+02  0.14158524089E+03  0.00000000000E+00 0. -1.
         -5    1    3    3    0  503  0.61654449180E+01 -0.24940973875E+02 -0.14348548985E+02  0.29799928638E+02  0.47000000000E+01 0.  1.
         11    1    4    4    0    0  0.71371053658E+02  0.38404696920E+02  0.35252868564E+02  0.88382762956E+02  0.00000000000E+00 0. -1.
        -12    1    4    4    0    0  0.34213275444E+02  0.11139659775E+03  0.88281725885E+02  0.14619648878E+03  0.00000000000E+00 0.  1.
</event>
<event>
12    1  0.1066489E+000  0.2298848E+03  0.7818608E-02  0.1128840E+00
         21   -1    0    0  501  502  0.00000000000E+00  0.00000000000E+00  0.11891426366E+03  0.11891426366E+03  0.00000000000E+00 0.  1.
         21   -1    0    0  502  503 -0.00000000000E+00 -0.00000000000E+00 -0.83189379019E+03  0.83189379019E+03  0.00000000000E+00 0.  1.
         -6    2    1    2    0  503 -0.28465128810E+02 -0.13508049101E+03 -0.18147333312E+02  0.21893455526E+03  0.16895564854E+03 0.  0.
        -24    2    3    3    0    0  0.10731948222E+02 -0.14672131632E+03 -0.40863672675E+02  0.17192347428E+03  0.79028614360E+02 0.  0.
          6    2    1    2  501    0  0.28465128810E+02  0.13508049101E+03 -0.69483219322E+03  0.73187349859E+03  0.18382066965E+03 0.  0.
         24    2    5    5    0    0  0.53276939121E+02  0.16095881603E+03 -0.61924485512E+03  0.64808299007E+03  0.88324394857E+02 0.  0.
          5    1    5    5  501    0 -0.24811810311E+02 -0.25878325016E+02 -0.75587338096E+02  0.83790508514E+02  0.47000000000E+01 0. -1.
        -11    1    6    6    0    0  0.48843793074E+02  0.28160975392E+02 -0.14498485140E+03  0.15556144700E+03  0.00000000000E+00 0.  1.
         12    1    6    6    0    0  0.44331460469E+01  0.13279784063E+03 -0.47426000372E+03  0.49252154307E+03  0.00000000000E+00 0. -1.
         -5    1    3    3    0  503 -0.39197077032E+02  0.11640825309E+02  0.22716339363E+02  0.47011080989E+02  0.47000000000E+01 0.  1.
         13    1    4    4    0    0 -0.11608667085E+02 -0.14353942513E+03 -0.39446538792E+02  0.14931295035E+03  0.00000000000E+00 0. -1.
        -14    1    4    4    0    0  0.22340615307E+02 -0.31818911842E+01 -0.14171338831E+01  0.22610523926E+02  0.00000000000E+00 0.  1.
</event>
<event>
12    1  0.1066489E+000  0.2526011E+03  0.7818608E-02  0.1112690E+00
         21   -1    0    0  501  502  0.00000000000E+00  0.00000000000E+00  0.35803469249E+03  0.35803469249E+03  0.00000000000E+00 0.  1.
         21   -1    0    0  502  503 -0.00000000000E+00 -0.00000000000E+00 -0.17383020874E+03  0.17383020874E+03  0.00000000000E+00 0.  1.
         -6    2    1    2    0  503  0.10358763523E+03  0.14336931137E+03  0.86010385765E+02  0.26684282850E+03  0.18033898925E+03 0.  0.
        -24    2    3    3    0    0  0.11316842712E+03  0.81395348971E+02  0.11625929934E+03  0.19705994835E+03  0.76707905913E+02 0.  0.
          6    2    1    2  501    0 -0.10358763523E+03 -0.14336931137E+03  0.98194097981E+02  0.26502207273E+03  0.17120005999E+03 0.  0.
         24    2    5    5    0    0 -0.10936318693E+02 -0.12902803627E+03  0.59402974110E+02  0.16345052199E+03  0.80121923330E+02 0.  0.
          5    1    5    5  501    0 -0.92651316540E+02 -0.14341275109E+02  0.38791123871E+02  0.10157155074E+03  0.47000000000E+01 0. -1.
        -11    1    6    6    0    0  0.21402012475E+01 -0.88909496228E+02 -0.19869751199E+01  0.88957445169E+02  0.00000000000E+00 0.  1.
         12    1    6    6    0    0 -0.13076519941E+02 -0.40118540038E+02  0.61389949229E+02  0.74493076825E+02  0.00000000000E+00 0. -1.
         -5    1    3    3    0  503 -0.95807918898E+01  0.61973962404E+02 -0.30248913575E+02  0.69782880148E+02  0.47000000000E+01 0.  1.
         13    1    4    4    0    0  0.80333767041E+02  0.82188828901E+02  0.54688521761E+02  0.12727667554E+03  0.00000000000E+00 0. -1.
        -14    1    4    4    0    0  0.32834660082E+02 -0.79347993048E+00  0.61570777578E+02  0.69783272814E+02  0.00000000000E+00 0.  1.
</event>
<event>
12    1  0.1066489E+000  0.2343117E+03  0.7818608E-02  0.1123701E+00
         21   -1    0    0  503  502  0.00000000000E+00  0.00000000000E+00  0.54289242525E+03  0.54289242525E+03  0.00000000000E+00 0. -1.
         21   -1    0    0  501  503 -0.00000000000E+00 -0.00000000000E+00 -0.12931220304E+03  0.12931220304E+03  0.00000000000E+00 0. -1.
          6    2    1    2  501    0 -0.28399545897E+02  0.15555319479E+03  0.49585478249E+02  0.23950089298E+03  0.17291219583E+03 0.  0.
         24    2    3    3    0    0 -0.22003133335E+01  0.14274227962E+03  0.91903524926E+02  0.18789249822E+03  0.80480638820E+02 0.  0.
         -6    2    1    2    0  502  0.28399545897E+02 -0.15555319479E+03  0.36399474395E+03  0.43270373531E+03  0.17244424696E+03 0.  0.
        -24    2    5    5    0    0 -0.41433196304E+02 -0.12918965704E+03  0.27114456874E+03  0.31347750899E+03  0.79637266675E+02 0.  0.
          5    1    3    3  501    0 -0.26199232563E+02  0.12810915173E+02 -0.42318046677E+02  0.51608394754E+02  0.47000000000E+01 0. -1.
        -13    1    4    4    0    0 -0.28592901730E+02  0.63653893090E+02  0.90766201800E+01  0.70368722943E+02  0.00000000000E+00 0.  1.
         14    1    4    4    0    0  0.26392588396E+02  0.79088386531E+02  0.82826904746E+02  0.11752377528E+03  0.00000000000E+00 0. -1.
         -5    1    5    5    0  502  0.69832742200E+02 -0.26363537753E+02  0.92850175211E+02  0.11922622632E+03  0.47000000000E+01 0.  1.
         11    1    6    6    0    0 -0.24355948027E+02 -0.27375687784E+02  0.14952852346E+03  0.15395265446E+03  0.00000000000E+00 0. -1.
        -12    1    6    6    0    0 -0.17077248277E+02 -0.10181396926E+03  0.12161604528E+03  0.15952485453E+03  0.00000000000E+00 0.  1.
</event>
<event>
12    1  0.1066489E+000  0.3130711E+03  0.7818608E-02  0.1078888E+00
         21   -1    0    0  501  502  0.00000000000E+00  0.00000000000E+00  0.10790051985E+03  0.10790051985E+03  0.00000000000E+00 0. -1.
         21   -1    0    0  502  503 -0.00000000000E+00 -0.00000000000E+00 -0.92091500309E+03  0.92091500309E+03  0.00000000000E+00 0. -1.
         -6    2    1    2    0  503 -0.16527172160E+03 -0.20303034785E+03 -0.34612541767E+03  0.46667769086E+03  0.17160768714E+03 0.  0.
        -24    2    3    3    0    0 -0.45524710759E+02 -0.16106696586E+03 -0.20380306102E+03  0.27594747502E+03  0.81217328870E+02 0.  0.
          6    2    1    2  501    0  0.16527172160E+03  0.20303034785E+03 -0.46688906558E+03  0.56213783208E+03  0.17169006549E+03 0.  0.
         24    2    5    5    0    0  0.13075966099E+03  0.58231365146E+02 -0.24401469569E+03  0.29408391498E+03  0.80331790139E+02 0.  0.
          5    1    5    5  501    0  0.34512060606E+02  0.14479898270E+03 -0.22287436989E+03  0.26805391710E+03  0.47000000000E+01 0. -1.
        -11    1    6    6    0    0  0.10291777649E+03  0.78601432605E+02 -0.18756227605E+03  0.22792512218E+03  0.00000000000E+00 0.  1.
         12    1    6    6    0    0  0.27841884498E+02 -0.20370067459E+02 -0.56452419637E+02  0.66158792791E+02  0.00000000000E+00 0. -1.
         -5    1    3    3    0  503 -0.11974701084E+03 -0.41963381987E+02 -0.14232235665E+03  0.19073021584E+03  0.47000000000E+01 0.  1.
         13    1    4    4    0    0 -0.30928086846E+02 -0.13426829895E+03 -0.10701077063E+03  0.17445867043E+03  0.00000000000E+00 0. -1.
        -14    1    4    4    0    0 -0.14596623913E+02 -0.26798666913E+02 -0.96792290392E+02  0.10148880459E+03  0.00000000000E+00 0.  1.
</event>
<event>
12    1  0.1066489E+000  0.2904749E+03  0.7818608E-02  0.1090123E+00
         21   -1    0    0  503  502  0.00000000000E+00  0.00000000000E+00  0.76916200285E+02  0.76916200285E+02  0.00000000000E+00 0. -1.
         21   -1    0    0  501  503 -0.00000000000E+00 -0.00000000000E+00 -0.11051759570E+04  0.11051759570E+04  0.00000000000E+00 0. -1.
          6    2    1    2  501    0  0.10552017629E+02  0.23386057464E+03 -0.56708001493E+03  0.63714628206E+03  0.17196955533E+03 0.  0.
         24    2    3    3    0    0  0.23510276556E+02  0.49231309908E+02 -0.27311308214E+03  0.28973509997E+03  0.79870003986E+02 0.  0.
         -6    2    1    2    0  502 -0.10552017629E+02 -0.23386057464E+03 -0.46117974179E+03  0.54494587523E+03  0.17168907725E+03 0.  0.
        -24    2    5    5    0    0  0.94217687887E+01 -0.13228005892E+03 -0.39015147959E+03  0.41930886894E+03  0.77556217230E+02 0.  0.
          5    1    3    3  501    0 -0.12958258927E+02  0.18462926473E+03 -0.29396693279E+03  0.34741118209E+03  0.47000000000E+01 0. -1.
        -13    1    4    4    0    0  0.23742690652E+02  0.21843225934E+02 -0.26905872829E+02  0.42009140331E+02  0.00000000000E+00 0.  1.
         14    1    4    4    0    0 -0.23241409626E+00  0.27388083974E+02 -0.24620720931E+03  0.24772595964E+03  0.00000000000E+00 0. -1.
         -5    1    5    5    0  502 -0.19973786418E+02 -0.10158051572E+03 -0.71028262196E+02  0.12563700629E+03  0.47000000000E+01 0.  1.
         11    1    6    6    0    0  0.13665100168E+02 -0.36449010109E+02 -0.22481694006E+03  0.22816205171E+03  0.00000000000E+00 0. -1.
        -12    1    6    6    0    0 -0.42433313790E+01 -0.95831048811E+02 -0.16533453953E+03  0.19114681723E+03  0.00000000000E+00 0.  1.
</event>
<event>
12    1  0.1066489E+000  0.2082667E+03  0.7818608E-02  0.1143045E+00
         21   -1    0    0  503  502  0.00000000000E+00  0.00000000000E+00  0.65152844616E+02  0.65152844616E+02  0.00000000000E+00 0.  1.
         21   -1    0    0  501  503 -0.00000000000E+00 -0.00000000000E+00 -0.69390044291E+03  0.69390044291E+03  0.00000000000E+00 0.  1.
          6    2    1    2  501    0  0.23832386675E+02  0.11439767292E+03 -0.39329675126E+03  0.44503635272E+03  0.17239550594E+03 0.  0.
         24    2    3    3    0    0 -0.28585110072E+02  0.55186570501E+01 -0.20103535197E+03  0.21790473951E+03  0.78865066205E+02 0.  0.
         -6    2    1    2    0  502 -0.23832386675E+02 -0.11439767292E+03 -0.23545084704E+03  0.31401693481E+03  0.17179849752E+03 0.  0.
        -24    2    5    5    0    0  0.21493499022E+02 -0.68016112675E+02 -0.22290162377E+03  0.24779565386E+03  0.81421066766E+02 0.  0.
          5    1    3    3  501    0  0.52417496747E+02  0.10887901587E+03 -0.19226139929E+03  0.22713161321E+03  0.47000000000E+01 0. -1.
        -11    1    4    4    0    0  0.55936428233E+01 -0.28188588629E+02 -0.36192533465E+02  0.46214552336E+02  0.00000000000E+00 0.  1.
         12    1    4    4    0    0 -0.34178752895E+02  0.33707245679E+02 -0.16484281851E+03  0.17169018718E+03  0.00000000000E+00 0. -1.
         -5    1    5    5    0  502 -0.45325885697E+02 -0.46381560243E+02 -0.12549223271E+02  0.66221280941E+02  0.47000000000E+01 0.  1.
         13    1    6    6    0    0  0.87974988496E-01 -0.64451117766E+02 -0.77564614211E+02  0.10084752698E+03  0.00000000000E+00 0. -1.
        -14    1    6    6    0    0  0.21405524034E+02 -0.35649949095E+01 -0.14533700955E+03  0.14694812688E+03  0.00000000000E+00 0.  1.
</event>
<event>
12    1  0.1066489E+000  0.1861907E+03  0.7818608E-02  0.1162487E+00
         21   -1    0    0  501  502  0.00000000000E+00  0.00000000000E+00  0.15384111763E+03  0.15384111763E+03  0.00000000000E+00 0.  1.
         21   -1    0    0  502  503 -0.00000000000E+00 -0.00000000000E+00 -0.23569868792E+03  0.23569868792E+03  0.00000000000E+00 0.  1.
         -6    2    1    2    0  503 -0.68835637077E+02 -0.21494255702E+02  0.48747217464E+01  0.18625448262E+03  0.17165844407E+03 0.  0.
        -24    2    3    3    0    0 -0.58382143999E+02 -0.42899153464E+02  0.57041473747E+02  0.12871401703E+03  0.89803988476E+02 0.  0.
          6    2    1    2  501    0  0.68835637077E+02  0.21494255702E+02 -0.86732292035E+02  0.20328532293E+03  0.16912150684E+03 0.  0.
         24    2    5    5    0    0  0.90568083363E+02 -0.28630881189E+02 -0.78046314263E+02  0.14776627413E+03  0.81983775943E+02 0.  0.
          5    1    5    5  501    0 -0.21732446286E+02  0.50125136891E+02 -0.86859777720E+01  0.55519048801E+02  0.47000000000E+01 0. -1.
        -13    1    6    6    0    0  0.66132621250E+02 -0.19144195191E+02 -0.94423651252E+02  0.11685824626E+03  0.00000000000E+00 0.  1.
         14    1    6    6    0    0  0.24435462113E+02 -0.94866859982E+01  0.16377336989E+02  0.30908027869E+02  0.00000000000E+00 0. -1.
         -5    1    3    3    0  503 -0.10453493078E+02  0.21404897762E+02 -0.52166752001E+02  0.57540465588E+02  0.47000000000E+01 0.  1.
         13    1    4    4    0    0 -0.14937413485E+02 -0.64174385049E+02  0.41650390479E+02  0.77950195927E+02  0.00000000000E+00 0. -1.
        -14    1    4    4    0    0 -0.43444730515E+02  0.21275231585E+02  0.15391083268E+02  0.50763821100E+02  0.00000000000E+00 0.  1.
</event>
<event>
12    1  0.1066489E+000  0.2183215E+03  0.7818608E-02  0.1135814E+00
         21   -1    0    0  501  502  0.00000000000E+00  0.00000000000E+00  0.77290014221E+02  0.77290014221E+02  0.00000000000E+00 0.  1.
         21   -1    0    0  502  503 -0.00000000000E+00 -0.00000000000E+00 -0.63981936860E+03  0.63981936860E+03  0.00000000000E+00 0.  1.
         -6    2    1    2    0  503 -0.32777212412E+02  0.12497555315E+03 -0.36063361996E+03  0.41974402277E+03  0.17156690317E+03 0.  0.
        -24    2    3    3    0    0  0.20859443016E+02  0.12995569656E+03 -0.21351827362E+03  0.26300631906E+03  0.79111764388E+02 0.  0.
          6    2    1    2  501    0  0.32777212412E+02 -0.12497555315E+03 -0.20189573441E+03  0.29736536005E+03  0.17598589502E+03 0.  0.
         24    2    5    5    0    0 -0.34226467734E+02 -0.10778330296E+03 -0.91706391321E+02  0.16717761888E+03  0.82155964820E+02 0.  0.
          5    1    5    5  501    0  0.67003680146E+02 -0.17192250184E+02 -0.11018934309E+03  0.13018774117E+03  0.47000000000E+01 0. -1.
        -13    1    6    6    0    0  0.18660810074E+02  0.83877553777E+00 -0.16070882376E+02  0.24641482045E+02  0.00000000000E+00 0.  1.
         14    1    6    6    0    0 -0.52887277808E+02 -0.10862207850E+03 -0.75635508944E+02  0.14253613684E+03  0.00000000000E+00 0. -1.
         -5    1    3    3    0  503 -0.53636655428E+02 -0.49801434130E+01 -0.14711534634E+03  0.15673770371E+03  0.47000000000E+01 0.  1.
         11    1    4    4    0    0  0.29986605269E+02  0.95846544524E+01 -0.31024091705E+02  0.44199053866E+02  0.00000000000E+00 0. -1.
        -12    1    4    4    0    0 -0.91271622537E+01  0.12037104211E+03 -0.18249418192E+03  0.21880726519E+03  0.00000000000E+00 0.  1.
</event>
<event>
12    1  0.1066489E+000  0.2456499E+03  0.7818608E-02  0.1116098E+00
         21   -1    0    0  501  502  0.00000000000E+00  0.00000000000E+00  0.16480605258E+03  0.16480605258E+03  0.00000000000E+00 0. -1.
         21   -1    0    0  502  503 -0.00000000000E+00 -0.00000000000E+00 -0.37298590053E+03  0.37298590053E+03  0.00000000000E+00 0. -1.
         -6    2    1    2    0  503 -0.14483637773E+03 -0.98843419582E+02 -0.14081489590E+03  0.28314787935E+03  0.17203571945E+03 0.  0.
        -24    2    3    3    0    0 -0.97661227980E+02 -0.10725263676E+02 -0.11587165201E+03  0.18002387841E+03  0.96589908006E+02 0.  0.
          6    2    1    2  501    0  0.14483637773E+03  0.98843419582E+02 -0.67364952052E+02  0.25464407376E+03  0.17192431366E+03 0.  0.
         24    2    5    5    0    0  0.55785694604E+02 -0.14557875014E+02 -0.49068085954E+02  0.10922487596E+03  0.78730051577E+02 0.  0.
          5    1    5    5  501    0  0.89050683121E+02  0.11340129460E+03 -0.18296866098E+02  0.14541919780E+03  0.47000000000E+01 0. -1.
        -13    1    6    6    0    0  0.54051965659E+02 -0.96214570665E+01  0.47928452647E+01  0.55110423637E+02  0.00000000000E+00 0.  1.
         14    1    6    6    0    0  0.17337289453E+01 -0.49364179471E+01 -0.53860931219E+02  0.54114452321E+02  0.00000000000E+00 0. -1.
         -5    1    3    3    0  503 -0.47175149745E+02 -0.88118155906E+02 -0.24943243899E+02  0.10312400094E+03  0.47000000000E+01 0.  1.
         13    1    4    4    0    0 -0.26098195712E+02 -0.20425158155E+02 -0.10099055021E+03  0.10628920047E+03  0.00000000000E+00 0. -1.
        -14    1    4    4    0    0 -0.71563032268E+02  0.96998944783E+01 -0.14881101794E+02  0.73734677939E+02  0.00000000000E+00 0.  1.
</event>
<event>
12    1  0.1066489E+000  0.1807085E+03  0.7818608E-02  0.1167251E+00
         21   -1    0    0  501  502  0.00000000000E+00  0.00000000000E+00  0.12303822706E+03  0.12303822706E+03  0.00000000000E+00 0. -1.
         21   -1    0    0  502  503 -0.00000000000E+00 -0.00000000000E+00 -0.41865476978E+03  0.41865476978E+03  0.00000000000E+00 0. -1.
         -6    2    1    2    0  503  0.34746548793E+02 -0.42314672007E+02  0.16344989060E+02  0.18144620492E+03  0.17221414719E+03 0.  0.
        -24    2    3    3    0    0  0.19038802461E+02 -0.85202635938E+02  0.44386126400E+02  0.12764559035E+03  0.81861488807E+02 0.  0.
          6    2    1    2  501    0 -0.34746548793E+02  0.42314672007E+02 -0.31196153178E+03  0.36024679192E+03  0.17163886407E+03 0.  0.
         24    2    5    5    0    0  0.45146613115E+02  0.24587792680E+02 -0.13583681558E+03  0.16598108412E+03  0.80344903975E+02 0.  0.
          5    1    5    5  501    0 -0.79893161908E+02  0.17726879328E+02 -0.17612471619E+03  0.19426570779E+03  0.47000000000E+01 0. -1.
        -11    1    6    6    0    0  0.11404533773E+02 -0.27332118199E+02 -0.67795617883E+02  0.73982118650E+02  0.00000000000E+00 0.  1.
         12    1    6    6    0    0  0.33742079342E+02  0.51919910878E+02 -0.68041197700E+02  0.91998965474E+02  0.00000000000E+00 0. -1.
         -5    1    3    3    0  503  0.15707746332E+02  0.42887963931E+02 -0.28041137340E+02  0.53800614571E+02  0.47000000000E+01 0.  1.
         13    1    4    4    0    0 -0.31920120316E+02 -0.34258712298E+02  0.24742301175E+02  0.52959748081E+02  0.00000000000E+00 0. -1.
        -14    1    4    4    0    0  0.50958922777E+02 -0.50943923639E+02  0.19643825225E+02  0.74685842272E+02  0.00000000000E+00 0.  1.
</event>
<event>
12    1  0.1066489E+000  0.2684989E+03  0.7818608E-02  0.1102403E+00
         21   -1    0    0  503  502  0.00000000000E+00  0.00000000000E+00  0.47137479956E+03  0.47137479956E+03  0.00000000000E+00 0.  1.
         21   -1    0    0  501  503 -0.00000000000E+00 -0.00000000000E+00 -0.29338805001E+03  0.29338805001E+03  0.00000000000E+00 0. -1.
          6    2    1    2  501    0 -0.19289488602E+03  0.73344070088E+02 -0.17669534942E+03  0.31991337235E+03  0.16892462708E+03 0.  0.
         24    2    3    3    0    0 -0.21010401324E+03  0.77571103286E+02 -0.18295472227E+03  0.30054092755E+03  0.81801260919E+02 0.  0.
         -6    2    1    2    0  502  0.19289488602E+03 -0.73344070088E+02  0.35468209898E+03  0.44484947721E+03  0.17176692455E+03 0.  0.
        -24    2    5    5    0    0  0.10961754387E+03 -0.67525915305E+02  0.32154057419E+03  0.35490828917E+03  0.77432536522E+02 0.  0.
          5    1    3    3  501    0  0.17209127218E+02 -0.42270331979E+01  0.62593728476E+01  0.19372444805E+02  0.47000000000E+01 0. -1.
        -13    1    4    4    0    0 -0.11361487714E+03  0.78907593191E+02 -0.13293070403E+03  0.19184712832E+03  0.00000000000E+00 0.  1.
         14    1    4    4    0    0 -0.96489136097E+02 -0.13364899050E+01 -0.50024018240E+02  0.10869379923E+03  0.00000000000E+00 0. -1.
         -5    1    5    5    0  502  0.83277342146E+02 -0.58181547824E+01  0.33141524789E+02  0.89941188036E+02  0.47000000000E+01 0.  1.
         11    1    6    6    0    0  0.26257060188E+02 -0.36157160030E+02  0.41276570114E+02  0.60831970800E+02  0.00000000000E+00 0. -1.
        -12    1    6    6    0    0  0.83360483684E+02 -0.31368755275E+02  0.28026400408E+03  0.29407631837E+03  0.00000000000E+00 0.  1.
</event>
<event>
12    1  0.1066489E+000  0.2280631E+03  0.7818608E-02  0.1128652E+00
         21   -1    0    0  503  502  0.00000000000E+00  0.00000000000E+00  0.27228647822E+03  0.27228647822E+03  0.00000000000E+00 0. -1.
         21   -1    0    0  501  503 -0.00000000000E+00 -0.00000000000E+00 -0.42564750141E+03  0.42564750141E+03  0.00000000000E+00 0. -1.
          6    2    1    2  501    0 -0.13122239775E+03 -0.72758909240E+02  0.18377674449E+03  0.29289364514E+03  0.17175453123E+03 0.  0.
         24    2    3    3    0    0 -0.98621454282E+02 -0.89369154561E+02  0.64751023226E+02  0.16828251366E+03  0.80082909306E+02 0.  0.
         -6    2    1    2    0  502  0.13122239775E+03  0.72758909240E+02 -0.33713776769E+03  0.40504033450E+03  0.16698090197E+03 0.  0.
        -24    2    5    5    0    0  0.10354298272E+03  0.95560711942E+02 -0.17547563385E+03  0.23938162588E+03  0.81601873733E+02 0.  0.
          5    1    3    3  501    0 -0.32600943465E+02  0.16610245320E+02  0.11902572127E+03  0.12461113148E+03  0.47000000000E+01 0. -1.
        -11    1    4    4    0    0 -0.94555988073E+01 -0.58520573474E+02  0.37223254982E+02  0.69997404094E+02  0.00000000000E+00 0.  1.
         12    1    4    4    0    0 -0.89165855474E+02 -0.30848581087E+02  0.27527768245E+02  0.98285109564E+02  0.00000000000E+00 0. -1.
         -5    1    5    5    0  502  0.27679415032E+02 -0.22801802701E+02 -0.16166213384E+03  0.16565870862E+03  0.47000000000E+01 0.  1.
         13    1    6    6    0    0  0.20458104883E+02  0.17129324935E+02  0.36374025376E+01  0.26929138965E+02  0.00000000000E+00 0. -1.
        -14    1    6    6    0    0  0.83084877832E+02  0.78431387006E+02 -0.17911303638E+03  0.21245248691E+03  0.00000000000E+00 0.  1.
</event>
<event>
12    1  0.1066489E+000  0.2110378E+03  0.7818608E-02  0.1140830E+00
         21   -1    0    0  503  502  0.00000000000E+00  0.00000000000E+00  0.28577137258E+03  0.28577137258E+03  0.00000000000E+00 0. -1.
         21   -1    0    0  501  503 -0.00000000000E+00 -0.00000000000E+00 -0.17262267029E+03  0.17262267029E+03  0.00000000000E+00 0. -1.
          6    2    1    2  501    0  0.91238149082E+02 -0.80539377319E+02  0.12873076568E+03  0.24720150007E+03  0.17241223987E+03 0.  0.
         24    2    3    3    0    0 -0.34930924895E+01 -0.32099106275E+02  0.76757430213E+01  0.85966030958E+02  0.79301242922E+02 0.  0.
         -6    2    1    2    0  502 -0.91238149082E+02  0.80539377319E+02 -0.15582063399E+02  0.21119254280E+03  0.17189676636E+03 0.  0.
        -24    2    5    5    0    0 -0.30746173842E+02  0.75913181308E+02  0.47128782722E+02  0.12381164684E+03  0.80000396429E+02 0.  0.
          5    1    3    3  501    0  0.94731241572E+02 -0.48440271044E+02  0.12105502266E+03  0.16123546911E+03  0.47000000000E+01 0. -1.
        -13    1    4    4    0    0  0.47931876463E+01  0.60963692186E+01 -0.30416590840E+02  0.31389637841E+02  0.00000000000E+00 0.  1.
         14    1    4    4    0    0 -0.82862801358E+01 -0.38195475493E+02  0.38092333862E+02  0.54576393117E+02  0.00000000000E+00 0. -1.
         -5    1    5    5    0  502 -0.60491975240E+02  0.46261960104E+01 -0.62710846121E+02  0.87380895963E+02  0.47000000000E+01 0.  1.
         11    1    6    6    0    0  0.20629391115E+02 -0.50187386154E+00  0.60135748128E+00  0.20644255520E+02  0.00000000000E+00 0. -1.
        -12    1    6    6    0    0 -0.51375564957E+02  0.76415055170E+02  0.46527425241E+02  0.10316739132E+03  0.00000000000E+00 0.  1.
</event>
<event>
12    1  0.1066489E+000  0.2544327E+03  0.7818608E-02  0.1111472E+00
         21   -1    0    0  501  502  0.00000000000E+00  0.00000000000E+00  0.35820381344E+03  0.35820381344E+03  0.00000000000E+00 0.  1.
         21   -1    0    0  502  503 -0.00000000000E+00 -0.00000000000E+00 -0.17715563594E+03  0.17715563594E+03  0.00000000000E+00 0.  1.
         -6    2    1    2    0  503  0.53877643845E+02  0.17999581825E+03  0.73111354085E+02  0.25897863602E+03  0.16255266447E+03 0.  0.
        -24    2    3    3    0    0  0.44681824871E+01  0.17440147575E+03  0.80996146958E+02  0.20841331690E+03  0.80248959121E+02 0.  0.
          6    2    1    2  501    0 -0.53877643845E+02 -0.17999581825E+03  0.10793682341E+03  0.27638081336E+03  0.17156544247E+03 0.  0.
         24    2    5    5    0    0 -0.24071988804E+02 -0.19781843769E+03  0.77970297256E+02  0.23027110152E+03  0.85051854804E+02 0.  0.
          5    1    5    5  501    0 -0.29805655041E+02  0.17822619438E+02  0.29966526156E+02  0.46109711840E+02  0.47000000000E+01 0. -1.
        -11    1    6    6    0    0  0.15795312348E+02 -0.24476251891E+02  0.38150848969E+02  0.48000688285E+02  0.00000000000E+00 0.  1.
         12    1    6    6    0    0 -0.39867301152E+02 -0.17334218580E+03  0.39819448287E+02  0.18227041323E+03  0.00000000000E+00 0. -1.
         -5    1    3    3    0  503  0.49409461358E+02  0.55943425008E+01 -0.78847928732E+01  0.50565319126E+02  0.47000000000E+01 0.  1.
         13    1    4    4    0    0  0.14378610009E+02  0.13724679802E+03  0.24628476166E+02  0.14017842142E+03  0.00000000000E+00 0. -1.
        -14    1    4    4    0    0 -0.99104275215E+01  0.37154677728E+02  0.56367670792E+02  0.68234895481E+02  0.00000000000E+00 0.  1.
</event>
<event>
12    1  0.1066489E+000  0.2790909E+03  0.7818608E-02  0.1096310E+00
         21   -1    0    0  501  502  0.00000000000E+00  0.00000000000E+00  0.20721858338E+03  0.20721858338E+03  0.00000000000E+00 0. -1.
         21   -1    0    0  502  503 -0.00000000000E+00 -0.00000000000E+00 -0.44323071554E+03  0.44323071554E+03  0.00000000000E+00 0. -1.
         -6    2    1    2    0  503 -0.20724794483E+03 -0.74380600816E+02 -0.24574188010E+03  0.37118883793E+03  0.17002322593E+03 0.  0.
        -24    2    3    3    0    0 -0.52257079673E+02 -0.51064327647E+02 -0.45174417461E+02  0.11660051544E+03  0.78845318664E+02 0.  0.
          6    2    1    2  501    0  0.20724794483E+03  0.74380600816E+02  0.97297479373E+01  0.27926046099E+03  0.17148630460E+03 0.  0.
         24    2    5    5    0    0  0.12237755074E+03  0.47854116445E+02 -0.60223741752E+02  0.16602522405E+03  0.81677380982E+02 0.  0.
          5    1    5    5  501    0  0.84870394090E+02  0.26526484372E+02  0.69953489689E+02  0.11323523694E+03  0.47000000000E+01 0. -1.
        -13    1    6    6    0    0  0.82073444105E+02  0.34334544637E+02  0.39439915182E+01  0.89053165310E+02  0.00000000000E+00 0.  1.
         14    1    6    6    0    0  0.40304106636E+02  0.13519571808E+02 -0.64167733270E+02  0.76972058740E+02  0.00000000000E+00 0. -1.
         -5    1    3    3    0  503 -0.15499086516E+03 -0.23316273170E+02 -0.20056746264E+03  0.25458832248E+03  0.47000000000E+01 0.  1.
         11    1    4    4    0    0 -0.38786216175E+02 -0.70809364713E+02 -0.22882587246E+02  0.83916324367E+02  0.00000000000E+00 0. -1.
        -12    1    4    4    0    0 -0.13470863498E+02  0.19745037066E+02 -0.22291830214E+02  0.32684191078E+02  0.00000000000E+00 0.  1.
</event>
<event>
12    1  0.1066489E+000  0.3480615E+03  0.7818608E-02  0.1063482E+00
         21   -1    0    0  503  502  0.00000000000E+00  0.00000000000E+00  0.28362599211E+03  0.28362599211E+03  0.00000000000E+00 0.  1.
         21   -1    0    0  501  503 -0.00000000000E+00 -0.00000000000E+00 -0.56324208749E+03  0.56324208749E+03  0.00000000000E+00 0. -1.
          6    2    1    2  501    0 -0.26957236359E+02 -0.30052075830E+03  0.69068051843E+02  0.35419428954E+03  0.17217369194E+03 0.  0.
         24    2    3    3    0    0 -0.74447970655E+02 -0.26717605159E+03  0.68018850925E+02  0.29596688936E+03  0.77745048940E+02 0.  0.
         -6    2    1    2    0  502  0.26957236359E+02  0.30052075830E+03 -0.34868414722E+03  0.49267379006E+03  0.17351487005E+03 0.  0.
        -24    2    5    5    0    0 -0.47140255107E+02  0.18325988432E+03 -0.17177671407E+03  0.26782076982E+03  0.80089552358E+02 0.  0.
          5    1    3    3  501    0  0.47490734297E+02 -0.33344706703E+02  0.10492009180E+01  0.58227400180E+02  0.47000000000E+01 0. -1.
        -13    1    4    4    0    0  0.13709997841E+01 -0.11011250555E+03  0.48987329934E+02  0.12052552432E+03  0.00000000000E+00 0.  1.
         14    1    4    4    0    0 -0.75818970439E+02 -0.15706354605E+03  0.19031520991E+02  0.17544136504E+03  0.00000000000E+00 0. -1.
         -5    1    5    5    0  502  0.74097491466E+02  0.11726087397E+03 -0.17690743315E+03  0.22485302024E+03  0.47000000000E+01 0.  1.
         13    1    6    6    0    0  0.11011817630E+02  0.18832861085E+02  0.16316847526E+01  0.21876909729E+02  0.00000000000E+00 0. -1.
        -14    1    6    6    0    0 -0.58152072737E+02  0.16442702324E+03 -0.17340839882E+03  0.24594386009E+03  0.00000000000E+00 0.  1.
</event>
<event>
12    1  0.1066489E+000  0.1816678E+03  0.7818608E-02  0.1166324E+00
         21   -1    0    0  501  502  0.00000000000E+00  0.00000000000E+00  0.15969672069E+03  0.15969672069E+03  0.00000000000E+00 0. -1.
         21   -1    0    0  502  503 -0.00000000000E+00 -0.00000000000E+00 -0.22538358011E+03  0.22538358011E+03  0.00000000000E+00 0. -1.
         -6    2    1    2    0  503  0.47002765026E+02  0.36638515743E+02  0.23570181502E+02  0.18266983117E+03  0.17105868294E+03 0.  0.
        -24    2    3    3    0    0  0.69537134576E+02  0.11505701060E+02 -0.35570199652E+02  0.11441200475E+03  0.82807448250E+02 0.  0.
          6    2    1    2  501    0 -0.47002765026E+02 -0.36638515743E+02 -0.89257040918E+02  0.20241046963E+03  0.17161450436E+03 0.  0.
         24    2    5    5    0    0 -0.54729172124E+02 -0.87414543910E+02 -0.62595803744E+02  0.14435175822E+03  0.79262921264E+02 0.  0.
          5    1    5    5  501    0  0.77264070975E+01  0.50776028167E+02 -0.26661237174E+02  0.58058711411E+02  0.47000000000E+01 0. -1.
        -11    1    6    6    0    0 -0.22067349358E+02 -0.84768259791E+02 -0.68320042174E+02  0.11108669560E+03  0.00000000000E+00 0.  1.
         12    1    6    6    0    0 -0.32661822766E+02 -0.26462841193E+01  0.57242384292E+01  0.33265062628E+02  0.00000000000E+00 0. -1.
         -5    1    3    3    0  503 -0.22534369550E+02  0.25132814683E+02  0.59140381154E+02  0.68257826422E+02  0.47000000000E+01 0.  1.
         13    1    4    4    0    0  0.22034737058E+02  0.44972319067E+02 -0.22231783339E+02  0.54793168460E+02  0.00000000000E+00 0. -1.
        -14    1    4    4    0    0  0.47502397518E+02 -0.33466618007E+02 -0.13338416313E+02  0.59618836290E+02  0.00000000000E+00 0.  1.
</event>
<event>
12    1  0.1066489E+000  0.1761759E+03  0.7818608E-02  0.1171572E+00
         21   -1    0    0  501  502  0.00000000000E+00  0.00000000000E+00  0.98855661268E+03  0.98855661268E+03  0.00000000000E+00 0. -1.
         21   -1    0    0  502  503 -0.00000000000E+00 -0.00000000000E+00 -0.32952654430E+02  0.32952654430E+02  0.00000000000E+00 0. -1.
         -6    2    1    2    0  503  0.25123974742E+02 -0.29541480824E+02  0.36635970350E+03  0.40649160626E+03  0.17179080422E+03 0.  0.
        -24    2    3    3    0    0 -0.48965388375E+02 -0.29482154559E+02  0.25755607912E+03  0.27477389323E+03  0.76803332048E+02 0.  0.
          6    2    1    2  501    0 -0.25123974742E+02  0.29541480824E+02  0.58924425475E+03  0.61501766085E+03  0.17185464267E+03 0.  0.
         24    2    5    5    0    0 -0.81802705471E+02  0.18886578547E+02  0.34746972961E+03  0.36641553603E+03  0.80478236664E+02 0.  0.
          5    1    5    5  501    0  0.56678730730E+02  0.10654902277E+02  0.24177452514E+03  0.24860212482E+03  0.47000000000E+01 0. -1.
        -11    1    6    6    0    0 -0.22546964501E+02  0.31363429408E+02  0.51844181516E+02  0.64651755348E+02  0.00000000000E+00 0.  1.
         12    1    6    6    0    0 -0.59255740970E+02 -0.12476850861E+02  0.29562554810E+03  0.30176378068E+03  0.00000000000E+00 0. -1.
         -5    1    3    3    0  503  0.74089363117E+02 -0.59326265246E-01  0.10880362437E+03  0.13171771302E+03  0.47000000000E+01 0.  1.
         11    1    4    4    0    0  0.27052725401E+01 -0.78248494011E+01 -0.25808172775E+01  0.86722191789E+01  0.00000000000E+00 0. -1.
        -12    1    4    4    0    0 -0.51670660915E+02 -0.21657305158E+02  0.26013689640E+03  0.26610167406E+03  0.00000000000E+00 0.  1.
</event>
<event>
12    1  0.1066489E+000  0.4641917E+03  0.7818608E-02  0.1023580E+00
         21   -1    0    0  501  502  0.00000000000E+00  0.00000000000E+00  0.12631270704E+04  0.12631270704E+04  0.00000000000E+00 0. -1.
         21   -1    0    0  502  503 -0.00000000000E+00 -0.00000000000E+00 -0.21741890859E+03  0.21741890859E+03  0.00000000000E+00 0. -1.
         -6    2    1    2    0  503  0.75002724818E+02  0.42455391219E+03  0.86660972431E+03  0.98310037121E+03  0.17205374895E+03 0.  0.
        -24    2    3    3    0    0  0.37780471213E+02  0.84278186474E+02  0.23772912016E+03  0.26707944278E+03  0.79285039354E+02 0.  0.
          6    2    1    2  501    0 -0.75002724818E+02 -0.42455391219E+03  0.17909843754E+03  0.49744560781E+03  0.17176859233E+03 0.  0.
         24    2    5    5    0    0 -0.75189427189E+02 -0.14658919550E+03  0.48748830369E+02  0.19039914769E+03  0.82058179236E+02 0.  0.
          5    1    5    5  501    0  0.18670237128E+00 -0.27796471669E+03  0.13034960717E+03  0.30704646012E+03  0.47000000000E+01 0. -1.
        -11    1    6    6    0    0 -0.88271945534E+02 -0.12977294006E+03  0.57795613073E+02  0.16725216062E+03  0.00000000000E+00 0.  1.
         12    1    6    6    0    0  0.13082518344E+02 -0.16816255445E+02 -0.90467827037E+01  0.23146987076E+02  0.00000000000E+00 0. -1.
         -5    1    3    3    0  503  0.37222253606E+02  0.34027572572E+03  0.62888060415E+03  0.71602092843E+03  0.47000000000E+01 0.  1.
         13    1    4    4    0    0  0.31163229505E+02  0.81253919220E+02  0.24298832943E+03  0.25810206218E+03  0.00000000000E+00 0. -1.
        -14    1    4    4    0    0  0.66172417080E+01  0.30242672536E+01 -0.52592092750E+01  0.89773806002E+01  0.00000000000E+00 0.  1.
</event>
<event>
12    1  0.1066489E+000  0.3853875E+03  0.7818608E-02  0.1049035E+00
         21   -1    0    0  503  502  0.00000000000E+00  0.00000000000E+00  0.22114724201E+03  0.22114724201E+03  0.00000000000E+00 0.  1.
         21   -1    0    0  501  503 -0.00000000000E+00 -0.00000000000E+00 -0.94835331739E+03  0.94835331739E+03  0.00000000000E+00 0.  1.
          6    2    1    2  501    0 -0.27477857971E+03 -0.20847725959E+03 -0.47177567557E+02  0.38826444222E+03  0.17192300189E+03 0.  0.
         24    2    3    3    0    0 -0.26423354150E+03 -0.14523270365E+03 -0.69677379107E+01  0.31243573996E+03  0.81582103235E+02 0.  0.
         -6    2    1    2    0  502  0.27477857971E+03  0.20847725959E+03 -0.68002850782E+03  0.78123611718E+03  0.17007370079E+03 0.  0.
        -24    2    5    5    0    0  0.28750490323E+03  0.17677051833E+03 -0.60210436069E+03  0.69602145026E+03  0.89494762580E+02 0.  0.
          5    1    3    3  501    0 -0.10545038212E+02 -0.63244555937E+02 -0.40209829646E+02  0.75828702261E+02  0.47000000000E+01 0. -1.
        -13    1    4    4    0    0 -0.14302030643E+02  0.16896512205E+01 -0.17081387253E+02  0.22342264707E+02  0.00000000000E+00 0.  1.
         14    1    4    4    0    0 -0.24993151086E+03 -0.14692235487E+03  0.10113649342E+02  0.29009347525E+03  0.00000000000E+00 0. -1.
         -5    1    5    5    0  502 -0.12726323523E+02  0.31706741257E+02 -0.77924147129E+02  0.85214666915E+02  0.47000000000E+01 0.  1.
         11    1    6    6    0    0  0.39146896239E+02  0.67065962396E+02 -0.13475671892E+03  0.15553037032E+03  0.00000000000E+00 0. -1.
        -12    1    6    6    0    0  0.24835800700E+03  0.10970455593E+03 -0.46734764177E+03  0.54049107994E+03  0.00000000000E+00 0.  1.
</event>
<event>
12    1  0.1066489E+000  0.2242803E+03  0.7818608E-02  0.1131121E+00
         21   -1    0    0  501  502  0.00000000000E+00  0.00000000000E+00  0.22755389067E+03  0.22755389067E+03  0.00000000000E+00 0.  1.
         21   -1    0    0  502  503 -0.00000000000E+00 -0.00000000000E+00 -0.22505460033E+03  0.22505460033E+03  0.00000000000E+00 0.  1.
         -6    2    1    2    0  503  0.62663959751E+02  0.12991144460E+03  0.38509998974E+02  0.22756249562E+03  0.17174956797E+03 0.  0.
        -24    2    3    3    0    0  0.13267886179E+02  0.13478756209E+03  0.64922910805E+02  0.17114015503E+03  0.82038068095E+02 0.  0.
          6    2    1    2  501    0 -0.62663959751E+02 -0.12991144460E+03 -0.36010708631E+02  0.22504599539E+03  0.16895316989E+03 0.  0.
         24    2    5    5    0    0 -0.15940831895E+02 -0.10027954841E+03  0.35997999651E+02  0.13411501048E+03  0.79880423797E+02 0.  0.
          5    1    5    5  501    0 -0.46723127856E+02 -0.29631896194E+02 -0.72008708282E+02  0.90930984912E+02  0.47000000000E+01 0. -1.
        -11    1    6    6    0    0 -0.69653018441E+01 -0.75986724007E+01  0.39611203351E+02  0.40930461553E+02  0.00000000000E+00 0.  1.
         12    1    6    6    0    0 -0.89755300514E+01 -0.92680876008E+02 -0.36132037001E+01  0.93184548925E+02  0.00000000000E+00 0. -1.
         -5    1    3    3    0  503  0.49396073573E+02 -0.48761174886E+01 -0.26412911831E+02  0.56422340589E+02  0.47000000000E+01 0.  1.
         13    1    4    4    0    0 -0.15348991254E+01  0.96235360879E+02  0.82009723686E+02  0.12644839017E+03  0.00000000000E+00 0. -1.
        -14    1    4    4    0    0  0.14802785304E+02  0.38552201213E+02 -0.17086812881E+02  0.44691764851E+02  0.00000000000E+00 0.  1.
</event>
<event>
12    1  0.1066489E+000  0.1765655E+03  0.7818608E-02  0.1171476E+00
         21   -1    0    0  503  502  0.00000000000E+00  0.00000000000E+00  0.32327746410E+03  0.32327746410E+03  0.00000000000E+00 0. -1.
         21   -1    0    0  501  503 -0.00000000000E+00 -0.00000000000E+00 -0.37384190414E+03  0.37384190414E+03  0.00000000000E+00 0. -1.
          6    2    1    2  501    0  0.34368128060E+01 -0.38032645035E+02  0.27535975131E+03  0.32644166449E+03  0.17112239451E+03 0.  0.
         24    2    3    3    0    0  0.19562328722E+01  0.14698119788E+02  0.54688567363E+02  0.99504256598E+02  0.81794841577E+02 0.  0.
         -6    2    1    2    0  502 -0.34368128060E+01  0.38032645035E+02 -0.32592419136E+03  0.37067770375E+03  0.17238644892E+03 0.  0.
        -24    2    5    5    0    0  0.33178014477E+02  0.58606949199E+02 -0.30710619281E+03  0.32441589836E+03  0.79974410294E+02 0.  0.
          5    1    3    3  501    0  0.14805799338E+01 -0.52730764823E+02  0.22067118395E+03  0.22693740790E+03  0.47000000000E+01 0. -1.
        -13    1    4    4    0    0  0.14346120132E+02  0.45200057048E+02  0.19382949632E+02  0.51230411441E+02  0.00000000000E+00 0.  1.
         14    1    4    4    0    0 -0.12389887260E+02 -0.30501937260E+02  0.35305617731E+02  0.48273845158E+02  0.00000000000E+00 0. -1.
         -5    1    5    5    0  502 -0.36614827283E+02 -0.20574304163E+02 -0.18817998546E+02  0.46261805391E+02  0.47000000000E+01 0.  1.
         13    1    6    6    0    0  0.15967546076E+02  0.74458393063E+02 -0.18451236460E+03  0.19960918695E+03  0.00000000000E+00 0. -1.
        -14    1    6    6    0    0  0.17210468401E+02 -0.15851443864E+02 -0.12259382822E+03  0.12480671141E+03  0.00000000000E+00 0.  1.
</event>
<event>
12    1  0.1066489E+000  0.3359168E+03  0.7818608E-02  0.1068613E+00
         21   -1    0    0  501  502  0.00000000000E+00  0.00000000000E+00  0.21496381994E+03  0.21496381994E+03  0.00000000000E+00 0. -1.
         21   -1    0    0  502  503 -0.00000000000E+00 -0.00000000000E+00 -0.63441289913E+03  0.63441289913E+03  0.00000000000E+00 0. -1.
         -6    2    1    2    0  503  0.11284048726E+03 -0.26495338843E+03 -0.38674472484E+03  0.51187161991E+03  0.17177834403E+03 0.  0.
        -24    2    3    3    0    0  0.10297979113E+03 -0.23626428324E+03 -0.39604963962E+03  0.47979406508E+03  0.83194825154E+02 0.  0.
          6    2    1    2  501    0 -0.11284048726E+03  0.26495338843E+03 -0.32704354354E+02  0.33750509916E+03  0.17293595220E+03 0.  0.
         24    2    5    5    0    0 -0.58590419288E+02  0.26418654238E+03 -0.23964158735E+02  0.28234951062E+03  0.76938929271E+02 0.  0.
          5    1    5    5  501    0 -0.54250067970E+02  0.76684604356E+00 -0.87401956197E+01  0.55155588539E+02  0.47000000000E+01 0. -1.
        -13    1    6    6    0    0 -0.60459508371E+02  0.11087927678E+03  0.46789411328E+01  0.12637823650E+03  0.00000000000E+00 0.  1.
         14    1    6    6    0    0  0.18690890830E+01  0.15330726561E+03 -0.28643099867E+02  0.15597127412E+03  0.00000000000E+00 0. -1.
         -5    1    3    3    0  503  0.98606961255E+01 -0.28689105190E+02  0.93049147822E+01  0.32077554829E+02  0.47000000000E+01 0.  1.
         11    1    4    4    0    0  0.10037246618E+02 -0.11659655244E+03 -0.20380948365E+03  0.23501873965E+03  0.00000000000E+00 0. -1.
        -12    1    4    4    0    0  0.92942544514E+02 -0.11966773079E+03 -0.19224015597E+03  0.24477532543E+03  0.00000000000E+00 0.  1.
</event>
<event>
12    1  0.1066489E+000  0.2037016E+03  0.7818608E-02  0.1147308E+00
         21   -1    0    0  503  502  0.00000000000E+00  0.00000000000E+00  0.54368396282E+02  0.54368396282E+02  0.00000000000E+00 0.  1.
         21   -1    0    0  501  503 -0.00000000000E+00 -0.00000000000E+00 -0.75177840791E+03  0.75177840791E+03  0.00000000000E+00 0.  1.
          6    2    1    2  501    0 -0.13019711653E+02 -0.10926370355E+03 -0.33744699027E+03  0.39254344552E+03  0.16766578535E+03 0.  0.
         24    2    3    3    0    0  0.24013254224E+02  0.13567250571E+01 -0.17947367784E+03  0.19611030874E+03  0.75299236879E+02 0.  0.
         -6    2    1    2    0  502  0.13019711653E+02  0.10926370355E+03 -0.35996302136E+03  0.41360335867E+03  0.17142430326E+03 0.  0.
        -24    2    5    5    0    0  0.54858085782E+02  0.65765373621E+02 -0.32137154482E+03  0.34181236816E+03  0.78876683909E+02 0.  0.
          5    1    3    3  501    0 -0.37032965878E+02 -0.11062042861E+03 -0.15797331242E+03  0.19643313678E+03  0.47000000000E+01 0. -1.
        -11    1    4    4    0    0  0.26895218405E+02 -0.30808911001E+02 -0.13559671563E+03  0.14162983817E+03  0.00000000000E+00 0.  1.
         12    1    4    4    0    0 -0.28819641809E+01  0.32165636058E+02 -0.43876962208E+02  0.54480470566E+02  0.00000000000E+00 0. -1.
         -5    1    5    5    0  502 -0.41838374129E+02  0.43498329933E+02 -0.38591476542E+02  0.71790990510E+02  0.47000000000E+01 0.  1.
         11    1    6    6    0    0  0.61255632403E+02  0.24168450905E+02 -0.12836262244E+03  0.14426825486E+03  0.00000000000E+00 0. -1.
        -12    1    6    6    0    0 -0.63975466206E+01  0.41596922715E+02 -0.19300892238E+03  0.19754411330E+03  0.00000000000E+00 0.  1.
</event>
<event>
12    1  0.1066489E+000  0.1742911E+03  0.7818608E-02  0.1174913E+00
         21   -1    0    0  503  502  0.00000000000E+00  0.00000000000E+00  0.21683497700E+02  0.21683497700E+02  0.00000000000E+00 0.  1.
         21   -1    0    0  501  503 -0.00000000000E+00 -0.00000000000E+00 -0.18999626158E+04  0.18999626158E+04  0.00000000000E+00 0.  1.
          6    2    1    2  501    0  0.89652725340E+01  0.41392672062E+02 -0.41364416733E+03  0.44667732725E+03  0.16317293926E+03 0.  0.
         24    2    3    3    0    0  0.59151567892E+02  0.53369875845E+02 -0.23486697109E+03  0.26054432764E+03  0.79834835275E+02 0.  0.
         -6    2    1    2    0  502 -0.89652725340E+01 -0.41392672062E+02 -0.14646349508E+04  0.14749687863E+04  0.16906700435E+03 0.  0.
        -24    2    5    5    0    0 -0.10534058831E+02 -0.35949801271E+02 -0.35352606906E+03  0.36383552558E+03  0.77409647739E+02 0.  0.
          5    1    3    3  501    0 -0.50186295358E+02 -0.11977203784E+02 -0.17877719623E+03  0.18613299961E+03  0.47000000000E+01 0. -1.
        -11    1    4    4    0    0  0.21924588278E+02  0.30771855035E+02 -0.22968425781E+02  0.44217001440E+02  0.00000000000E+00 0.  1.
         12    1    4    4    0    0  0.37226979613E+02  0.22598020810E+02 -0.21189854531E+03  0.21632732620E+03  0.00000000000E+00 0. -1.
         -5    1    5    5    0  502  0.15687862967E+01 -0.54428707910E+01 -0.11111088817E+04  0.11111332607E+04  0.47000000000E+01 0.  1.
         11    1    6    6    0    0  0.29293682387E+02 -0.12230262665E+01 -0.78886218402E+02  0.84158487835E+02  0.00000000000E+00 0. -1.
        -12    1    6    6    0    0 -0.39827741217E+02 -0.34726775004E+02 -0.27463985066E+03  0.27967703775E+03  0.00000000000E+00 0.  1.
</event>
<event>
12    1  0.1066489E+000  0.2067401E+03  0.7818608E-02  0.1144377E+00
         21   -1    0    0  503  502  0.00000000000E+00  0.00000000000E+00  0.17053521998E+03  0.17053521998E+03  0.00000000000E+00 0.  1.
         21   -1    0    0  501  503 -0.00000000000E+00 -0.00000000000E+00 -0.25504424652E+03  0.25504424652E+03  0.00000000000E+00 0.  1.
          6    2    1    2  501    0 -0.85011250611E+02 -0.75466945895E+02 -0.10547242784E+02  0.20600757227E+03  0.17148091103E+03 0.  0.
         24    2    3    3    0    0 -0.11778508334E+03 -0.76210478757E+02 -0.34771929689E+02  0.16497584786E+03  0.79539803581E+02 0.  0.
         -6    2    1    2    0  502  0.85011250611E+02  0.75466945895E+02 -0.73961783753E+02  0.21957189423E+03  0.17268265295E+03 0.  0.
        -24    2    5    5    0    0  0.96567583242E+02  0.55581275972E+02 -0.11011847373E+03  0.17646290535E+03  0.81231166050E+02 0.  0.
          5    1    3    3  501    0  0.32773832724E+02  0.74353286254E+00  0.24224686905E+02  0.41031724412E+02  0.47000000000E+01 0. -1.
        -13    1    4    4    0    0 -0.28102221462E+02 -0.45195467411E+02 -0.44782942089E+02  0.69554849060E+02  0.00000000000E+00 0.  1.
         14    1    4    4    0    0 -0.89682861873E+02 -0.31015011347E+02  0.10011012400E+02  0.95420998799E+02  0.00000000000E+00 0. -1.
         -5    1    5    5    0  502 -0.11556332631E+02  0.19885669923E+02  0.36156689976E+02  0.43108988879E+02  0.47000000000E+01 0.  1.
         13    1    6    6    0    0  0.40037455626E+02 -0.18084706484E+02 -0.46073601621E+02  0.63661850648E+02  0.00000000000E+00 0. -1.
        -14    1    6    6    0    0  0.56530127617E+02  0.73665982456E+02 -0.64044872108E+02  0.11280105471E+03  0.00000000000E+00 0.  1.
</event>
<event>
12    1  0.1066489E+000  0.2815925E+03  0.7818608E-02  0.1094839E+00
         21   -1    0    0  501  502  0.00000000000E+00  0.00000000000E+00  0.23954010644E+03  0.23954010644E+03  0.00000000000E+00 0. -1.
         21   -1    0    0  502  503 -0.00000000000E+00 -0.00000000000E+00 -0.34429115776E+03  0.34429115776E+03  0.00000000000E+00 0. -1.
         -6    2    1    2    0  503 -0.58755796864E+02 -0.21520584138E+03 -0.10996696105E+03  0.30219041306E+03  0.17164065775E+03 0.  0.
        -24    2    3    3    0    0 -0.17150432589E+02 -0.31647236909E+02 -0.14538970733E+02  0.91113747019E+02  0.82429656580E+02 0.  0.
          6    2    1    2  501    0  0.58755796864E+02  0.21520584138E+03  0.52159097242E+01  0.28164085114E+03  0.17183877761E+03 0.  0.
         24    2    5    5    0    0  0.70540542226E+01  0.19915529281E+03 -0.29923280297E+02  0.21692962355E+03  0.80314808928E+02 0.  0.
          5    1    5    5  501    0  0.51701742642E+02  0.16050548561E+02  0.35139190021E+02  0.64711227593E+02  0.47000000000E+01 0. -1.
        -11    1    6    6    0    0  0.90002570138E+01 -0.30504588898E+01  0.64282176861E+01  0.11473094978E+02  0.00000000000E+00 0.  1.
         12    1    6    6    0    0 -0.19462027912E+01  0.20220575170E+03 -0.36351497983E+02  0.20545652857E+03  0.00000000000E+00 0. -1.
         -5    1    3    3    0  503 -0.41605364275E+02 -0.18355860447E+03 -0.95427990318E+02  0.21107666604E+03  0.47000000000E+01 0.  1.
         11    1    4    4    0    0 -0.18460209580E+02 -0.43016831369E+01 -0.45795369368E+02  0.49563087788E+02  0.00000000000E+00 0. -1.
        -12    1    4    4    0    0  0.13097769912E+01 -0.27345553772E+02  0.31256398635E+02  0.41550659230E+02  0.00000000000E+00 0.  1.
</event>
<event>
12    1  0.1066489E+000  0.3275446E+03  0.7818608E-02  0.1072358E+00
         21   -1    0    0  503  502  0.00000000000E+00  0.00000000000E+00  0.17396958906E+03  0.17396958906E+03  0.00000000000E+00 0. -1.
         21   -1    0    0  501  503 -0.00000000000E+00 -0.00000000000E+00 -0.78778088882E+03  0.78778088882E+03  0.00000000000E+00 0. -1.
          6    2    1    2  501    0 -0.25702901596E+03  0.10705744883E+03 -0.80963282861E+02  0.33628066082E+03  0.17030683274E+03 0.  0.
         24    2    3    3    0    0 -0.79987550785E+02  0.96852673160E+02 -0.30368303633E+02  0.15180909185E+03  0.79657503873E+02 0.  0.
         -6    2    1    2    0  502  0.25702901596E+03 -0.10705744883E+03 -0.53284801690E+03  0.62546981706E+03  0.17251165338E+03 0.  0.
        -24    2    5    5    0    0  0.27510468340E+03 -0.10107590501E+03 -0.51924659554E+03  0.60160357976E+03  0.80068188397E+02 0.  0.
          5    1    3    3  501    0 -0.17704146517E+03  0.10204775669E+02 -0.50594979228E+02  0.18447156897E+03  0.47000000000E+01 0. -1.
        -11    1    4    4    0    0 -0.19830730070E+02  0.19468258598E+02  0.26575964958E+02  0.38451955235E+02  0.00000000000E+00 0.  1.
         12    1    4    4    0    0 -0.60156820715E+02  0.77384414562E+02 -0.56944268591E+02  0.11335713661E+03  0.00000000000E+00 0. -1.
         -5    1    5    5    0  502 -0.18075667448E+02 -0.59815438207E+01 -0.13601421357E+02  0.23866237305E+02  0.47000000000E+01 0.  1.
         11    1    6    6    0    0  0.11369388709E+03 -0.84295008010E+02 -0.24436960406E+03  0.28239768364E+03  0.00000000000E+00 0. -1.
        -12    1    6    6    0    0  0.16141079631E+03 -0.16780896998E+02 -0.27487699148E+03  0.31920589611E+03  0.00000000000E+00 0.  1.
</event>
<event>
12    1  0.1066489E+000  0.1729764E+03  0.7818608E-02  0.1174827E+00
         21   -1    0    0  501  502  0.00000000000E+00  0.00000000000E+00  0.25013722429E+03  0.25013722429E+03  0.00000000000E+00 0. -1.
         21   -1    0    0  502  503 -0.00000000000E+00 -0.00000000000E+00 -0.14411748739E+03  0.14411748739E+03  0.00000000000E+00 0. -1.
         -6    2    1    2    0  503  0.10704643770E+02  0.14262198544E+02  0.13452480033E+03  0.21912954093E+03  0.17205474158E+03 0.  0.
        -24    2    3    3    0    0 -0.32308442890E+02 -0.14889213349E+02  0.14522083070E+02  0.88275910531E+02  0.79474658397E+02 0.  0.
          6    2    1    2  501    0 -0.10704643770E+02 -0.14262198544E+02 -0.28505063435E+02  0.17512517075E+03  0.17186706224E+03 0.  0.
         24    2    5    5    0    0 -0.67785672866E+02 -0.25848695193E+02  0.20117039678E+02  0.99107477423E+02  0.64455754643E+02 0.  0.
          5    1    5    5  501    0  0.57081029096E+02  0.11586496649E+02 -0.48622103113E+02  0.76017693324E+02  0.47000000000E+01 0. -1.
        -13    1    6    6    0    0  0.51903842227E+01 -0.20108390180E+02  0.15210161762E+02  0.25741726144E+02  0.00000000000E+00 0.  1.
         14    1    6    6    0    0 -0.72976057089E+02 -0.57403050132E+01  0.49068779152E+01  0.73365751279E+02  0.00000000000E+00 0. -1.
         -5    1    3    3    0  503  0.43013086660E+02  0.29151411893E+02  0.12000271726E+03  0.13085363040E+03  0.47000000000E+01 0.  1.
         13    1    4    4    0    0 -0.30812187956E+01 -0.44991052758E+02  0.65718238943E+01  0.45572772648E+02  0.00000000000E+00 0. -1.
        -14    1    4    4    0    0 -0.29227224095E+02  0.30101839409E+02  0.79502591759E+01  0.42703137883E+02  0.00000000000E+00 0.  1.
</event>
<event>
12    1  0.1066489E+000  0.1781796E+03  0.7818608E-02  0.1169592E+00
         21   -1    0    0  501  502  0.00000000000E+00  0.00000000000E+00  0.56139407873E+02  0.56139407873E+02  0.00000000000E+00 0. -1.
         21   -1    0    0  502  503 -0.00000000000E+00 -0.00000000000E+00 -0.60613570070E+03  0.60613570070E+03  0.00000000000E+00 0. -1.
         -6    2    1    2    0  503 -0.28111685430E+02 -0.35883284790E+02 -0.36097712915E+03  0.40255739488E+03  0.17225008395E+03 0.  0.
        -24    2    3    3    0    0 -0.83792081671E+02 -0.20594100967E+02 -0.27208020690E+03  0.29644981526E+03  0.80060127634E+02 0.  0.
          6    2    1    2  501    0  0.28111685430E+02  0.35883284790E+02 -0.18901916368E+03  0.25971771369E+03  0.17218353458E+03 0.  0.
         24    2    5    5    0    0  0.64121982588E+02 -0.15335705102E+02 -0.15979827683E+03  0.19046400148E+03  0.79963954871E+02 0.  0.
          5    1    5    5  501    0 -0.36010297159E+02  0.51218989891E+02 -0.29220886844E+02  0.69253712210E+02  0.47000000000E+01 0. -1.
        -11    1    6    6    0    0  0.64794765420E+02  0.18193485422E+02 -0.84429139140E+02  0.10797057040E+03  0.00000000000E+00 0.  1.
         12    1    6    6    0    0 -0.67278283144E+00 -0.33529190523E+02 -0.75369137691E+02  0.82493431073E+02  0.00000000000E+00 0. -1.
         -5    1    3    3    0  503  0.55680396241E+02 -0.15289183823E+02 -0.88896922255E+02  0.10610757963E+03  0.47000000000E+01 0.  1.
         11    1    4    4    0    0 -0.36163489689E+02 -0.78482289094E+01 -0.22584999356E+03  0.22886155701E+03  0.00000000000E+00 0. -1.
        -12    1    4    4    0    0 -0.47628591982E+02 -0.12745872058E+02 -0.46230213336E+02  0.67588258253E+02  0.00000000000E+00 0.  1.
</event>
<event>
12    1  0.1066489E+000  0.2142852E+03  0.7818608E-02  0.1138445E+00
         21   -1    0    0  501  502  0.00000000000E+00  0.00000000000E+00  0.11388952884E+04  0.11388952884E+04  0.00000000000E+00 0. -1.
         21   -1    0    0  502  503 -0.00000000000E+00 -0.00000000000E+00 -0.42083948828E+02  0.42083948828E+02  0.00000000000E+00 0. -1.
         -6    2    1    2    0  503 -0.11424023221E+03  0.52231615544E+02  0.41862819948E+03  0.46974753981E+03  0.17214589581E+03 0.  0.
        -24    2    3    3    0    0 -0.12012442794E+03  0.90898852817E+02  0.37358893785E+03  0.40991106193E+03  0.75933553684E+02 0.  0.
          6    2    1    2  501    0  0.11424023221E+03 -0.52231615544E+02  0.67818314010E+03  0.71123169743E+03  0.17360640422E+03 0.  0.
         24    2    5    5    0    0  0.11977878629E+03 -0.84340677007E+02  0.63482454279E+03  0.65679158932E+03  0.83142553683E+02 0.  0.
          5    1    5    5  501    0 -0.55385540842E+01  0.32109061464E+02  0.43358597315E+02  0.54440108106E+02  0.47000000000E+01 0. -1.
        -13    1    6    6    0    0  0.27071353026E+02  0.14572403902E+02  0.16314759268E+03  0.16601912573E+03  0.00000000000E+00 0.  1.
         14    1    6    6    0    0  0.92707433267E+02 -0.98913080910E+02  0.47167695010E+03  0.49077246359E+03  0.00000000000E+00 0. -1.
         -5    1    3    3    0  503  0.58841957273E+01 -0.38667237273E+02  0.45039261630E+02  0.59836477887E+02  0.47000000000E+01 0.  1.
         11    1    4    4    0    0  0.94478946961E+01  0.93326599634E+01  0.52985939836E+02  0.54624821066E+02  0.00000000000E+00 0. -1.
        -12    1    4    4    0    0 -0.12957232263E+03  0.81566192854E+02  0.32060299801E+03  0.35528624086E+03  0.00000000000E+00 0.  1.
</event>
<event>
12    1  0.1066489E+000  0.1921014E+03  0.7818608E-02  0.1156843E+00
         21   -1    0    0  503  502  0.00000000000E+00  0.00000000000E+00  0.32312293959E+03  0.32312293959E+03  0.00000000000E+00 0.  1.
         21   -1    0    0  501  503 -0.00000000000E+00 -0.00000000000E+00 -0.12859988117E+03  0.12859988117E+03  0.00000000000E+00 0.  1.
          6    2    1    2  501    0  0.50699193486E+02 -0.66825219405E+02  0.20150177669E+02  0.19315533342E+03  0.17282052830E+03 0.  0.
         24    2    3    3    0    0  0.95576468899E+02 -0.46366200458E+02  0.41926167213E+02  0.13903671347E+03  0.79301439102E+02 0.  0.
         -6    2    1    2    0  502 -0.50699193486E+02  0.66825219405E+02  0.17437288075E+03  0.25856748734E+03  0.17150867558E+03 0.  0.
        -24    2    5    5    0    0 -0.86256154117E+02  0.78735270041E+01  0.11672512926E+03  0.16865112210E+03  0.85535540175E+02 0.  0.
          5    1    3    3  501    0 -0.44877275412E+02 -0.20459018947E+02 -0.21775989544E+02  0.54118619951E+02  0.47000000000E+01 0. -1.
        -13    1    4    4    0    0  0.35918788921E+02  0.87795409946E+01  0.44371815713E+02  0.57758962658E+02  0.00000000000E+00 0.  1.
         14    1    4    4    0    0  0.59657679978E+02 -0.55145741453E+02 -0.24456485003E+01  0.81277750813E+02  0.00000000000E+00 0. -1.
         -5    1    5    5    0  502  0.35556960631E+02  0.58951692401E+02  0.57647751492E+02  0.89916365242E+02  0.47000000000E+01 0.  1.
         13    1    6    6    0    0 -0.19915274896E+02 -0.35726570246E+02  0.52412397362E+02  0.66483572354E+02  0.00000000000E+00 0. -1.
        -14    1    6    6    0    0 -0.66340879222E+02  0.43600097250E+02  0.64312731897E+02  0.10216754974E+03  0.00000000000E+00 0.  1.
</event>
<event>
12    1  0.1066489E+000  0.1862866E+03  0.7818608E-02  0.1161959E+00
         21   -1    0    0  503  502  0.00000000000E+00  0.00000000000E+00  0.21052188566E+03  0.21052188566E+03  0.00000000000E+00 0.  1.
         21   -1    0    0  501  503 -0.00000000000E+00 -0.00000000000E+00 -0.16836775480E+03  0.16836775480E+03  0.00000000000E+00 0.  1.
          6    2    1    2  501    0 -0.68268624723E+02 -0.16547148778E+02 -0.78845347831E+01  0.18599964428E+03  0.17204443766E+03 0.  0.
         24    2    3    3    0    0 -0.48332618440E+02 -0.16071681866E+02  0.62884093312E+02  0.11232495977E+03  0.77898308274E+02 0.  0.
         -6    2    1    2    0  502  0.68268624723E+02  0.16547148778E+02  0.50038665650E+02  0.19288999618E+03  0.17253483507E+03 0.  0.
        -24    2    5    5    0    0 -0.21656153323E+02  0.27970601286E+02 -0.39653659144E+01  0.87270460114E+02  0.79681023894E+02 0.  0.
          5    1    3    3  501    0 -0.19936006284E+02 -0.47546691185E+00 -0.70768628095E+02  0.73674684511E+02  0.47000000000E+01 0. -1.
        -11    1    4    4    0    0  0.16439747026E+02  0.91751325116E+01  0.30006607751E+02  0.35423789289E+02  0.00000000000E+00 0.  1.
         12    1    4    4    0    0 -0.64772365465E+02 -0.25246814378E+02  0.32877485561E+02  0.76901170478E+02  0.00000000000E+00 0. -1.
         -5    1    5    5    0  502  0.89924778046E+02 -0.11423452508E+02  0.54004031564E+02  0.10561953607E+03  0.47000000000E+01 0.  1.
         11    1    6    6    0    0 -0.35810572183E+01  0.18059545336E+02 -0.40967077686E+02  0.44914057963E+02  0.00000000000E+00 0. -1.
        -12    1    6    6    0    0 -0.18075096105E+02  0.99110559493E+01  0.37001711771E+02  0.42356402152E+02  0.00000000000E+00 0.  1.
</event>
<event>
12    1  0.1066489E+000  0.2022062E+03  0.7818608E-02  0.1148031E+00
         21   -1    0    0  501  502  0.00000000000E+00  0.00000000000E+00  0.22712995733E+03  0.22712995733E+03  0.00000000000E+00 0. -1.
         21   -1    0    0  502  503 -0.00000000000E+00 -0.00000000000E+00 -0.20311645133E+03  0.20311645133E+03  0.00000000000E+00 0. -1.
         -6    2    1    2    0  503  0.67000617753E+02  0.80109474186E+02  0.85505705504E+02  0.21954170263E+03  0.17314942358E+03 0.  0.
        -24    2    3    3    0    0 -0.12058704625E+02  0.92341931587E+02  0.52644709425E+02  0.13292793622E+03  0.78904537958E+02 0.  0.
          6    2    1    2  501    0 -0.67000617753E+02 -0.80109474186E+02 -0.61492199503E+02  0.21070470604E+03  0.17236174724E+03 0.  0.
         24    2    5    5    0    0 -0.14890452030E+02 -0.11267843985E+03 -0.50570998420E+02  0.14811421531E+03  0.80388049656E+02 0.  0.
          5    1    5    5  501    0 -0.52110165723E+02  0.32568965664E+02 -0.10921201083E+02  0.62590490725E+02  0.47000000000E+01 0. -1.
        -13    1    6    6    0    0 -0.51326595560E+01 -0.87710960977E+00  0.16548302101E+02  0.17348193503E+02  0.00000000000E+00 0.  1.
         14    1    6    6    0    0 -0.97577924737E+01 -0.11180133024E+03 -0.67119300520E+02  0.13076602181E+03  0.00000000000E+00 0. -1.
         -5    1    3    3    0  503  0.79059322377E+02 -0.12232457401E+02  0.32860996079E+02  0.86613766412E+02  0.47000000000E+01 0.  1.
         11    1    4    4    0    0  0.64799243624E+01  0.29384779394E+02  0.59765216552E+02  0.66912897032E+02  0.00000000000E+00 0. -1.
        -12    1    4    4    0    0 -0.18538628987E+02  0.62957152193E+02 -0.71205071269E+01  0.66015039186E+02  0.00000000000E+00 0.  1.
</event>
<event>
12    1  0.1066489E+000  0.3257778E+03  0.7818608E-02  0.1073025E+00
         21   -1    0    0  501  502  0.00000000000E+00  0.00000000000E+00  0.77945730244E+03  0.77945730244E+03  0.00000000000E+00 0. -1.
         21   -1    0    0  502  503 -0.00000000000E+00 -0.00000000000E+00 -0.38954524200E+03  0.38954524200E+03  0.00000000000E+00 0. -1.
         -6    2    1    2    0  503 -0.27407515910E+03 -0.37309613319E+02 -0.27647111597E+03  0.42724940742E+03  0.17203656034E+03 0.  0.
        -24    2    3    3    0    0 -0.19810320450E+03 -0.34502463131E+01 -0.10779857088E+03  0.23912521417E+03  0.79394913776E+02 0.  0.
          6    2    1    2  501    0  0.27407515910E+03  0.37309613319E+02  0.66638317642E+03  0.74175313702E+03  0.17211036690E+03 0.  0.
         24    2    5    5    0    0  0.18373698835E+03  0.91671503805E+02  0.45704371449E+03  0.50731487105E+03  0.79476260225E+02 0.  0.
          5    1    5    5  501    0  0.90338170753E+02 -0.54361890487E+02  0.20933946193E+03  0.23443826597E+03  0.47000000000E+01 0. -1.
        -13    1    6    6    0    0  0.65242433981E+02  0.64474363126E+01  0.21393885237E+03  0.22375874772E+03  0.00000000000E+00 0.  1.
         14    1    6    6    0    0  0.11849455436E+03  0.85224067493E+02  0.24310486212E+03  0.28355612333E+03  0.00000000000E+00 0. -1.
         -5    1    3    3    0  503 -0.75971954596E+02 -0.33859367006E+02 -0.16867254509E+03  0.18812419325E+03  0.47000000000E+01 0.  1.
         13    1    4    4    0    0 -0.32065788121E+02  0.29399789301E+02 -0.14489905927E+02  0.45853241462E+02  0.00000000000E+00 0. -1.
        -14    1    4    4    0    0 -0.16603741638E+03 -0.32850035614E+02 -0.93308664955E+02  0.19327197271E+03  0.00000000000E+00 0.  1.
</event>
<event>
12    1  0.1066489E+000  0.3689358E+03  0.7818608E-02  0.1055715E+00
         21   -1    0    0  503  502  0.00000000000E+00  0.00000000000E+00  0.12839377548E+04  0.12839377548E+04  0.00000000000E+00 0.  1.
         21   -1    0    0  501  503 -0.00000000000E+00 -0.00000000000E+00 -0.10433249475E+03  0.10433249475E+03  0.00000000000E+00 0.  1.
          6    2    1    2  501    0 -0.30812120138E+03 -0.85192819820E+02  0.60976819177E+03  0.70942720343E+03  0.17109417868E+03 0.  0.
         24    2    3    3    0    0 -0.49409849785E+02 -0.26454350140E+02  0.16805683642E+03  0.19414787848E+03  0.79430048199E+02 0.  0.
         -6    2    1    2    0  502  0.30812120138E+03  0.85192819820E+02  0.56983706827E+03  0.67884304611E+03  0.18416597294E+03 0.  0.
        -24    2    5    5    0    0  0.98141200027E+02 -0.67800684147E+01  0.28971297663E+03  0.31684551869E+03  0.82339598117E+02 0.  0.
          5    1    3    3  501    0 -0.25871135160E+03 -0.58738469681E+02  0.44171135536E+03  0.51527932495E+03  0.47000000000E+01 0. -1.
        -13    1    4    4    0    0 -0.20436486299E+02  0.28445873231E+02  0.65111442796E+02  0.73934549833E+02  0.00000000000E+00 0.  1.
         14    1    4    4    0    0 -0.28973363486E+02 -0.54900223370E+02  0.10294539362E+03  0.12021332865E+03  0.00000000000E+00 0. -1.
         -5    1    5    5    0  502  0.20998000136E+03  0.91972888235E+02  0.28012409165E+03  0.36199752742E+03  0.47000000000E+01 0.  1.
         11    1    6    6    0    0  0.57800629806E+02 -0.36781522561E+02  0.10469811135E+03  0.12512189148E+03  0.00000000000E+00 0. -1.
        -12    1    6    6    0    0  0.40340570221E+02  0.30001454146E+02  0.18501486528E+03  0.19172362721E+03  0.00000000000E+00 0.  1.
</event>
<event>
12    1  0.1066489E+000  0.1953029E+03  0.7818608E-02  0.1154174E+00
         21   -1    0    0  503  502  0.00000000000E+00  0.00000000000E+00  0.12219369141E+03  0.12219369141E+03  0.00000000000E+00 0. -1.
         21   -1    0    0  501  503 -0.00000000000E+00 -0.00000000000E+00 -0.72588073604E+03  0.72588073604E+03  0.00000000000E+00 0. -1.
          6    2    1    2  501    0 -0.78311087822E+02 -0.47010900896E+02 -0.62250894197E+03  0.65186662085E+03  0.17049943479E+03 0.  0.
         24    2    3    3    0    0 -0.10308300800E+03 -0.57737745450E+02 -0.34482543511E+03  0.37283448434E+03  0.78365925148E+02 0.  0.
         -6    2    1    2    0  502  0.78311087822E+02  0.47010900896E+02  0.18821897337E+02  0.19620780660E+03  0.17262846890E+03 0.  0.
        -24    2    5    5    0    0  0.19890036201E+02 -0.30321701757E+02 -0.21836213812E+02  0.91000759748E+02  0.80556184763E+02 0.  0.
          5    1    3    3  501    0  0.24771920181E+02  0.10726844554E+02 -0.27768350686E+03  0.27903213651E+03  0.47000000000E+01 0. -1.
        -13    1    4    4    0    0 -0.23927367913E+02 -0.72411017569E+01 -0.13395205383E+02  0.28361664570E+02  0.00000000000E+00 0.  1.
         14    1    4    4    0    0 -0.79155640091E+02 -0.50496643693E+02 -0.33143022973E+03  0.34447281977E+03  0.00000000000E+00 0. -1.
         -5    1    5    5    0  502  0.58421051622E+02  0.77332602653E+02  0.40658111149E+02  0.10520704685E+03  0.47000000000E+01 0.  1.
         11    1    6    6    0    0  0.47201372699E+02 -0.23994522744E+02  0.37001346255E+01  0.53079164487E+02  0.00000000000E+00 0. -1.
        -12    1    6    6    0    0 -0.27311336499E+02 -0.63271790130E+01 -0.25536348438E+02  0.37921595261E+02  0.00000000000E+00 0.  1.
</event>
<event>
12    1  0.1066489E+000  0.1979562E+03  0.7818608E-02  0.1151555E+00
         21   -1    0    0  503  502  0.00000000000E+00  0.00000000000E+00  0.23920660900E+03  0.23920660900E+03  0.00000000000E+00 0.  1.
         21   -1    0    0  501  503 -0.00000000000E+00 -0.00000000000E+00 -0.21920564323E+03  0.21920564323E+03  0.00000000000E+00 0.  1.
          6    2    1    2  501    0 -0.30121231241E+01 -0.96392545472E+02  0.12552922728E+03  0.23408469583E+03  0.17244553404E+03 0.  0.
         24    2    3    3    0    0  0.33116196149E+02 -0.10951546496E+03  0.45920479365E+02  0.14555724690E+03  0.77381536469E+02 0.  0.
         -6    2    1    2    0  502  0.30121231241E+01  0.96392545472E+02 -0.10552826152E+03  0.22432755639E+03  0.17287580187E+03 0.  0.
        -24    2    5    5    0    0  0.48591271806E+02  0.10739012365E+03 -0.10423497555E+03  0.17718767828E+03  0.81466513686E+02 0.  0.
          5    1    3    3  501    0 -0.36128319273E+02  0.13122919491E+02  0.79608747916E+02  0.88527448931E+02  0.47000000000E+01 0. -1.
        -13    1    4    4    0    0  0.13830669561E+01 -0.47254744149E+02  0.57802568838E+02  0.74673025137E+02  0.00000000000E+00 0.  1.
         14    1    4    4    0    0  0.31733129193E+02 -0.62260720814E+02 -0.11882089473E+02  0.70884221763E+02  0.00000000000E+00 0. -1.
         -5    1    5    5    0  502 -0.45579148682E+02 -0.10997578178E+02 -0.12932859669E+01  0.47139878117E+02  0.47000000000E+01 0.  1.
         13    1    6    6    0    0  0.60015366442E+02  0.42956509493E+02 -0.34216306683E+02  0.81350240074E+02  0.00000000000E+00 0. -1.
        -14    1    6    6    0    0 -0.11424094637E+02  0.64433614157E+02 -0.70018668865E+02  0.95837438203E+02  0.00000000000E+00 0.  1.
</event>
<event>
12    1  0.1066489E+000  0.3531961E+03  0.7818608E-02  0.1061440E+00
         21   -1    0    0  501  502  0.00000000000E+00  0.00000000000E+00  0.11828918767E+03  0.11828918767E+03  0.00000000000E+00 0.  1.
         21   -1    0    0  502  503 -0.00000000000E+00 -0.00000000000E+00 -0.12879984100E+04  0.12879984100E+04  0.00000000000E+00 0.  1.
         -6    2    1    2    0  503 -0.30566953873E+03  0.39279053452E+02 -0.88573699939E+03  0.95309042380E+03  0.16992531569E+03 0.  0.
        -24    2    3    3    0    0 -0.67975728790E+02 -0.21029900898E+02 -0.26684559188E+03  0.28736962531E+03  0.79446681545E+02 0.  0.
          6    2    1    2  501    0  0.30566953873E+03 -0.39279053452E+02 -0.28397222298E+03  0.45319717391E+03  0.17254200667E+03 0.  0.
         24    2    5    5    0    0  0.30668200003E+03 -0.12079619563E+02 -0.22922594853E+03  0.39187769211E+03  0.82606438869E+02 0.  0.
          5    1    5    5  501    0 -0.10124612982E+01 -0.27199433889E+02 -0.54746274453E+02  0.61319481800E+02  0.47000000000E+01 0. -1.
        -13    1    6    6    0    0 -0.73559727886E+00 -0.88190065903E+01 -0.14112711609E+02  0.16657869298E+02  0.00000000000E+00 0.  1.
         14    1    6    6    0    0  0.30741759731E+03 -0.32606129722E+01 -0.21511323692E+03  0.37521982281E+03  0.00000000000E+00 0. -1.
         -5    1    3    3    0  503 -0.23769380994E+03  0.60308954350E+02 -0.61889140751E+03  0.66572079849E+03  0.47000000000E+01 0.  1.
         13    1    4    4    0    0 -0.49462576829E+02 -0.18192818957E+01 -0.55573013145E+02  0.74419191632E+02  0.00000000000E+00 0. -1.
        -14    1    4    4    0    0 -0.18513151961E+02 -0.19210619002E+02 -0.21127257874E+03  0.21295043368E+03  0.00000000000E+00 0.  1.
</event>
<event>
12    1  0.1066489E+000  0.3048139E+03  0.7818608E-02  0.1082896E+00
         21   -1    0    0  503  502  0.00000000000E+00  0.00000000000E+00  0.53362015340E+03  0.53362015340E+03  0.00000000000E+00 0.  1.
         21   -1    0    0  501  503 -0.00000000000E+00 -0.00000000000E+00 -0.33997847776E+03  0.33997847776E+03  0.00000000000E+00 0. -1.
          6    2    1    2  501    0 -0.33511997468E+02 -0.24815277201E+03 -0.20845698868E+03  0.36902467612E+03  0.17326870238E+03 0.  0.
         24    2    3    3    0    0 -0.49948813088E+02 -0.63874221420E+02 -0.12974177940E+03  0.16791046158E+03  0.69182322146E+02 0.  0.
         -6    2    1    2    0  502  0.33511997468E+02  0.24815277201E+03  0.40209866432E+03  0.50457395504E+03  0.17380646719E+03 0.  0.
        -24    2    5    5    0    0  0.61176060788E+02  0.16415072876E+03  0.17355943733E+03  0.25947415508E+03  0.80721661928E+02 0.  0.
          5    1    3    3  501    0  0.16436815620E+02 -0.18427855059E+03 -0.78715209283E+02  0.20111421453E+03  0.47000000000E+01 0. -1.
        -13    1    4    4    0    0 -0.35219154524E+02 -0.69990320316E+02 -0.66747136618E+02  0.10292819842E+03  0.00000000000E+00 0.  1.
         14    1    4    4    0    0 -0.14729658564E+02  0.61160988963E+01 -0.62994642778E+02  0.64982263163E+02  0.00000000000E+00 0. -1.
         -5    1    5    5    0  502 -0.27664063320E+02  0.84002043246E+02  0.22853922699E+03  0.24509979996E+03  0.47000000000E+01 0.  1.
         11    1    6    6    0    0  0.76480512469E+02  0.14995757350E+03  0.16810876066E+03  0.23790144608E+03  0.00000000000E+00 0. -1.
        -12    1    6    6    0    0 -0.15304451681E+02  0.14193155264E+02  0.54506766685E+01  0.21572709003E+02  0.00000000000E+00 0.  1.
</event>
<event>
12    1  0.1066489E+000  0.2185530E+03  0.7818608E-02  0.1135243E+00
         21   -1    0    0  501  502  0.00000000000E+00  0.00000000000E+00  0.44215262106E+03  0.44215262106E+03  0.00000000000E+00 0.  1.
         21   -1    0    0  502  503 -0.00000000000E+00 -0.00000000000E+00 -0.11667061060E+03  0.11667061060E+03  0.00000000000E+00 0.  1.
         -6    2    1    2    0  503  0.37748733278E+02 -0.12537062223E+03  0.84085977412E+02  0.23417056204E+03  0.17499325915E+03 0.  0.
        -24    2    3    3    0    0  0.76318986843E+01 -0.15311136636E+03  0.47564195715E+02  0.17910239383E+03  0.79460546029E+02 0.  0.
          6    2    1    2  501    0 -0.37748733278E+02  0.12537062223E+03  0.24139603305E+03  0.32465266961E+03  0.17316047856E+03 0.  0.
         24    2    5    5    0    0 -0.48144420207E+01  0.91129022264E+02  0.24842172028E+03  0.27639704829E+03  0.79713861057E+02 0.  0.
          5    1    5    5  501    0 -0.32934291257E+02  0.34241599964E+02 -0.70256872311E+01  0.48255621328E+02  0.47000000000E+01 0. -1.
        -11    1    6    6    0    0  0.33360951863E+02  0.24427389053E+02  0.59640770718E+02  0.72571840110E+02  0.00000000000E+00 0.  1.
         12    1    6    6    0    0 -0.38175393884E+02  0.66701633212E+02  0.18878094956E+03  0.20382520818E+03  0.00000000000E+00 0. -1.
         -5    1    3    3    0  503  0.30116834593E+02  0.27740744137E+02  0.36521781697E+02  0.55068168205E+02  0.47000000000E+01 0.  1.
         13    1    4    4    0    0 -0.10935312703E+02 -0.58824406478E+02  0.56879748908E+02  0.82554210658E+02  0.00000000000E+00 0. -1.
        -14    1    4    4    0    0  0.18567211388E+02 -0.94286959886E+02 -0.93155531928E+01  0.96548183176E+02  0.00000000000E+00 0.  1.
</event>
<event>
12    1  0.1066489E+000  0.2103836E+03  0.7818608E-02  0.1141584E+00
         21   -1    0    0  503  502  0.00000000000E+00  0.00000000000E+00  0.66347697926E+03  0.66347697926E+03  0.00000000000E+00 0.  1.
         21   -1    0    0  501  503 -0.00000000000E+00 -0.00000000000E+00 -0.67190935175E+02  0.67190935175E+02  0.00000000000E+00 0.  1.
          6    2    1    2  501    0 -0.61289031949E+02  0.10488237033E+03  0.34142861013E+03  0.40019313601E+03  0.16977748158E+03 0.  0.
         24    2    3    3    0    0 -0.33906852186E+02  0.12475502487E+03  0.33188975252E+03  0.36472785762E+03  0.78499117456E+02 0.  0.
         -6    2    1    2    0  502  0.61289031949E+02 -0.10488237033E+03  0.25485743396E+03  0.33047477843E+03  0.17176906150E+03 0.  0.
        -24    2    5    5    0    0  0.10202300437E+03 -0.10829666361E+03  0.19689148469E+03  0.25938993347E+03  0.79875027835E+02 0.  0.
          5    1    3    3  501    0 -0.27382179762E+02 -0.19872654537E+02  0.95388576101E+01  0.35465278391E+02  0.47000000000E+01 0. -1.
        -13    1    4    4    0    0  0.23569629207E+02  0.40352798717E+02  0.76029280087E+02  0.89243079372E+02  0.00000000000E+00 0.  1.
         14    1    4    4    0    0 -0.57476481394E+02  0.84402226150E+02  0.25586047243E+03  0.27548477825E+03  0.00000000000E+00 0. -1.
         -5    1    5    5    0  502 -0.40733972423E+02  0.34142932847E+01  0.57965949275E+02  0.71084844962E+02  0.47000000000E+01 0.  1.
         11    1    6    6    0    0  0.65355773850E+02 -0.64408925189E+02  0.56406823881E+02  0.10771080076E+03  0.00000000000E+00 0. -1.
        -12    1    6    6    0    0  0.36667230522E+02 -0.43887738425E+02  0.14048466081E+03  0.15167913271E+03  0.00000000000E+00 0.  1.
</event>
<event>
12    1  0.1066489E+000  0.1836209E+03  0.7818608E-02  0.1164388E+00
         21   -1    0    0  501  502  0.00000000000E+00  0.00000000000E+00  0.70018647670E+03  0.70018647670E+03  0.00000000000E+00 0. -1.
         21   -1    0    0  502  503 -0.00000000000E+00 -0.00000000000E+00 -0.49430065095E+02  0.49430065095E+02  0.00000000000E+00 0. -1.
         -6    2    1    2    0  503  0.41396584731E+02  0.41093516400E+02  0.38659016295E+03  0.42790168972E+03  0.17391247124E+03 0.  0.
        -24    2    3    3    0    0  0.19400144905E+02  0.47472028361E+02  0.92041202053E+02  0.13242629456E+03  0.80219583115E+02 0.  0.
          6    2    1    2  501    0 -0.41396584731E+02 -0.41093516400E+02  0.26416624866E+03  0.32171485208E+03  0.17410997905E+03 0.  0.
         24    2    5    5    0    0 -0.32181585306E+02  0.36248855325E+02  0.18425000881E+03  0.21002127989E+03  0.88381210186E+02 0.  0.
          5    1    5    5  501    0 -0.92149994252E+01 -0.77342371725E+02  0.79916239849E+02  0.11169357220E+03  0.47000000000E+01 0. -1.
        -13    1    6    6    0    0  0.73153544280E+01  0.56074547739E+02  0.10694414177E+03  0.12097486835E+03  0.00000000000E+00 0.  1.
         14    1    6    6    0    0 -0.39496939734E+02 -0.19825692414E+02  0.77305867043E+02  0.89046411535E+02  0.00000000000E+00 0. -1.
         -5    1    3    3    0  503  0.21996439827E+02 -0.63785119610E+01  0.29454896090E+03  0.29547539516E+03  0.47000000000E+01 0.  1.
         11    1    4    4    0    0 -0.30182431201E+02  0.24914760613E+02  0.50667167095E+02  0.64022545021E+02  0.00000000000E+00 0. -1.
        -12    1    4    4    0    0  0.49582576106E+02  0.22557267748E+02  0.41374034959E+02  0.68403749534E+02  0.00000000000E+00 0.  1.
</event>
<event>
12    1  0.1066489E+000  0.2257391E+03  0.7818608E-02  0.1129744E+00
         21   -1    0    0  503  502  0.00000000000E+00  0.00000000000E+00  0.16679838177E+03  0.16679838177E+03  0.00000000000E+00 0.  1.
         21   -1    0    0  501  503 -0.00000000000E+00 -0.00000000000E+00 -0.99561698528E+03  0.99561698528E+03  0.00000000000E+00 0. -1.
          6    2    1    2  501    0 -0.13216001265E+03 -0.59404244679E+02 -0.89858642447E+03  0.92650725691E+03  0.17309824271E+03 0.  0.
         24    2    3    3    0    0 -0.15824418380E+03 -0.36499827280E+02 -0.60084743584E+03  0.62671467583E+03  0.73349741940E+02 0.  0.
         -6    2    1    2    0  502  0.13216001265E+03  0.59404244679E+02  0.69767820960E+02  0.23590811014E+03  0.17259766614E+03 0.  0.
        -24    2    5    5    0    0 -0.46167351320E+01  0.12356795305E+02  0.25646685720E+02  0.84613345519E+02  0.79546597149E+02 0.  0.
          5    1    3    3  501    0  0.26084171148E+02 -0.22904417399E+02 -0.29773898863E+03  0.29979258108E+03  0.47000000000E+01 0. -1.
        -13    1    4    4    0    0 -0.35830073053E+02  0.21719726887E+02 -0.11887027319E+03  0.12603841684E+03  0.00000000000E+00 0.  1.
         14    1    4    4    0    0 -0.12241411074E+03 -0.58219554167E+02 -0.48197716265E+03  0.50067625899E+03  0.00000000000E+00 0. -1.
         -5    1    5    5    0  502  0.13677674778E+03  0.47047449375E+02  0.44121135240E+02  0.15129476462E+03  0.47000000000E+01 0.  1.
         13    1    6    6    0    0  0.17244228681E+02  0.12121689888E+02 -0.23049798286E+02  0.31234467973E+02  0.00000000000E+00 0. -1.
        -14    1    6    6    0    0 -0.21860963813E+02  0.23510541703E+00  0.48696484006E+02  0.53378877545E+02  0.00000000000E+00 0.  1.
</event>
<event>
12    1  0.1066489E+000  0.3074823E+03  0.7818608E-02  0.1081566E+00
         21   -1    0    0  501  502  0.00000000000E+00  0.00000000000E+00  0.71183484736E+02  0.71183484736E+02  0.00000000000E+00 0.  1.
         21   -1    0    0  502  503 -0.00000000000E+00 -0.00000000000E+00 -0.18923178462E+04  0.18923178462E+04  0.00000000000E+00 0.  1.
         -6    2    1    2    0  503  0.21837765468E+03  0.13096812340E+03 -0.37435221625E+03  0.48440568640E+03  0.17224354211E+03 0.  0.
        -24    2    3    3    0    0  0.16738917603E+03  0.15046747945E+03 -0.23717558242E+03  0.33669120265E+03  0.80306353548E+02 0.  0.
          6    2    1    2  501    0 -0.21837765468E+03 -0.13096812340E+03 -0.14467821452E+04  0.14790956445E+04  0.17234819572E+03 0.  0.
         24    2    5    5    0    0 -0.10461754249E+03 -0.96791179478E+02 -0.11057945501E+04  0.11179806259E+04  0.82375544712E+02 0.  0.
          5    1    5    5  501    0 -0.11376011219E+03 -0.34176943917E+02 -0.34098759510E+03  0.36111501857E+03  0.47000000000E+01 0. -1.
        -11    1    6    6    0    0 -0.54336721550E+02 -0.23281004083E+02 -0.70182149119E+03  0.70430667323E+03  0.00000000000E+00 0.  1.
         12    1    6    6    0    0 -0.50280820940E+02 -0.73510175396E+02 -0.40397305890E+03  0.41367395272E+03  0.00000000000E+00 0. -1.
         -5    1    3    3    0  503  0.50988478648E+02 -0.19499356054E+02 -0.13717663383E+03  0.14771448375E+03  0.47000000000E+01 0.  1.
         13    1    4    4    0    0  0.15345053460E+03  0.13336195286E+03 -0.23989903217E+03  0.31445830038E+03  0.00000000000E+00 0. -1.
        -14    1    4    4    0    0  0.13938641430E+02  0.17105526584E+02  0.27234497531E+01  0.22232902266E+02  0.00000000000E+00 0.  1.
</event>
<event>
12    1  0.1066489E+000  0.3243091E+03  0.7818608E-02  0.1073719E+00
         21   -1    0    0  503  502  0.00000000000E+00  0.00000000000E+00  0.51819014238E+03  0.51819014238E+03  0.00000000000E+00 0. -1.
         21   -1    0    0  501  503 -0.00000000000E+00 -0.00000000000E+00 -0.20347262334E+03  0.20347262334E+03  0.00000000000E+00 0. -1.
          6    2    1    2  501    0  0.43017467418E+02  0.27117068587E+03  0.13609880161E+03  0.35141821173E+03  0.17201114020E+03 0.  0.
         24    2    3    3    0    0  0.69021723642E+02  0.95884578237E+02  0.32314450861E+02  0.14600467193E+03  0.79468797730E+02 0.  0.
         -6    2    1    2    0  502 -0.43017467418E+02 -0.27117068587E+03  0.17861871743E+03  0.37024455400E+03  0.17260457748E+03 0.  0.
        -24    2    5    5    0    0 -0.81310583596E+02 -0.25175616539E+03  0.12324664146E+03  0.30002031922E+03  0.69497334475E+02 0.  0.
          5    1    3    3  501    0 -0.26004256224E+02  0.17528610764E+03  0.10378435075E+03  0.20541353980E+03  0.47000000000E+01 0. -1.
        -13    1    4    4    0    0  0.86741483589E+02  0.72797136227E+02  0.27084842866E+02  0.11643494635E+03  0.00000000000E+00 0.  1.
         14    1    4    4    0    0 -0.17719759947E+02  0.23087442010E+02  0.52296079955E+01  0.29569725581E+02  0.00000000000E+00 0. -1.
         -5    1    5    5    0  502  0.38293116177E+02 -0.19414520487E+02  0.55372075971E+02  0.70224234775E+02  0.47000000000E+01 0.  1.
         11    1    6    6    0    0 -0.64659638385E+02 -0.13390602556E+03  0.37578883902E+02  0.15337491657E+03  0.00000000000E+00 0. -1.
        -12    1    6    6    0    0 -0.16650945210E+02 -0.11785013983E+03  0.85667757561E+02  0.14664540266E+03  0.00000000000E+00 0.  1.
</event>
<event>
12    1  0.1066489E+000  0.2217734E+03  0.7818608E-02  0.1132574E+00
         21   -1    0    0  501  502  0.00000000000E+00  0.00000000000E+00  0.69973654615E+02  0.69973654615E+02  0.00000000000E+00 0. -1.
         21   -1    0    0  502  503 -0.00000000000E+00 -0.00000000000E+00 -0.73840318448E+03  0.73840318448E+03  0.00000000000E+00 0. -1.
         -6    2    1    2    0  503  0.13385708030E+03 -0.39252819212E+02 -0.42302791828E+03  0.47763591353E+03  0.17240923551E+03 0.  0.
        -24    2    3    3    0    0  0.41286180945E+02  0.41210485706E+02 -0.17948231310E+03  0.20490845498E+03  0.79816798590E+02 0.  0.
          6    2    1    2  501    0 -0.13385708030E+03  0.39252819212E+02 -0.24540161158E+03  0.33074092556E+03  0.17236329978E+03 0.  0.
         24    2    5    5    0    0 -0.15635908670E+03  0.22333023158E+02 -0.24515725099E+03  0.30219675798E+03  0.79207795717E+02 0.  0.
          5    1    5    5  501    0  0.22502006404E+02  0.16919796054E+02 -0.24436058835E+00  0.28544167579E+02  0.47000000000E+01 0. -1.
        -11    1    6    6    0    0 -0.83540462891E+02  0.51561888824E+02 -0.13243618442E+03  0.16485442142E+03  0.00000000000E+00 0.  1.
         12    1    6    6    0    0 -0.72818623810E+02 -0.29228865666E+02 -0.11272106657E+03  0.13734233656E+03  0.00000000000E+00 0. -1.
         -5    1    3    3    0  503  0.92570899352E+02 -0.80463304918E+02 -0.24354560519E+03  0.27272745856E+03  0.47000000000E+01 0.  1.
         11    1    4    4    0    0 -0.49369612609E+01  0.61271140646E+00  0.69731786193E+01  0.85658754261E+01  0.00000000000E+00 0. -1.
        -12    1    4    4    0    0  0.46223142206E+02  0.40597774300E+02 -0.18645549172E+03  0.19634257955E+03  0.00000000000E+00 0.  1.
</event>
<event>
12    1  0.1066489E+000  0.1911539E+03  0.7818608E-02  0.1158716E+00
         21   -1    0    0  501  502  0.00000000000E+00  0.00000000000E+00  0.93024690026E+02  0.93024690026E+02  0.00000000000E+00 0. -1.
         21   -1    0    0  502  503 -0.00000000000E+00 -0.00000000000E+00 -0.97937680494E+03  0.97937680494E+03  0.00000000000E+00 0.  1.
         -6    2    1    2    0  503 -0.12678296142E+02 -0.73592745576E+02 -0.21544000098E+02  0.18671933046E+03  0.16977435917E+03 0.  0.
        -24    2    3    3    0    0 -0.61122317878E+02 -0.25037536870E+02  0.21982842751E+02  0.10534914192E+03  0.79071994612E+02 0.  0.
          6    2    1    2  501    0  0.12678296142E+02  0.73592745576E+02 -0.86480811481E+03  0.88568216450E+03  0.17596360329E+03 0.  0.
         24    2    5    5    0    0  0.52133388536E+02 -0.67602444586E+01 -0.33055175121E+03  0.34395782559E+03  0.79239727735E+02 0.  0.
          5    1    5    5  501    0 -0.39455092394E+02  0.80352990035E+02 -0.53425636360E+03  0.54172433891E+03  0.47000000000E+01 0. -1.
        -11    1    6    6    0    0  0.75755939932E+01 -0.30588059582E+02 -0.22196072218E+03  0.22418648756E+03  0.00000000000E+00 0.  1.
         12    1    6    6    0    0  0.44557794543E+02  0.23827815124E+02 -0.10859102903E+03  0.11977133803E+03  0.00000000000E+00 0. -1.
         -5    1    3    3    0  503  0.48444021736E+02 -0.48555208707E+02 -0.43526842849E+02  0.81370188539E+02  0.47000000000E+01 0.  1.
         13    1    4    4    0    0 -0.60700313881E+02 -0.28773804451E+02 -0.14459413973E+02  0.68713423582E+02  0.00000000000E+00 0. -1.
        -14    1    4    4    0    0 -0.42200399689E+00  0.37362675817E+01  0.36442256724E+02  0.36635718335E+02  0.00000000000E+00 0.  1.
</event>
<event>
12    1  0.1066489E+000  0.2917197E+03  0.7818608E-02  0.1089536E+00
         21   -1    0    0  503  502  0.00000000000E+00  0.00000000000E+00  0.48084044173E+03  0.48084044173E+03  0.00000000000E+00 0. -1.
         21   -1    0    0  501  503 -0.00000000000E+00 -0.00000000000E+00 -0.19977921911E+03  0.19977921911E+03  0.00000000000E+00 0. -1.
          6    2    1    2  501    0  0.50090135584E+02  0.22995551421E+03  0.25658013362E+03  0.38850191861E+03  0.17237115650E+03 0.  0.
         24    2    3    3    0    0  0.32690280793E+02  0.19604670099E+03  0.27298953765E+03  0.34674163722E+03  0.78762376116E+02 0.  0.
         -6    2    1    2    0  502 -0.50090135584E+02 -0.22995551421E+03  0.24481088997E+02  0.29211774224E+03  0.17130350671E+03 0.  0.
        -24    2    5    5    0    0 -0.75802731897E+02 -0.14966788722E+03  0.64665238838E+02  0.19860786813E+03  0.84362085915E+02 0.  0.
          5    1    3    3  501    0  0.17399854791E+02  0.33908813226E+02 -0.16409404026E+02  0.41760281388E+02  0.47000000000E+01 0. -1.
        -11    1    4    4    0    0  0.42592367657E+02  0.10542954856E+03  0.10099472341E+03  0.15208364030E+03  0.00000000000E+00 0.  1.
         12    1    4    4    0    0 -0.99020868636E+01  0.90617152429E+02  0.17199481424E+03  0.19465799692E+03  0.00000000000E+00 0. -1.
         -5    1    5    5    0  502  0.25712596313E+02 -0.80287626993E+02 -0.40184149841E+02  0.93509874109E+02  0.47000000000E+01 0.  1.
         11    1    6    6    0    0 -0.64940781073E+02 -0.80295804008E+02  0.17658641208E+00  0.10327028794E+03  0.00000000000E+00 0. -1.
        -12    1    6    6    0    0 -0.10861950824E+02 -0.69372083211E+02  0.64488652426E+02  0.95337580190E+02  0.00000000000E+00 0.  1.
</event>
<event>
12    1  0.1066489E+000  0.2390828E+03  0.7818608E-02  0.1121439E+00
         21   -1    0    0  503  502  0.00000000000E+00  0.00000000000E+00  0.10122571710E+03  0.10122571710E+03  0.00000000000E+00 0.  1.
         21   -1    0    0  501  503 -0.00000000000E+00 -0.00000000000E+00 -0.15775784660E+04  0.15775784660E+04  0.00000000000E+00 0. -1.
          6    2    1    2  501    0 -0.15932588752E+03  0.15802617225E+02 -0.64189363592E+02  0.24754970845E+03  0.17755597036E+03 0.  0.
         24    2    3    3    0    0 -0.17138155160E+03 -0.29511207458E+02 -0.54854858374E+02  0.19950905139E+03  0.80946022160E+02 0.  0.
         -6    2    1    2    0  502  0.15932588752E+03 -0.15802617225E+02 -0.14121633853E+04  0.14312544746E+04  0.16926158234E+03 0.  0.
        -24    2    5    5    0    0  0.42659455891E+02 -0.58714832822E+02 -0.61546965626E+03  0.62490746348E+03  0.80244497425E+02 0.  0.
          5    1    3    3  501    0  0.12055664078E+02  0.45313824683E+02 -0.93345052186E+01  0.48040657068E+02  0.47000000000E+01 0. -1.
        -11    1    4    4    0    0 -0.41218345769E+02  0.27005500037E+02 -0.71032703249E+01  0.49786599698E+02  0.00000000000E+00 0.  1.
         12    1    4    4    0    0 -0.13016320583E+03 -0.56516707496E+02 -0.47751588049E+02  0.14972245169E+03  0.00000000000E+00 0. -1.
         -5    1    5    5    0  502  0.11666643163E+03  0.42912215597E+02 -0.79669372901E+03  0.80634701113E+03  0.47000000000E+01 0.  1.
         11    1    6    6    0    0 -0.61122466574E+01  0.17026924165E+02 -0.10743015376E+03  0.10894270807E+03  0.00000000000E+00 0. -1.
        -12    1    6    6    0    0  0.48771702548E+02 -0.75741756987E+02 -0.50803950250E+03  0.51596475541E+03  0.00000000000E+00 0.  1.
</event>
<event>
12    1  0.1066489E+000  0.1747220E+03  0.7818608E-02  0.1173345E+00
         21   -1    0    0  503  502  0.00000000000E+00  0.00000000000E+00  0.18257213695E+03  0.18257213695E+03  0.00000000000E+00 0. -1.
         21   -1    0    0  501  503 -0.00000000000E+00 -0.00000000000E+00 -0.42893816652E+03  0.42893816652E+03  0.00000000000E+00 0. -1.
          6    2    1    2  501    0 -0.12989619065E+02 -0.21700860589E+02  0.11640912444E+03  0.20885214502E+03  0.17154730156E+03 0.  0.
         24    2    3    3    0    0 -0.26166458739E+02 -0.58825108767E+02  0.13066108377E+03  0.16669710675E+03  0.81058803367E+02 0.  0.
         -6    2    1    2    0  502  0.12989619065E+02  0.21700860589E+02 -0.36277515401E+03  0.40265815845E+03  0.17288181698E+03 0.  0.
        -24    2    5    5    0    0 -0.48128036999E+02 -0.20175577064E+02 -0.16944696406E+03  0.19556667397E+03  0.82526895513E+02 0.  0.
          5    1    3    3  501    0  0.13176839675E+02  0.37124248178E+02 -0.14251959332E+02  0.42155038268E+02  0.47000000000E+01 0. -1.
        -13    1    4    4    0    0 -0.41996901625E+02 -0.48927992208E+01  0.31541642962E+02  0.52749923896E+02  0.00000000000E+00 0.  1.
         14    1    4    4    0    0  0.15830442885E+02 -0.53932309546E+02  0.99119440806E+02  0.11394718286E+03  0.00000000000E+00 0. -1.
         -5    1    5    5    0  502  0.61117656064E+02  0.41876437653E+02 -0.19332818996E+03  0.20709148448E+03  0.47000000000E+01 0.  1.
         13    1    6    6    0    0 -0.17553624874E+02 -0.48421416191E+02 -0.63667652532E+02  0.81892205191E+02  0.00000000000E+00 0. -1.
        -14    1    6    6    0    0 -0.30574412126E+02  0.28245839127E+02 -0.10577931152E+03  0.11367446878E+03  0.00000000000E+00 0.  1.
</event>
<event>
12    1  0.1066489E+000  0.3066008E+03  0.7818608E-02  0.1082142E+00
         21   -1    0    0  503  502  0.00000000000E+00  0.00000000000E+00  0.12469759457E+04  0.12469759457E+04  0.00000000000E+00 0. -1.
         21   -1    0    0  501  503 -0.00000000000E+00 -0.00000000000E+00 -0.91186516233E+02  0.91186516233E+02  0.00000000000E+00 0. -1.
          6    2    1    2  501    0  0.23308786096E+03  0.10039917873E+03  0.86015971086E+03  0.91316963760E+03  0.17202939525E+03 0.  0.
         24    2    3    3    0    0  0.19691075795E+03  0.30735713059E+02  0.73167605778E+03  0.76253126154E+03  0.79909577970E+02 0.  0.
         -6    2    1    2    0  502 -0.23308786096E+03 -0.10039917873E+03  0.29562971861E+03  0.42499282434E+03  0.16974105042E+03 0.  0.
        -24    2    5    5    0    0 -0.39537589410E+02 -0.11945879277E+02  0.61965165369E+02  0.10891228517E+03  0.79475022074E+02 0.  0.
          5    1    3    3  501    0  0.36177103011E+02  0.69663465670E+02  0.12848365309E+03  0.15063837606E+03  0.47000000000E+01 0. -1.
        -11    1    4    4    0    0  0.12764823881E+03  0.45264401757E+02  0.57300309214E+03  0.58879154422E+03  0.00000000000E+00 0.  1.
         12    1    4    4    0    0  0.69262519136E+02 -0.14528688697E+02  0.15867296563E+03  0.17373971732E+03  0.00000000000E+00 0. -1.
         -5    1    5    5    0  502 -0.19355027155E+03 -0.88453299452E+02  0.23366455324E+03  0.31608053917E+03  0.47000000000E+01 0.  1.
         13    1    6    6    0    0 -0.20897761888E+02 -0.40511988841E+02  0.59163600241E+02  0.74687812160E+02  0.00000000000E+00 0. -1.
        -14    1    6    6    0    0 -0.18639827522E+02  0.28566109564E+02  0.28015651289E+01  0.34224473011E+02  0.00000000000E+00 0.  1.
</event>
<event>
12    1  0.1066489E+000  0.2254733E+03  0.7818608E-02  0.1130054E+00
         21   -1    0    0  501  502  0.00000000000E+00  0.00000000000E+00  0.20267383623E+03  0.20267383623E+03  0.00000000000E+00 0. -1.
         21   -1    0    0  502  503 -0.00000000000E+00 -0.00000000000E+00 -0.34215559731E+03  0.34215559731E+03  0.00000000000E+00 0.  1.
         -6    2    1    2    0  503  0.43546063969E+02  0.13858129955E+03  0.71988639910E+02  0.23570495216E+03  0.17109478052E+03 0.  0.
        -24    2    3    3    0    0 -0.94826335885E+01  0.87990797584E+02  0.10185116667E+03  0.15642505459E+03  0.79138086609E+02 0.  0.
          6    2    1    2  501    0 -0.43546063969E+02 -0.13858129955E+03 -0.21147040099E+03  0.30912448138E+03  0.17244471062E+03 0.  0.
         24    2    5    5    0    0  0.41970536085E+02 -0.83489788351E+02 -0.11449143793E+03  0.16850025598E+03  0.80944278670E+02 0.  0.
          5    1    5    5  501    0 -0.85516600054E+02 -0.55091511204E+02 -0.96978963062E+02  0.14062422540E+03  0.47000000000E+01 0. -1.
        -13    1    6    6    0    0 -0.27553690293E+01  0.11995551008E+02 -0.33055020072E+02  0.35272080381E+02  0.00000000000E+00 0.  1.
         14    1    6    6    0    0  0.44725905114E+02 -0.95485339359E+02 -0.81436417855E+02  0.13322817560E+03  0.00000000000E+00 0. -1.
         -5    1    3    3    0  503  0.53028697558E+02  0.50590501970E+02 -0.29862526758E+02  0.79279897570E+02  0.47000000000E+01 0.  1.
         13    1    4    4    0    0  0.15381487548E+02  0.55994476437E+02  0.10027235183E+03  0.11587284450E+03  0.00000000000E+00 0. -1.
        -14    1    4    4    0    0 -0.24864121136E+02  0.31996321147E+02  0.15788148368E+01  0.40552210089E+02  0.00000000000E+00 0.  1.
</event>
<event>
12    1  0.1066489E+000  0.1824948E+03  0.7818608E-02  0.1165658E+00
         21   -1    0    0  501  502  0.00000000000E+00  0.00000000000E+00  0.10440906823E+03  0.10440906823E+03  0.00000000000E+00 0.  1.
         21   -1    0    0  502  503 -0.00000000000E+00 -0.00000000000E+00 -0.31774787036E+03  0.31774787036E+03  0.00000000000E+00 0.  1.
         -6    2    1    2    0  503  0.40930105023E+02 -0.40678403427E+02 -0.97328656701E+02  0.20591007262E+03  0.17203512603E+03 0.  0.
        -24    2    3    3    0    0 -0.58553132912E+01 -0.12471396100E+02 -0.12176348027E+03  0.14587957011E+03  0.79149753205E+02 0.  0.
          6    2    1    2  501    0 -0.40930105023E+02  0.40678403427E+02 -0.11601014543E+03  0.21624686597E+03  0.17313101165E+03 0.  0.
         24    2    5    5    0    0 -0.63251219008E+02 -0.22411907924E+02 -0.28885760186E+02  0.10628610924E+03  0.77196758695E+02 0.  0.
          5    1    5    5  501    0  0.22321113985E+02  0.63090311351E+02 -0.87124385242E+02  0.10996075673E+03  0.47000000000E+01 0. -1.
        -13    1    6    6    0    0 -0.30415263586E+02  0.58886284209E+00 -0.51827267072E+02  0.60095762169E+02  0.00000000000E+00 0.  1.
         14    1    6    6    0    0 -0.32835955422E+02 -0.23000770767E+02  0.22941506886E+02  0.46190347071E+02  0.00000000000E+00 0. -1.
         -5    1    3    3    0  503  0.46785418314E+02 -0.28207007326E+02  0.24434823568E+02  0.60030502513E+02  0.47000000000E+01 0.  1.
         11    1    4    4    0    0 -0.27345433870E+02 -0.51215529806E+01 -0.67272851329E+01  0.28622708183E+02  0.00000000000E+00 0. -1.
        -12    1    4    4    0    0  0.21490120579E+02 -0.73498431198E+01 -0.11503619514E+03  0.11725686192E+03  0.00000000000E+00 0.  1.
</event>
<event>
12    1  0.1066489E+000  0.3999000E+03  0.7818608E-02  0.1043943E+00
         21   -1    0    0  501  502  0.00000000000E+00  0.00000000000E+00  0.41841179607E+03  0.41841179607E+03  0.00000000000E+00 0. -1.
         21   -1    0    0  502  503 -0.00000000000E+00 -0.00000000000E+00 -0.42810767100E+03  0.42810767100E+03  0.00000000000E+00 0. -1.
         -6    2    1    2    0  503  0.15955570211E+03  0.32242552550E+03  0.13585630368E+03  0.42234695172E+03  0.17465328744E+03 0.  0.
        -24    2    3    3    0    0  0.75852774885E+02  0.20330872478E+03  0.13038185189E+02  0.23181776113E+03  0.80507136779E+02 0.  0.
          6    2    1    2  501    0 -0.15955570211E+03 -0.32242552550E+03 -0.14555217861E+03  0.42417251535E+03  0.17123272032E+03 0.  0.
         24    2    5    5    0    0 -0.87830474159E+02 -0.77720021822E+02 -0.70366215526E+02  0.15827721471E+03  0.79659766673E+02 0.  0.
          5    1    5    5  501    0 -0.71725227954E+02 -0.24470550368E+03 -0.75185963086E+02  0.26589530063E+03  0.47000000000E+01 0. -1.
        -11    1    6    6    0    0 -0.78781114077E+02 -0.87239422769E+02 -0.38305551665E+02  0.12363048212E+03  0.00000000000E+00 0.  1.
         12    1    6    6    0    0 -0.90493600826E+01  0.95194009464E+01 -0.32060663861E+02  0.34646732595E+02  0.00000000000E+00 0. -1.
         -5    1    3    3    0  503  0.83702927228E+02  0.11911680072E+03  0.12281811849E+03  0.19052919060E+03  0.47000000000E+01 0.  1.
         13    1    4    4    0    0  0.62819520104E+02  0.20812978360E+03  0.14240948965E+02  0.21786946449E+03  0.00000000000E+00 0. -1.
        -14    1    4    4    0    0  0.13033254781E+02 -0.48210588266E+01 -0.12027637764E+01  0.13948296638E+02  0.00000000000E+00 0.  1.
</event>
<event>
12    1  0.1066489E+000  0.1767771E+03  0.7818608E-02  0.1171247E+00
         21   -1    0    0  503  502  0.00000000000E+00  0.00000000000E+00  0.38814516402E+02  0.38814516402E+02  0.00000000000E+00 0.  1.
         21   -1    0    0  501  503 -0.00000000000E+00 -0.00000000000E+00 -0.16654624829E+04  0.16654624829E+04  0.00000000000E+00 0.  1.
          6    2    1    2  501    0 -0.10854669291E+02 -0.39308647033E+02 -0.19770293966E+03  0.26443880175E+03  0.17081696035E+03 0.  0.
         24    2    3    3    0    0 -0.25670064313E+02 -0.84428880053E+02 -0.98825446391E+02  0.15464727187E+03  0.79762910268E+02 0.  0.
         -6    2    1    2    0  502  0.10854669291E+02  0.39308647033E+02 -0.14289450269E+04  0.14398381976E+04  0.17200916205E+03 0.  0.
        -24    2    5    5    0    0  0.14806969138E+02  0.44621056639E+02 -0.14287342837E+04  0.14317155882E+04  0.79483250777E+02 0.  0.
          5    1    3    3  501    0  0.14815395023E+02  0.45120233020E+02 -0.98877493270E+02  0.10979152988E+03  0.47000000000E+01 0. -1.
        -11    1    4    4    0    0  0.14005400144E+02  0.75118432984E+01 -0.27302781327E+02  0.31591468644E+02  0.00000000000E+00 0.  1.
         12    1    4    4    0    0 -0.39675464457E+02 -0.91940723351E+02 -0.71522665064E+02  0.12305580323E+03  0.00000000000E+00 0. -1.
         -5    1    5    5    0  502 -0.39522998471E+01 -0.53124096063E+01 -0.21074316975E+00  0.81226093461E+01  0.47000000000E+01 0.  1.
         11    1    6    6    0    0  0.70731396549E+01  0.63243095793E+02 -0.75421021366E+03  0.75689019339E+03  0.00000000000E+00 0. -1.
        -12    1    6    6    0    0  0.77338294827E+01 -0.18622039153E+02 -0.67452407003E+03  0.67482539483E+03  0.00000000000E+00 0.  1.
</event>
<event>
12    1  0.1066489E+000  0.2215626E+03  0.7818608E-02  0.1133234E+00
         21   -1    0    0  503  502  0.00000000000E+00  0.00000000000E+00  0.54880627707E+03  0.54880627707E+03  0.00000000000E+00 0. -1.
         21   -1    0    0  501  503 -0.00000000000E+00 -0.00000000000E+00 -0.13116399185E+03  0.13116399185E+03  0.00000000000E+00 0. -1.
          6    2    1    2  501    0 -0.11442705911E+03  0.79691185795E+02  0.40395453036E+03  0.46072688656E+03  0.17217945421E+03 0.  0.
         24    2    3    3    0    0 -0.43630369257E+02 -0.14808533373E+02  0.24981472154E+03  0.26650140193E+03  0.80577294262E+02 0.  0.
         -6    2    1    2    0  502  0.11442705911E+03 -0.79691185795E+02  0.13687754853E+02  0.21924338236E+03  0.16862997694E+03 0.  0.
        -24    2    5    5    0    0  0.13219619043E+02 -0.38925347673E+02 -0.38099879273E+02  0.98376312681E+02  0.80847740086E+02 0.  0.
          5    1    3    3  501    0 -0.70796689856E+02  0.94499719168E+02  0.15413980882E+03  0.19422548463E+03  0.47000000000E+01 0. -1.
        -11    1    4    4    0    0  0.27167344124E+01  0.28951465884E+02  0.78189921049E+02  0.83422010143E+02  0.00000000000E+00 0.  1.
         12    1    4    4    0    0 -0.46347103669E+02 -0.43759999257E+02  0.17162480049E+03  0.18307939178E+03  0.00000000000E+00 0. -1.
         -5    1    5    5    0  502  0.10120744007E+03 -0.40765838122E+02  0.51787634126E+02  0.12086706967E+03  0.47000000000E+01 0.  1.
         11    1    6    6    0    0  0.29530691359E+02  0.14384195103E+02 -0.41635527830E+01  0.33110451110E+02  0.00000000000E+00 0. -1.
        -12    1    6    6    0    0 -0.16311072316E+02 -0.53309542776E+02 -0.33936326490E+02  0.65265861572E+02  0.00000000000E+00 0.  1.
</event>
<event>
12    1  0.1066489E+000  0.3399761E+03  0.7818608E-02  0.1066810E+00
         21   -1    0    0  503  502  0.00000000000E+00  0.00000000000E+00  0.13336496690E+03  0.13336496690E+03  0.00000000000E+00 0.  1.
         21   -1    0    0  501  503 -0.00000000000E+00 -0.00000000000E+00 -0.86823199547E+03  0.86823199547E+03  0.00000000000E+00 0.  1.
          6    2    1    2  501    0 -0.28693941972E+03  0.60626420903E+02 -0.38930930472E+03  0.51683526483E+03  0.17189288158E+03 0.  0.
         24    2    3    3    0    0 -0.11518631928E+03  0.32328568837E+01 -0.79709921201E+02  0.15813341514E+03  0.73308702983E+02 0.  0.
         -6    2    1    2    0  502  0.28693941972E+03 -0.60626420903E+02 -0.34555772386E+03  0.48476169754E+03  0.17197083876E+03 0.  0.
        -24    2    5    5    0    0  0.26328311414E+03 -0.64903833651E+01 -0.25096338994E+03  0.37313504587E+03  0.82988047908E+02 0.  0.
          5    1    3    3  501    0 -0.17175310043E+03  0.57393564020E+02 -0.30959938352E+03  0.35870184969E+03  0.47000000000E+01 0. -1.
        -13    1    4    4    0    0 -0.11107131703E+03 -0.16195824806E+02 -0.80706695662E+02  0.13824873573E+03  0.00000000000E+00 0.  1.
         14    1    4    4    0    0 -0.41150022534E+01  0.19428681690E+02  0.99677446138E+00  0.19884679406E+02  0.00000000000E+00 0. -1.
         -5    1    5    5    0  502  0.23656305572E+02 -0.54136037538E+02 -0.94594333917E+02  0.11162665167E+03  0.47000000000E+01 0.  1.
         11    1    6    6    0    0  0.14501360257E+03  0.36647245074E+02 -0.14911281224E+03  0.21120273737E+03  0.00000000000E+00 0. -1.
        -12    1    6    6    0    0  0.11826951158E+03 -0.43137628439E+02 -0.10185057771E+03  0.16193230850E+03  0.00000000000E+00 0.  1.
</event>
<event>
12    1  0.1066489E+000  0.2144738E+03  0.7818608E-02  0.1138152E+00
         21   -1    0    0  501  502  0.00000000000E+00  0.00000000000E+00  0.60134258380E+03  0.60134258380E+03  0.00000000000E+00 0. -1.
         21   -1    0    0  502  503 -0.00000000000E+00 -0.00000000000E+00 -0.91384098547E+02  0.91384098547E+02  0.00000000000E+00 0. -1.
         -6    2    1    2    0  503  0.88209374601E+01  0.12699962879E+03  0.11467517797E+03  0.24320652797E+03  0.17260447316E+03 0.  0.
        -24    2    3    3    0    0  0.53275462277E+02  0.45016529227E+02  0.29703918901E+01  0.97612975143E+02  0.68225412449E+02 0.  0.
          6    2    1    2  501    0 -0.88209374601E+01 -0.12699962879E+03  0.39528330728E+03  0.44952015438E+03  0.17208358878E+03 0.  0.
         24    2    5    5    0    0 -0.36350866812E+02 -0.10702033343E+03  0.38626572701E+03  0.41401697133E+03  0.97129312737E+02 0.  0.
          5    1    5    5  501    0  0.27529929352E+02 -0.19979295358E+02  0.90175802659E+01  0.35503183054E+02  0.47000000000E+01 0. -1.
        -13    1    6    6    0    0 -0.61750769523E+02 -0.90569554658E+02  0.22922161869E+03  0.25408375045E+03  0.00000000000E+00 0.  1.
         14    1    6    6    0    0  0.25399902711E+02 -0.16450778775E+02  0.15704410833E+03  0.15993322088E+03  0.00000000000E+00 0. -1.
         -5    1    3    3    0  503 -0.44454524817E+02  0.81983099564E+02  0.11170478608E+03  0.14559355283E+03  0.47000000000E+01 0.  1.
         13    1    4    4    0    0 -0.83190196653E+01 -0.35732947635E+01  0.15710222221E+02  0.18132446219E+02  0.00000000000E+00 0. -1.
        -14    1    4    4    0    0  0.61594481942E+02  0.48589823990E+02 -0.12739830331E+02  0.79480528924E+02  0.00000000000E+00 0.  1.
</event>
<event>
12    1  0.1066489E+000  0.3741433E+03  0.7818608E-02  0.1053134E+00
         21   -1    0    0  503  502  0.00000000000E+00  0.00000000000E+00  0.81138273072E+03  0.81138273072E+03  0.00000000000E+00 0.  1.
         21   -1    0    0  501  503 -0.00000000000E+00 -0.00000000000E+00 -0.19267780811E+03  0.19267780811E+03  0.00000000000E+00 0.  1.
          6    2    1    2  501    0  0.29312211911E+03 -0.15601106966E+03  0.47194611179E+03  0.60216334071E+03  0.17206837566E+03 0.  0.
         24    2    3    3    0    0  0.25868518323E+03 -0.13182810058E+03  0.47172467968E+03  0.55982119176E+03  0.81110549215E+02 0.  0.
         -6    2    1    2    0  502 -0.29312211911E+03  0.15601106966E+03  0.14675881082E+03  0.40189719811E+03  0.17240411458E+03 0.  0.
        -24    2    5    5    0    0 -0.18687201953E+03  0.90302358819E+02  0.16277809263E+03  0.27585979996E+03  0.80785234442E+02 0.  0.
          5    1    3    3  501    0  0.34436935878E+02 -0.24182969076E+02  0.22143210572E+00  0.42342148956E+02  0.47000000000E+01 0. -1.
        -13    1    4    4    0    0  0.16460260531E+03 -0.38731015608E+02  0.26470593754E+03  0.31410721516E+03  0.00000000000E+00 0.  1.
         14    1    4    4    0    0  0.94082577921E+02 -0.93097084974E+02  0.20701874214E+03  0.24571397660E+03  0.00000000000E+00 0. -1.
         -5    1    5    5    0  502 -0.10625009958E+03  0.65708710839E+02 -0.16019281810E+02  0.12603739814E+03  0.47000000000E+01 0.  1.
         11    1    6    6    0    0 -0.16026001914E+03  0.48533966080E+02  0.96975287251E+02  0.19350200499E+03  0.00000000000E+00 0. -1.
        -12    1    6    6    0    0 -0.26612000390E+02  0.41768392740E+02  0.65802805383E+02  0.82357794975E+02  0.00000000000E+00 0.  1.
</event>
<event>
12    1  0.1066489E+000  0.2048670E+03  0.7818608E-02  0.1145889E+00
         21   -1    0    0  503  502  0.00000000000E+00  0.00000000000E+00  0.23975798722E+03  0.23975798722E+03  0.00000000000E+00 0. -1.
         21   -1    0    0  501  503 -0.00000000000E+00 -0.00000000000E+00 -0.17599677550E+03  0.17599677550E+03  0.00000000000E+00 0. -1.
          6    2    1    2  501    0  0.66815077579E+02 -0.88983371647E+02  0.11253338138E+02  0.20517581765E+03  0.17201216093E+03 0.  0.
         24    2    3    3    0    0  0.75590014912E+02 -0.75726250141E+02  0.64221687856E+02  0.14967368375E+03  0.82640614110E+02 0.  0.
         -6    2    1    2    0  502 -0.66815077579E+02  0.88983371647E+02  0.52507873584E+02  0.21057894507E+03  0.17089213059E+03 0.  0.
        -24    2    5    5    0    0 -0.70023589645E+02 -0.20541774737E+01  0.16394436328E+01  0.10613844974E+03  0.79719257313E+02 0.  0.
          5    1    3    3  501    0 -0.87749373338E+01 -0.13257121506E+02 -0.52968349718E+02  0.55502133902E+02  0.47000000000E+01 0. -1.
        -11    1    4    4    0    0  0.56495364650E+02 -0.70713731568E+02  0.89141641245E+01  0.90948449032E+02  0.00000000000E+00 0.  1.
         12    1    4    4    0    0  0.19094650262E+02 -0.50125185726E+01  0.55307523732E+02  0.58725234716E+02  0.00000000000E+00 0. -1.
         -5    1    5    5    0  502  0.32085120662E+01  0.91037549121E+02  0.50868429951E+02  0.10444049533E+03  0.47000000000E+01 0.  1.
         13    1    6    6    0    0 -0.15032710423E+02  0.31834682303E+02  0.17948568211E+02  0.39516837941E+02  0.00000000000E+00 0. -1.
        -14    1    6    6    0    0 -0.54990879222E+02 -0.33888859777E+02 -0.16309124578E+02  0.66621611802E+02  0.00000000000E+00 0.  1.
</event>
<event>
12    1  0.1066489E+000  0.2306250E+03  0.7818608E-02  0.1126242E+00
         21   -1    0    0  501  502  0.00000000000E+00  0.00000000000E+00  0.92481857529E+03  0.92481857529E+03  0.00000000000E+00 0. -1.
         21   -1    0    0  502  503 -0.00000000000E+00 -0.00000000000E+00 -0.57992510956E+02  0.57992510956E+02  0.00000000000E+00 0. -1.
         -6    2    1    2    0  503  0.61476947167E+02 -0.14115634841E+03  0.38581801535E+03  0.44937257273E+03  0.17139322749E+03 0.  0.
        -24    2    3    3    0    0  0.66492242782E+02 -0.16158472010E+03  0.38179940037E+03  0.42744745412E+03  0.80060625737E+02 0.  0.
          6    2    1    2  501    0 -0.61476947167E+02  0.14115634841E+03  0.48100804899E+03  0.53343851351E+03  0.17170723565E+03 0.  0.
         24    2    5    5    0    0 -0.88884976738E+02  0.15606278623E+03  0.38945067361E+03  0.43659717441E+03  0.81787121177E+02 0.  0.
          5    1    5    5  501    0  0.27408029571E+02 -0.14906437814E+02  0.91557375382E+02  0.96841339107E+02  0.47000000000E+01 0. -1.
        -11    1    6    6    0    0 -0.91102950343E+02  0.80578678218E+02  0.24981702045E+03  0.27785106559E+03  0.00000000000E+00 0.  1.
         12    1    6    6    0    0  0.22179736058E+01  0.75484108009E+02  0.13963365316E+03  0.15874610882E+03  0.00000000000E+00 0. -1.
         -5    1    3    3    0  503 -0.50152956153E+01  0.20428371687E+02  0.40186149792E+01  0.21925118614E+02  0.47000000000E+01 0.  1.
         13    1    4    4    0    0  0.21636451863E+02 -0.12992139958E+03  0.31184797024E+03  0.33852158374E+03  0.00000000000E+00 0. -1.
        -14    1    4    4    0    0  0.44855790919E+02 -0.31663320517E+02  0.69951430130E+02  0.88925870378E+02  0.00000000000E+00 0.  1.
</event>
<event>
12    1  0.1066489E+000  0.2409382E+03  0.7818608E-02  0.1119184E+00
         21   -1    0    0  503  502  0.00000000000E+00  0.00000000000E+00  0.81342222077E+03  0.81342222077E+03  0.00000000000E+00 0. -1.
         21   -1    0    0  501  503 -0.00000000000E+00 -0.00000000000E+00 -0.14285944419E+03  0.14285944419E+03  0.00000000000E+00 0.  1.
          6    2    1    2  501    0 -0.40119824529E+02  0.16366324437E+03  0.67355770016E+03  0.71532481155E+03  0.17208821195E+03 0.  0.
         24    2    3    3    0    0 -0.13124242043E+02  0.23549671100E+02  0.15758249553E+03  0.17996224592E+03  0.82627684942E+02 0.  0.
         -6    2    1    2    0  502  0.40119824529E+02 -0.16366324437E+03 -0.29949235785E+01  0.24095685342E+03  0.17220911058E+03 0.  0.
        -24    2    5    5    0    0 -0.21592507413E+01 -0.13757723841E+03 -0.56514992883E+02  0.16778248816E+03  0.77619971798E+02 0.  0.
          5    1    3    3  501    0 -0.26995582486E+02  0.14011357326E+03  0.51597520463E+03  0.53536256563E+03  0.47000000000E+01 0. -1.
        -13    1    4    4    0    0  0.23033689218E+02 -0.98720244888E+01  0.15207282543E+02  0.29313293040E+02  0.00000000000E+00 0.  1.
         14    1    4    4    0    0 -0.36157931261E+02  0.33421695589E+02  0.14237521299E+03  0.15064895288E+03  0.00000000000E+00 0. -1.
         -5    1    5    5    0  502  0.42279075271E+02 -0.26086005959E+02  0.53520069304E+02  0.73174365258E+02  0.47000000000E+01 0.  1.
         13    1    6    6    0    0  0.51953108618E+01 -0.13386385104E+03 -0.26374460908E+02  0.13653620055E+03  0.00000000000E+00 0. -1.
        -14    1    6    6    0    0 -0.73545616030E+01 -0.37133873624E+01 -0.30140531974E+02  0.31246287616E+02  0.00000000000E+00 0.  1.
</event>
<event>
12    1  0.1066489E+000  0.2148955E+03  0.7818608E-02  0.1138129E+00
         21   -1    0    0  503  502  0.00000000000E+00  0.00000000000E+00  0.39286471760E+03  0.39286471760E+03  0.00000000000E+00 0. -1.
         21   -1    0    0  501  503 -0.00000000000E+00 -0.00000000000E+00 -0.11815351352E+03  0.11815351352E+03  0.00000000000E+00 0. -1.
          6    2    1    2  501    0  0.14423283001E+02 -0.12870447346E+03  0.10746405602E+03  0.24026779260E+03  0.17148532369E+03 0.  0.
         24    2    3    3    0    0 -0.96081476707E+01 -0.71370126832E+02  0.13405499386E+03  0.17248944105E+03  0.81214865577E+02 0.  0.
         -6    2    1    2    0  502 -0.14423283001E+02  0.12870447346E+03  0.16724714806E+03  0.27075043852E+03  0.16900094332E+03 0.  0.
        -24    2    5    5    0    0 -0.53883990329E+02  0.22656045161E+02  0.92199642357E+02  0.13489156071E+03  0.79234956329E+02 0.  0.
          5    1    3    3  501    0  0.24031430672E+02 -0.57334346626E+02 -0.26590937835E+02  0.67778351544E+02  0.47000000000E+01 0. -1.
        -11    1    4    4    0    0  0.20849092369E+02 -0.74855060480E+02  0.91507716554E+02  0.12004843573E+03  0.00000000000E+00 0.  1.
         12    1    4    4    0    0 -0.30457240040E+02  0.34849336481E+01  0.42547277302E+02  0.52441005322E+02  0.00000000000E+00 0. -1.
         -5    1    5    5    0  502  0.39460707328E+02  0.10604842830E+03  0.75047505700E+02  0.13585887781E+03  0.47000000000E+01 0.  1.
         13    1    6    6    0    0  0.81762480744E+01  0.81442426876E+01  0.64284178507E+02  0.65311831454E+02  0.00000000000E+00 0. -1.
        -14    1    6    6    0    0 -0.62060238403E+02  0.14511802473E+02  0.27915463850E+02  0.69579729258E+02  0.00000000000E+00 0.  1.
</event>
<event>
12    1  0.1066489E+000  0.2099508E+03  0.7818608E-02  0.1141750E+00
         21   -1    0    0  501  502  0.00000000000E+00  0.00000000000E+00  0.97009633756E+03  0.97009633756E+03  0.00000000000E+00 0.  1.
         21   -1    0    0  502  503 -0.00000000000E+00 -0.00000000000E+00 -0.54864368254E+02  0.54864368254E+02  0.00000000000E+00 0.  1.
         -6    2    1    2    0  503 -0.18196462800E+02 -0.11765218404E+03  0.24275954505E+03  0.32047615463E+03  0.17204540476E+03 0.  0.
        -24    2    3    3    0    0 -0.58827455890E+02 -0.13265537556E+03  0.19339244758E+03  0.25463411890E+03  0.79873509356E+02 0.  0.
          6    2    1    2  501    0  0.18196462800E+02  0.11765218404E+03  0.67247242426E+03  0.70448455119E+03  0.17293401579E+03 0.  0.
         24    2    5    5    0    0 -0.54084507998E+02  0.49453448479E+02  0.29961039472E+03  0.31857809965E+03  0.79717246450E+02 0.  0.
          5    1    5    5  501    0  0.72280970798E+02  0.68198735564E+02  0.37286202953E+03  0.38590645154E+03  0.47000000000E+01 0. -1.
        -11    1    6    6    0    0 -0.11327118293E+02 -0.15534942485E+02  0.17705706147E+02  0.26136757201E+02  0.00000000000E+00 0.  1.
         12    1    6    6    0    0 -0.42757389705E+02  0.64988390964E+02  0.28190468858E+03  0.29244134245E+03  0.00000000000E+00 0. -1.
         -5    1    3    3    0  503  0.40630993090E+02  0.15003191516E+02  0.49367097478E+02  0.65842035726E+02  0.47000000000E+01 0.  1.
         13    1    4    4    0    0  0.14629460832E+02 -0.56834156453E+02  0.85334028714E+02  0.10356659172E+03  0.00000000000E+00 0. -1.
        -14    1    4    4    0    0 -0.73456916722E+02 -0.75821219106E+02  0.10805841886E+03  0.15106752718E+03  0.00000000000E+00 0.  1.
</event>
<event>
12    1  0.1066489E+000  0.1750684E+03  0.7818608E-02  0.1173126E+00
         21   -1    0    0  503  502  0.00000000000E+00  0.00000000000E+00  0.29989834599E+03  0.29989834599E+03  0.00000000000E+00 0. -1.
         21   -1    0    0  501  503 -0.00000000000E+00 -0.00000000000E+00 -0.11099182907E+03  0.11099182907E+03  0.00000000000E+00 0. -1.
          6    2    1    2  501    0  0.11865329918E+02 -0.18894517679E+02  0.32760749262E+02  0.17630451871E+03  0.17179123311E+03 0.  0.
         24    2    3    3    0    0  0.26802577956E+02  0.49458002649E+02  0.39052192602E+02  0.10589954251E+03  0.80778506712E+02 0.  0.
         -6    2    1    2    0  502 -0.11865329918E+02  0.18894517679E+02  0.15614576766E+03  0.23458565636E+03  0.17364083782E+03 0.  0.
        -24    2    5    5    0    0 -0.12525397801E+02  0.75221802318E+02  0.12941815323E+03  0.17205842983E+03  0.83903752925E+02 0.  0.
          5    1    3    3  501    0 -0.14937248038E+02 -0.68352520328E+02 -0.62914433399E+01  0.70404976198E+02  0.47000000000E+01 0. -1.
        -11    1    4    4    0    0  0.32984478816E+02  0.49267659568E+01  0.49553555186E+02  0.59731094893E+02  0.00000000000E+00 0.  1.
         12    1    4    4    0    0 -0.61819008601E+01  0.44531236692E+02 -0.10501362585E+02  0.46168447621E+02  0.00000000000E+00 0. -1.
         -5    1    5    5    0  502  0.66006788333E+00 -0.56327284638E+02  0.26727614423E+02  0.62527226526E+02  0.47000000000E+01 0.  1.
         11    1    6    6    0    0  0.15777991051E+02  0.68543019720E+02  0.46828500297E+02  0.84498514744E+02  0.00000000000E+00 0. -1.
        -12    1    6    6    0    0 -0.28303388851E+02  0.66787825977E+01  0.82589652938E+02  0.87559915086E+02  0.00000000000E+00 0.  1.
</event>
<event>
12    1  0.1066489E+000  0.2282083E+03  0.7818608E-02  0.1129351E+00
         21   -1    0    0  503  502  0.00000000000E+00  0.00000000000E+00  0.33525234835E+02  0.33525234835E+02  0.00000000000E+00 0.  1.
         21   -1    0    0  501  503 -0.00000000000E+00 -0.00000000000E+00 -0.15106109045E+04  0.15106109045E+04  0.00000000000E+00 0.  1.
          6    2    1    2  501    0  0.36069429985E+02  0.13595630674E+03 -0.68578863258E+03  0.72276211049E+03  0.17970503237E+03 0.  0.
         24    2    3    3    0    0  0.41527164453E+00 -0.70619547805E+01 -0.25346799350E+03  0.26598134567E+03  0.80311947167E+02 0.  0.
         -6    2    1    2    0  502 -0.36069429985E+02 -0.13595630674E+03 -0.79129703709E+03  0.82137402885E+03  0.16946732206E+03 0.  0.
        -24    2    5    5    0    0 -0.83788243166E+02 -0.11480757698E+03 -0.51831711426E+03  0.54340913508E+03  0.80247166484E+02 0.  0.
          5    1    3    3  501    0  0.35654158341E+02  0.14301826152E+03 -0.43232063908E+03  0.45678076482E+03  0.47000000000E+01 0. -1.
        -13    1    4    4    0    0 -0.26518901006E+02 -0.27665709082E+02 -0.73967181311E+02  0.83305386865E+02  0.00000000000E+00 0.  1.
         14    1    4    4    0    0  0.26934172651E+02  0.20603754301E+02 -0.17950081219E+03  0.18267595880E+03  0.00000000000E+00 0. -1.
         -5    1    5    5    0  502  0.47718813181E+02 -0.21148729755E+02 -0.27297992283E+03  0.27796489377E+03  0.47000000000E+01 0.  1.
         11    1    6    6    0    0 -0.86993185040E+02 -0.89016446444E+02 -0.48729281691E+03  0.50293740306E+03  0.00000000000E+00 0. -1.
        -12    1    6    6    0    0  0.32049418745E+01 -0.25791130540E+02 -0.31024297348E+02  0.40471732022E+02  0.00000000000E+00 0.  1.
</event>
<event>
12    1  0.1066489E+000  0.2007865E+03  0.7818608E-02  0.1149159E+00
         21   -1    0    0  501  502  0.00000000000E+00  0.00000000000E+00  0.15642264341E+03  0.15642264341E+03  0.00000000000E+00 0. -1.
         21   -1    0    0  502  503 -0.00000000000E+00 -0.00000000000E+00 -0.25731003285E+03  0.25731003285E+03  0.00000000000E+00 0. -1.
         -6    2    1    2    0  503 -0.81867461515E+02  0.61881159876E+02 -0.46758990461E+02  0.20577814567E+03  0.17212403332E+03 0.  0.
        -24    2    3    3    0    0 -0.23964714983E+02  0.61855094922E+02  0.31608346351E+02  0.10822683500E+03  0.79458164605E+02 0.  0.
          6    2    1    2  501    0  0.81867461515E+02 -0.61881159876E+02 -0.54128398980E+02  0.20795453059E+03  0.17257938468E+03 0.  0.
         24    2    5    5    0    0  0.10584935186E+03 -0.40569516199E+02  0.72869195913E+01  0.13850491882E+03  0.79249873218E+02 0.  0.
          5    1    5    5  501    0 -0.23981890347E+02 -0.21311643677E+02 -0.61415318571E+02  0.69449611778E+02  0.47000000000E+01 0. -1.
        -13    1    6    6    0    0  0.72091532094E+02 -0.35117273275E+02 -0.32072525491E+02  0.86365842631E+02  0.00000000000E+00 0.  1.
         14    1    6    6    0    0  0.33757819768E+02 -0.54522429237E+01  0.39359445082E+02  0.52139076186E+02  0.00000000000E+00 0. -1.
         -5    1    3    3    0  503 -0.57902746532E+02  0.26064954000E-01 -0.78367336812E+02  0.97551310675E+02  0.47000000000E+01 0.  1.
         11    1    4    4    0    0 -0.30161985790E+02  0.71083985320E+00  0.35569723916E+02  0.46641783194E+02  0.00000000000E+00 0. -1.
        -12    1    4    4    0    0  0.61972708065E+01  0.61144255069E+02 -0.39613775642E+01  0.61585051803E+02  0.00000000000E+00 0.  1.
</event>
<event>
12    1  0.1066489E+000  0.1867250E+03  0.7818608E-02  0.1161504E+00
         21   -1    0    0  501  502  0.00000000000E+00  0.00000000000E+00  0.54043033694E+03  0.54043033694E+03  0.00000000000E+00 0. -1.
         21   -1    0    0  502  503 -0.00000000000E+00 -0.00000000000E+00 -0.69973777561E+02  0.69973777561E+02  0.00000000000E+00 0. -1.
         -6    2    1    2    0  503  0.53287159038E+02 -0.45909250799E+02  0.32125627102E+03  0.37158018181E+03  0.17297126704E+03 0.  0.
        -24    2    3    3    0    0  0.18472973144E+02  0.34314070602E+01  0.54812434567E+02  0.98338647564E+02  0.79454775378E+02 0.  0.
          6    2    1    2  501    0 -0.53287159038E+02  0.45909250799E+02  0.14920028836E+03  0.23882393269E+03  0.17271063705E+03 0.  0.
         24    2    5    5    0    0 -0.80535926743E+02  0.78916075054E+02  0.90920388056E+02  0.16636302896E+03  0.81831277900E+02 0.  0.
          5    1    5    5  501    0  0.27248767705E+02 -0.33006824256E+02  0.58279900309E+02  0.72460903727E+02  0.47000000000E+01 0. -1.
        -13    1    6    6    0    0  0.16212312984E+02  0.67222631225E+01  0.51877837214E+01  0.18301393764E+02  0.00000000000E+00 0.  1.
         14    1    6    6    0    0 -0.96748239726E+02  0.72193811932E+02  0.85732604334E+02  0.14806163520E+03  0.00000000000E+00 0. -1.
         -5    1    3    3    0  503  0.34814185894E+02 -0.49340657859E+02  0.26644383645E+03  0.27324153425E+03  0.47000000000E+01 0.  1.
         13    1    4    4    0    0  0.45241470882E+02 -0.84310762901E+01  0.51191589315E+02  0.68836418788E+02  0.00000000000E+00 0. -1.
        -14    1    4    4    0    0 -0.26768497739E+02  0.11862483350E+02  0.36208452528E+01  0.29502228776E+02  0.00000000000E+00 0.  1.
</event>
<event>
12    1  0.1088303E+000  0.2550932E+03  0.7818608E-02  0.1110262E+00
         21   -1    0    0  501  502  0.00000000000E+00  0.00000000000E+00  0.64770639567E+03  0.64770639567E+03  0.00000000000E+00 0. -1.
         21   -1    0    0  502  503 -0.00000000000E+00 -0.00000000000E+00 -0.26292329521E+03  0.26292329521E+03  0.00000000000E+00 0. -1.
         -6    2    1    2    0  503  0.11239649225E+03 -0.14928807467E+03  0.55054709625E+03  0.60640895176E+03  0.17236534129E+03 0.  0.
        -24    2    3    3    0    0  0.13380168377E+03 -0.93733803603E+02  0.31458097001E+03  0.36300278506E+03  0.78236300712E+02 0.  0.
          6    2    1    2  501    0 -0.11239649225E+03  0.14928807467E+03 -0.16576399579E+03  0.30422073913E+03  0.17364519892E+03 0.  0.
         24    2    5    5    0    0 -0.11653508677E+03  0.62072410356E+02 -0.15153283556E+03  0.21563001734E+03  0.78106936618E+02 0.  0.
          5    1    5    5  501    0  0.41385945163E+01  0.87215664313E+02 -0.14231160225E+02  0.88590721791E+02  0.47000000000E+01 0. -1.
        -13    1    6    6    0    0 -0.69457710055E+01  0.41099411459E+02 -0.37065062876E+02  0.55778349233E+02  0.00000000000E+00 0.  1.
         14    1    6    6    0    0 -0.10958931576E+03  0.20972998897E+02 -0.11446777269E+03  0.15985166810E+03  0.00000000000E+00 0. -1.
         -5    1    3    3    0  503 -0.21405191516E+02 -0.55554271066E+02  0.23596612624E+03  0.24340616670E+03  0.47000000000E+01 0.  1.
         13    1    4    4    0    0 -0.97361584138E+01 -0.16691687607E+01  0.10828159980E+02  0.14657010389E+02  0.00000000000E+00 0. -1.
        -14    1    4    4    0    0  0.14353784218E+03 -0.92064634842E+02  0.30375281003E+03  0.34834577467E+03  0.00000000000E+00 0.  1.
</event>
<event>
12    1  0.1066489E+000  0.3097483E+03  0.7818608E-02  0.1080612E+00
         21   -1    0    0  501  502  0.00000000000E+00  0.00000000000E+00  0.12449645938E+03  0.12449645938E+03  0.00000000000E+00 0. -1.
         21   -1    0    0  502  503 -0.00000000000E+00 -0.00000000000E+00 -0.76833141770E+03  0.76833141770E+03  0.00000000000E+00 0. -1.
         -6    2    1    2    0  503 -0.25419694707E+03  0.41825319434E+02 -0.30795752164E+03  0.43592779771E+03  0.16979329916E+03 0.  0.
        -24    2    3    3    0    0 -0.16589556183E+03 -0.36245158812E+02 -0.16222640639E+03  0.24843971233E+03  0.81054517216E+02 0.  0.
          6    2    1    2  501    0  0.25419694707E+03 -0.41825319434E+02 -0.33587743668E+03  0.45690007937E+03  0.17198425744E+03 0.  0.
         24    2    5    5    0    0  0.91353620411E+02 -0.25851742471E+01 -0.22634673709E+03  0.25670816598E+03  0.79461122576E+02 0.  0.
          5    1    5    5  501    0  0.16284332666E+03 -0.39240145187E+02 -0.10953069959E+03  0.20019191339E+03  0.47000000000E+01 0. -1.
        -11    1    6    6    0    0  0.32353840499E+02 -0.39337812525E+02 -0.82684176596E+02  0.97112859852E+02  0.00000000000E+00 0.  1.
         12    1    6    6    0    0  0.58999779911E+02  0.36752638278E+02 -0.14366256050E+03  0.15959530613E+03  0.00000000000E+00 0. -1.
         -5    1    3    3    0  503 -0.88301385246E+02  0.78070478245E+02 -0.14573111524E+03  0.18748808538E+03  0.47000000000E+01 0.  1.
         13    1    4    4    0    0 -0.11987227132E+03 -0.50919610620E+01 -0.14901861845E+03  0.19131606870E+03  0.00000000000E+00 0. -1.
        -14    1    4    4    0    0 -0.46023290511E+02 -0.31153197750E+02 -0.13207787943E+02  0.57123643632E+02  0.00000000000E+00 0.  1.
</event>
<event>
12    1  0.1066489E+000  0.1885045E+03  0.7818608E-02  0.1160942E+00
         21   -1    0    0  501  502  0.00000000000E+00  0.00000000000E+00  0.28986994879E+03  0.28986994879E+03  0.00000000000E+00 0. -1.
         21   -1    0    0  502  503 -0.00000000000E+00 -0.00000000000E+00 -0.15461439178E+03  0.15461439178E+03  0.00000000000E+00 0. -1.
         -6    2    1    2    0  503  0.55766209828E+02  0.51077696358E+02 -0.39050966885E+02  0.18774181787E+03  0.16734159955E+03 0.  0.
        -24    2    3    3    0    0 -0.21853407621E+02  0.57014684242E+02 -0.43918850858E+02  0.10960194884E+03  0.79721239860E+02 0.  0.
          6    2    1    2  501    0 -0.55766209828E+02 -0.51077696358E+02  0.17430652389E+03  0.25674252270E+03  0.17267066185E+03 0.  0.
         24    2    5    5    0    0 -0.10497783633E+03 -0.32065220159E+02  0.11932886538E+03  0.18040189543E+03  0.79100829950E+02 0.  0.
          5    1    5    5  501    0  0.49211626507E+02 -0.19012476199E+02  0.54977658519E+02  0.76340627263E+02  0.47000000000E+01 0. -1.
        -11    1    6    6    0    0 -0.19155793027E+02 -0.44529646098E+02  0.39481926139E+02  0.62519247275E+02  0.00000000000E+00 0.  1.
         12    1    6    6    0    0 -0.85822043307E+02  0.12464425939E+02  0.79846939236E+02  0.11788264816E+03  0.00000000000E+00 0. -1.
         -5    1    3    3    0  503  0.77619617449E+02 -0.59369878844E+01  0.48678839731E+01  0.78139869033E+02  0.47000000000E+01 0.  1.
         11    1    4    4    0    0 -0.14278699373E+02 -0.12552171871E+02 -0.33959226573E+02  0.38918727419E+02  0.00000000000E+00 0. -1.
        -12    1    4    4    0    0 -0.75747082482E+01  0.69566856113E+02 -0.99596242850E+01  0.70683221421E+02  0.00000000000E+00 0.  1.
</event>
<event>
12    1  0.1066489E+000  0.2201217E+03  0.7818608E-02  0.1134029E+00
         21   -1    0    0  501  502  0.00000000000E+00  0.00000000000E+00  0.27345239252E+03  0.27345239252E+03  0.00000000000E+00 0. -1.
         21   -1    0    0  502  503 -0.00000000000E+00 -0.00000000000E+00 -0.20005640636E+03  0.20005640636E+03  0.00000000000E+00 0. -1.
         -6    2    1    2    0  503  0.10437229308E+03 -0.88569155327E+02  0.11858972503E+03  0.25003413624E+03  0.17238177272E+03 0.  0.
        -24    2    3    3    0    0  0.58165747908E+02  0.20703811837E+02  0.44438423845E+02  0.11004795251E+03  0.79522803542E+02 0.  0.
          6    2    1    2  501    0 -0.10437229308E+03  0.88569155327E+02 -0.45193738872E+02  0.22347466263E+03  0.17076410620E+03 0.  0.
         24    2    5    5    0    0 -0.10226292780E+03  0.41383698115E+02 -0.85191985213E+02  0.16140319974E+03  0.81381826418E+02 0.  0.
          5    1    5    5  501    0 -0.21093652787E+01  0.47185457212E+02  0.39998246342E+02  0.62071462884E+02  0.47000000000E+01 0. -1.
        -11    1    6    6    0    0 -0.71320982141E+02  0.65493265481E+02 -0.69331865800E+02  0.11909222448E+03  0.00000000000E+00 0.  1.
         12    1    6    6    0    0 -0.30941945658E+02 -0.24109567366E+02 -0.15860119413E+02  0.42310975260E+02  0.00000000000E+00 0. -1.
         -5    1    3    3    0  503  0.46206545170E+02 -0.10927296716E+03  0.74151301187E+02  0.13998618374E+03  0.47000000000E+01 0.  1.
         13    1    4    4    0    0  0.77267744041E+00  0.24472882241E+02  0.46436720914E+02  0.52496552694E+02  0.00000000000E+00 0. -1.
        -14    1    4    4    0    0  0.57393070467E+02 -0.37690704035E+01 -0.19982970685E+01  0.57551399814E+02  0.00000000000E+00 0.  1.
</event>
<event>
12    1  0.1066489E+000  0.2306223E+03  0.7818608E-02  0.1126761E+00
         21   -1    0    0  501  502  0.00000000000E+00  0.00000000000E+00  0.31944677776E+03  0.31944677776E+03  0.00000000000E+00 0.  1.
         21   -1    0    0  502  503 -0.00000000000E+00 -0.00000000000E+00 -0.21414357783E+03  0.21414357783E+03  0.00000000000E+00 0.  1.
         -6    2    1    2    0  503 -0.14752726955E+03 -0.89801975572E+00 -0.76440999629E+02  0.23996198973E+03  0.17312835814E+03 0.  0.
        -24    2    3    3    0    0 -0.16226611179E+02  0.80179044241E+01 -0.73247942012E+02  0.10823635741E+03  0.77603210988E+02 0.  0.
          6    2    1    2  501    0  0.14752726955E+03  0.89801975572E+00  0.18174419956E+03  0.29362836586E+03  0.17726128021E+03 0.  0.
         24    2    5    5    0    0  0.25496789804E+02 -0.49549607540E+02  0.96062950844E+02  0.13614894667E+03  0.78760366026E+02 0.  0.
          5    1    5    5  501    0  0.12203047975E+03  0.50447627296E+02  0.85681248713E+02  0.15747941919E+03  0.47000000000E+01 0. -1.
        -13    1    6    6    0    0  0.50501838247E+02 -0.41366493631E+02  0.86022110357E+02  0.10798808236E+03  0.00000000000E+00 0.  1.
         14    1    6    6    0    0 -0.25005048443E+02 -0.81831139094E+01  0.10040840487E+02  0.28160864308E+02  0.00000000000E+00 0. -1.
         -5    1    3    3    0  503 -0.13130065837E+03 -0.89159241798E+01 -0.31930576165E+01  0.13172563232E+03  0.47000000000E+01 0.  1.
         13    1    4    4    0    0  0.20674248561E+02 -0.22868433626E+02 -0.21583933013E+02  0.37633176512E+02  0.00000000000E+00 0. -1.
        -14    1    4    4    0    0 -0.36900859740E+02  0.30886338050E+02 -0.51664009000E+02  0.70603180903E+02  0.00000000000E+00 0.  1.
</event>
<event>
12    1  0.1066489E+000  0.3787280E+03  0.7818608E-02  0.1051422E+00
         21   -1    0    0  501  502  0.00000000000E+00  0.00000000000E+00  0.37680386986E+03  0.37680386986E+03  0.00000000000E+00 0. -1.
         21   -1    0    0  502  503 -0.00000000000E+00 -0.00000000000E+00 -0.38516801381E+03  0.38516801381E+03  0.00000000000E+00 0. -1.
         -6    2    1    2    0  503  0.33784128834E+03  0.63277016070E+01 -0.46216582411E+02  0.38135695463E+03  0.17064694089E+03 0.  0.
        -24    2    3    3    0    0  0.32605615722E+03 -0.29647848543E+02 -0.24766056466E+02  0.33759230465E+03  0.78508560184E+02 0.  0.
          6    2    1    2  501    0 -0.33784128834E+03 -0.63277016070E+01  0.37852438465E+02  0.38061492904E+03  0.17105011310E+03 0.  0.
         24    2    5    5    0    0 -0.19577863830E+03  0.54877976669E+02  0.53508274652E+02  0.22506710103E+03  0.80319343708E+02 0.  0.
          5    1    5    5  501    0 -0.14206265005E+03 -0.61205678276E+02 -0.15655836187E+02  0.15554782801E+03  0.47000000000E+01 0. -1.
        -13    1    6    6    0    0 -0.35558981047E+02  0.12471689736E+02 -0.21237472858E+02  0.43255224325E+02  0.00000000000E+00 0.  1.
         14    1    6    6    0    0 -0.16021965725E+03  0.42406286933E+02  0.74745747510E+02  0.18181187671E+03  0.00000000000E+00 0. -1.
         -5    1    3    3    0  503  0.11785131121E+02  0.35975550150E+02 -0.21450525945E+02  0.43764649975E+02  0.47000000000E+01 0.  1.
         13    1    4    4    0    0  0.40661264061E+02  0.33478444313E+01  0.22254823612E+02  0.46473902691E+02  0.00000000000E+00 0. -1.
        -14    1    4    4    0    0  0.28539489316E+03 -0.32995692974E+02 -0.47020880077E+02  0.29111840196E+03  0.00000000000E+00 0.  1.
</event>
<event>
12    1  0.1066489E+000  0.2292398E+03  0.7818608E-02  0.1127250E+00
         21   -1    0    0  503  502  0.00000000000E+00  0.00000000000E+00  0.34428206996E+03  0.34428206996E+03  0.00000000000E+00 0.  1.
         21   -1    0    0  501  503 -0.00000000000E+00 -0.00000000000E+00 -0.15350099000E+03  0.15350099000E+03  0.00000000000E+00 0.  1.
          6    2    1    2  501    0 -0.11287423268E+03  0.10099705408E+03  0.11692357702E+03  0.25733641724E+03  0.17207530747E+03 0.  0.
         24    2    3    3    0    0 -0.14570034965E+02  0.62575414548E+02  0.34704819094E+01  0.10230857309E+03  0.79542639244E+02 0.  0.
         -6    2    1    2    0  502  0.11287423268E+03 -0.10099705408E+03  0.73857502937E+02  0.24044664272E+03  0.17151868680E+03 0.  0.
        -24    2    5    5    0    0  0.12846395122E+03 -0.88210138167E+02  0.10408162142E+03  0.20381152459E+03  0.80138245565E+02 0.  0.
          5    1    3    3  501    0 -0.98304197714E+02  0.38421639529E+02  0.11345309511E+03  0.15502784415E+03  0.47000000000E+01 0. -1.
        -11    1    4    4    0    0 -0.51742907458E+01 -0.15476983927E+02 -0.14312890806E+02  0.21706431291E+02  0.00000000000E+00 0.  1.
         12    1    4    4    0    0 -0.93957442195E+01  0.78052398474E+02  0.17783372715E+02  0.80602141796E+02  0.00000000000E+00 0. -1.
         -5    1    5    5    0  502 -0.15589718539E+02 -0.12786915910E+02 -0.30224118479E+02  0.36635118130E+02  0.47000000000E+01 0.  1.
         11    1    6    6    0    0  0.11175036227E+03 -0.42548981137E+02  0.46137125502E+02  0.12816861400E+03  0.00000000000E+00 0. -1.
        -12    1    6    6    0    0  0.16713588943E+02 -0.45661157029E+02  0.57944495914E+02  0.75642910595E+02  0.00000000000E+00 0.  1.
</event>
<event>
12    1  0.1066489E+000  0.2662617E+03  0.7818608E-02  0.1103520E+00
         21   -1    0    0  501  502  0.00000000000E+00  0.00000000000E+00  0.53207060785E+03  0.53207060785E+03  0.00000000000E+00 0.  1.
         21   -1    0    0  502  503 -0.00000000000E+00 -0.00000000000E+00 -0.13815375648E+03  0.13815375648E+03  0.00000000000E+00 0.  1.
         -6    2    1    2    0  503  0.64263727337E+02 -0.19158666118E+03  0.13180689334E+03  0.29659765990E+03  0.17251620020E+03 0.  0.
        -24    2    3    3    0    0  0.28926711930E+02 -0.53408832210E+02  0.12291550457E+03  0.15361876680E+03  0.69291025594E+02 0.  0.
          6    2    1    2  501    0 -0.64263727337E+02  0.19158666118E+03  0.26210995802E+03  0.37362670443E+03  0.17337822462E+03 0.  0.
         24    2    5    5    0    0 -0.73352813482E+02  0.17315541956E+03  0.13229726679E+03  0.24211340867E+03  0.75847882578E+02 0.  0.
          5    1    5    5  501    0  0.90890861449E+01  0.18431241629E+02  0.12981269123E+03  0.13151329576E+03  0.47000000000E+01 0. -1.
        -13    1    6    6    0    0 -0.10521012610E+02 -0.56385391432E+01  0.19340729977E+01  0.12092372322E+02  0.00000000000E+00 0.  1.
         14    1    6    6    0    0 -0.62831800872E+02  0.17879395870E+03  0.13036319379E+03  0.23002103635E+03  0.00000000000E+00 0. -1.
         -5    1    3    3    0  503  0.35337015406E+02 -0.13817782897E+03  0.88913887726E+01  0.14297889310E+03  0.47000000000E+01 0.  1.
         11    1    4    4    0    0  0.38886065787E+02 -0.65510615404E+02  0.10627011717E+03  0.13075589717E+03  0.00000000000E+00 0. -1.
        -12    1    4    4    0    0 -0.99593538567E+01  0.12101783194E+02  0.16645387404E+02  0.22862869626E+02  0.00000000000E+00 0.  1.
</event>
<event>
12    1  0.1066489E+000  0.1746092E+03  0.7818608E-02  0.1173257E+00
         21   -1    0    0  501  502  0.00000000000E+00  0.00000000000E+00  0.14884522465E+04  0.14884522465E+04  0.00000000000E+00 0. -1.
         21   -1    0    0  502  503 -0.00000000000E+00 -0.00000000000E+00 -0.29387282996E+02  0.29387282996E+02  0.00000000000E+00 0. -1.
         -6    2    1    2    0  503  0.25367191293E+02  0.19328769027E+02  0.30959294155E+03  0.35518123156E+03  0.17113977356E+03 0.  0.
        -24    2    3    3    0    0 -0.19730472021E+02  0.34012672701E+02  0.77152220803E+02  0.11790461046E+03  0.80017988988E+02 0.  0.
          6    2    1    2  501    0 -0.25367191293E+02 -0.19328769027E+02  0.11494720220E+04  0.11626582979E+04  0.17167205009E+03 0.  0.
         24    2    5    5    0    0 -0.61183590985E+02  0.55249097397E+01  0.41204053322E+03  0.42392437397E+03  0.78488963519E+02 0.  0.
          5    1    5    5  501    0  0.35816399692E+02 -0.24853678767E+02  0.73743148875E+03  0.73873392397E+03  0.47000000000E+01 0. -1.
        -13    1    6    6    0    0  0.11726336481E+02  0.21815385447E+02  0.91474266767E+02  0.94767924373E+02  0.00000000000E+00 0.  1.
         14    1    6    6    0    0 -0.72909927466E+02 -0.16290475708E+02  0.32056626645E+03  0.32915644960E+03  0.00000000000E+00 0. -1.
         -5    1    3    3    0  503  0.45097663314E+02 -0.14683903674E+02  0.23244072074E+03  0.23727662111E+03  0.47000000000E+01 0.  1.
         13    1    4    4    0    0 -0.26159922463E+02 -0.12044466847E+02  0.11728100707E+01  0.28823362197E+02  0.00000000000E+00 0. -1.
        -14    1    4    4    0    0  0.64294504416E+01  0.46057139548E+02  0.75979410732E+02  0.89081248260E+02  0.00000000000E+00 0.  1.
</event>
<event>
12    1  0.1066489E+000  0.2457826E+03  0.7818608E-02  0.1116044E+00
         21   -1    0    0  503  502  0.00000000000E+00  0.00000000000E+00  0.12263114765E+04  0.12263114765E+04  0.00000000000E+00 0.  1.
         21   -1    0    0  501  503 -0.00000000000E+00 -0.00000000000E+00 -0.52383142792E+02  0.52383142792E+02  0.00000000000E+00 0.  1.
          6    2    1    2  501    0 -0.71690358521E+02  0.15933788372E+03  0.42979873234E+03  0.49511215251E+03  0.17286128703E+03 0.  0.
         24    2    3    3    0    0 -0.32777992885E+02  0.54664689281E+01  0.14870642110E+03  0.17227231308E+03  0.80373323165E+02 0.  0.
         -6    2    1    2    0  502  0.71690358521E+02 -0.15933788372E+03  0.74412960133E+03  0.78358246674E+03  0.17246608337E+03 0.  0.
        -24    2    5    5    0    0  0.17737524967E+02 -0.70652820716E+02  0.17722011857E+03  0.20722806163E+03  0.78930717930E+02 0.  0.
          5    1    3    3  501    0 -0.38912365636E+02  0.15387141479E+03  0.28109231124E+03  0.32283983943E+03  0.47000000000E+01 0. -1.
        -11    1    4    4    0    0 -0.59436088939E+02  0.37270005511E+01  0.92067803589E+02  0.10964953105E+03  0.00000000000E+00 0.  1.
         12    1    4    4    0    0  0.26658096054E+02  0.17394683770E+01  0.56638617513E+02  0.62622782030E+02  0.00000000000E+00 0. -1.
         -5    1    5    5    0  502  0.53952833554E+02 -0.88685063003E+02  0.56690948276E+03  0.57635440511E+03  0.47000000000E+01 0.  1.
         13    1    6    6    0    0  0.31354294030E+02 -0.33106086956E+02  0.15490653432E+03  0.16147798340E+03  0.00000000000E+00 0. -1.
        -14    1    6    6    0    0 -0.13616769063E+02 -0.37546733760E+02  0.22313584248E+02  0.45750078227E+02  0.00000000000E+00 0.  1.
</event>
<event>
12    1  0.1066489E+000  0.2653152E+03  0.7818608E-02  0.1104066E+00
         21   -1    0    0  501  502  0.00000000000E+00  0.00000000000E+00  0.25087412372E+03  0.25087412372E+03  0.00000000000E+00 0.  1.
         21   -1    0    0  502  503 -0.00000000000E+00 -0.00000000000E+00 -0.40223432811E+03  0.40223432811E+03  0.00000000000E+00 0.  1.
         -6    2    1    2    0  503  0.13596238549E+02  0.20154677909E+03 -0.25561257661E+03  0.36804579717E+03  0.17121319350E+03 0.  0.
        -24    2    3    3    0    0 -0.20696756413E+02  0.62919136528E+02 -0.18861439892E+03  0.21023426844E+03  0.65083659090E+02 0.  0.
          6    2    1    2  501    0 -0.13596238549E+02 -0.20154677909E+03  0.10425237222E+03  0.28506265465E+03  0.17200638971E+03 0.  0.
         24    2    5    5    0    0 -0.89782969240E+01 -0.11121280238E+03  0.12770611095E+03  0.19150133469E+03  0.88966359853E+02 0.  0.
          5    1    5    5  501    0 -0.46179416246E+01 -0.90333976711E+02 -0.23453738730E+02  0.93561319965E+02  0.47000000000E+01 0. -1.
        -13    1    6    6    0    0  0.22188307588E+02 -0.12919695004E+02 -0.20553226579E+01  0.25757792294E+02  0.00000000000E+00 0.  1.
         14    1    6    6    0    0 -0.31166604512E+02 -0.98293107373E+02  0.12976143361E+03  0.16574354240E+03  0.00000000000E+00 0. -1.
         -5    1    3    3    0  503  0.34292994962E+02  0.13862764256E+03 -0.66998177694E+02  0.15781152873E+03  0.47000000000E+01 0.  1.
         11    1    4    4    0    0 -0.11918617386E+02  0.30486829629E+02 -0.20120673187E+02  0.38423192355E+02  0.00000000000E+00 0. -1.
        -12    1    4    4    0    0 -0.87781390269E+01  0.32432306899E+02 -0.16849372573E+03  0.17181107609E+03  0.00000000000E+00 0.  1.
</event>
<event>
12    1  0.1066489E+000  0.3976528E+03  0.7818608E-02  0.1044638E+00
         21   -1    0    0  501  502  0.00000000000E+00  0.00000000000E+00  0.99601211680E+03  0.99601211680E+03  0.00000000000E+00 0. -1.
         21   -1    0    0  502  503 -0.00000000000E+00 -0.00000000000E+00 -0.15856443608E+03  0.15856443608E+03  0.00000000000E+00 0. -1.
         -6    2    1    2    0  503 -0.17088576738E+03  0.31470782087E+03  0.41826791912E+03  0.57678815922E+03  0.17173692218E+03 0.  0.
        -24    2    3    3    0    0 -0.20728551104E+02  0.16507929789E+03  0.20025842249E+03  0.27267286018E+03  0.81032126208E+02 0.  0.
          6    2    1    2  501    0  0.17088576738E+03 -0.31470782087E+03  0.41917976159E+03  0.57778839366E+03  0.17287219936E+03 0.  0.
         24    2    5    5    0    0  0.11776243323E+03 -0.26843324336E+03  0.24648408822E+03  0.39121585883E+03  0.79818830031E+02 0.  0.
          5    1    5    5  501    0  0.53123334150E+02 -0.46274577508E+02  0.17269567337E+03  0.18657253483E+03  0.47000000000E+01 0. -1.
        -11    1    6    6    0    0  0.69065227421E+02 -0.17070898658E+03  0.20193060636E+03  0.27329020020E+03  0.00000000000E+00 0.  1.
         12    1    6    6    0    0  0.48697205804E+02 -0.97724256780E+02  0.44553481858E+02  0.11792565862E+03  0.00000000000E+00 0. -1.
         -5    1    3    3    0  503 -0.15015721627E+03  0.14962852299E+03  0.21800949663E+03  0.30411529904E+03  0.47000000000E+01 0.  1.
         11    1    4    4    0    0 -0.25788085967E+02  0.67831474580E+01  0.27560379801E+02  0.38348546284E+02  0.00000000000E+00 0. -1.
        -12    1    4    4    0    0  0.50595348629E+01  0.15829615043E+03  0.17269804269E+03  0.23432431390E+03  0.00000000000E+00 0.  1.
</event>
<event>
12    1  0.1066489E+000  0.1740468E+03  0.7818608E-02  0.1173730E+00
         21   -1    0    0  501  502  0.00000000000E+00  0.00000000000E+00  0.38785866858E+03  0.38785866858E+03  0.00000000000E+00 0.  1.
         21   -1    0    0  502  503 -0.00000000000E+00 -0.00000000000E+00 -0.80800098938E+02  0.80800098938E+02  0.00000000000E+00 0.  1.
         -6    2    1    2    0  503  0.68888328840E+01  0.31805408877E+02  0.19694441024E+03  0.26282956047E+03  0.17097729989E+03 0.  0.
        -24    2    3    3    0    0  0.14151449282E+02  0.35855173853E+02  0.22035268373E+03  0.23754748261E+03  0.79922739325E+02 0.  0.
          6    2    1    2  501    0 -0.68888328840E+01 -0.31805408877E+02  0.11011415940E+03  0.20582920705E+03  0.17082591818E+03 0.  0.
         24    2    5    5    0    0  0.28743331646E+02  0.29379687920E+02  0.10027245804E+03  0.13418971860E+03  0.79138925702E+02 0.  0.
          5    1    5    5  501    0 -0.35632164530E+02 -0.61185096797E+02  0.98417013607E+01  0.71639488446E+02  0.47000000000E+01 0. -1.
        -11    1    6    6    0    0  0.39259095338E+01  0.53074972214E+02  0.73098691130E+02  0.90420042502E+02  0.00000000000E+00 0.  1.
         12    1    6    6    0    0  0.24817422112E+02 -0.23695284293E+02  0.27173766911E+02  0.43769676103E+02  0.00000000000E+00 0. -1.
         -5    1    3    3    0  503 -0.72626163976E+01 -0.40497649766E+01 -0.23408273483E+02  0.25282077857E+02  0.47000000000E+01 0.  1.
         13    1    4    4    0    0 -0.59458203730E+01 -0.12103929083E+02  0.14708799637E+03  0.14770489685E+03  0.00000000000E+00 0. -1.
        -14    1    4    4    0    0  0.20097269654E+02  0.47959102936E+02  0.73264687360E+02  0.89842585760E+02  0.00000000000E+00 0.  1.
</event>
<event>
12    1  0.1066489E+000  0.1880698E+03  0.7818608E-02  0.1160376E+00
         21   -1    0    0  503  502  0.00000000000E+00  0.00000000000E+00  0.16216202447E+04  0.16216202447E+04  0.00000000000E+00 0. -1.
         21   -1    0    0  501  503 -0.00000000000E+00 -0.00000000000E+00 -0.22334929292E+02  0.22334929292E+02  0.00000000000E+00 0. -1.
          6    2    1    2  501    0  0.70447253121E+02 -0.28199085197E+02  0.66578773088E+03  0.69184070508E+03  0.17208211629E+03 0.  0.
         24    2    3    3    0    0  0.10036853689E+03 -0.55837565067E+02  0.41903204566E+03  0.44170148989E+03  0.79502666677E+02 0.  0.
         -6    2    1    2    0  502 -0.70447253121E+02  0.28199085197E+02  0.93349758449E+03  0.95211446887E+03  0.17130737783E+03 0.  0.
        -24    2    5    5    0    0  0.11811332387E+02 -0.23996084415E+02  0.31631487597E+03  0.32727257182E+03  0.79604747724E+02 0.  0.
          5    1    3    3  501    0 -0.29921283771E+02  0.27638479870E+02  0.24675568522E+03  0.25013921520E+03  0.47000000000E+01 0. -1.
        -11    1    4    4    0    0  0.76055290092E+02 -0.60012138289E+02  0.39692186264E+03  0.40857414130E+03  0.00000000000E+00 0.  1.
         12    1    4    4    0    0  0.24313246801E+02  0.41745732220E+01  0.22110183017E+02  0.33127348590E+02  0.00000000000E+00 0. -1.
         -5    1    5    5    0  502 -0.82258585508E+02  0.52195169612E+02  0.61718270852E+03  0.62484189705E+03  0.47000000000E+01 0.  1.
         13    1    6    6    0    0  0.29667288467E+02 -0.27731009590E+02  0.30019230780E+03  0.30292668842E+03  0.00000000000E+00 0. -1.
        -14    1    6    6    0    0 -0.17855956080E+02  0.37349251742E+01  0.16122568178E+02  0.24345883395E+02  0.00000000000E+00 0.  1.
</event>
<event>
12    1  0.1066489E+000  0.2316660E+03  0.7818608E-02  0.1125675E+00
         21   -1    0    0  503  502  0.00000000000E+00  0.00000000000E+00  0.11051753554E+03  0.11051753554E+03  0.00000000000E+00 0. -1.
         21   -1    0    0  501  503 -0.00000000000E+00 -0.00000000000E+00 -0.48364171540E+03  0.48364171540E+03  0.00000000000E+00 0. -1.
          6    2    1    2  501    0 -0.92523409897E+02  0.12456890443E+03 -0.17701078786E+03  0.29063064036E+03  0.17045631925E+03 0.  0.
         24    2    3    3    0    0 -0.89042021020E+02  0.13455039305E+03 -0.19735745314E+03  0.26722493653E+03  0.80168027402E+02 0.  0.
         -6    2    1    2    0  502  0.92523409897E+02 -0.12456890443E+03 -0.19611339200E+03  0.30352861058E+03  0.17202081732E+03 0.  0.
        -24    2    5    5    0    0 -0.15246646335E+02 -0.51270577464E+02 -0.11374550133E+03  0.14927690340E+03  0.80525911839E+02 0.  0.
          5    1    3    3  501    0 -0.34813888771E+01 -0.99814886237E+01  0.20346665284E+02  0.23405703831E+02  0.47000000000E+01 0. -1.
        -13    1    4    4    0    0 -0.82954596116E+02  0.56371966664E+02 -0.12737850211E+03  0.16212509504E+03  0.00000000000E+00 0.  1.
         14    1    4    4    0    0 -0.60874249035E+01  0.78178426387E+02 -0.69978951034E+02  0.10509984149E+03  0.00000000000E+00 0. -1.
         -5    1    5    5    0  502  0.10777005623E+03 -0.73298326963E+02 -0.82367890672E+02  0.15425170719E+03  0.47000000000E+01 0.  1.
         11    1    6    6    0    0  0.18840868622E+02  0.40313536717E+01 -0.65727452620E+02  0.68493270989E+02  0.00000000000E+00 0. -1.
        -12    1    6    6    0    0 -0.34087514957E+02 -0.55301931136E+02 -0.48018048707E+02  0.80783632408E+02  0.00000000000E+00 0.  1.
</event>
<event>
12    1  0.1066489E+000  0.1729867E+03  0.7818608E-02  0.1174770E+00
         21   -1    0    0  501  502  0.00000000000E+00  0.00000000000E+00  0.84820146650E+02  0.84820146650E+02  0.00000000000E+00 0. -1.
         21   -1    0    0  502  503 -0.00000000000E+00 -0.00000000000E+00 -0.49610226575E+03  0.49610226575E+03  0.00000000000E+00 0. -1.
         -6    2    1    2    0  503  0.18607247864E+02 -0.11458029831E+02 -0.49526568163E+02  0.17993690450E+03  0.17160096890E+03 0.  0.
        -24    2    3    3    0    0 -0.24192901685E+02 -0.41214932895E+02  0.16522479675E+02  0.95664175805E+02  0.81207604399E+02 0.  0.
          6    2    1    2  501    0 -0.18607247864E+02  0.11458029831E+02 -0.36175555094E+03  0.40098550790E+03  0.17159482158E+03 0.  0.
         24    2    5    5    0    0 -0.16500721738E+02  0.73220792371E+02 -0.20018363031E+03  0.22793449859E+03  0.79038544707E+02 0.  0.
          5    1    5    5  501    0 -0.21065261256E+01 -0.61762762540E+02 -0.16157192063E+03  0.17305100932E+03  0.47000000000E+01 0. -1.
        -11    1    6    6    0    0 -0.47962770938E+02  0.42414691821E+02 -0.10362081026E+03  0.12180601708E+03  0.00000000000E+00 0.  1.
         12    1    6    6    0    0  0.31462049201E+02  0.30806100549E+02 -0.96562820046E+02  0.10612848150E+03  0.00000000000E+00 0. -1.
         -5    1    3    3    0  503  0.42800149549E+02  0.29756903065E+02 -0.66049047839E+02  0.84272728696E+02  0.47000000000E+01 0.  1.
         13    1    4    4    0    0 -0.12641522440E+02  0.20201147915E+02 -0.12330973698E+02  0.26831835178E+02  0.00000000000E+00 0. -1.
        -14    1    4    4    0    0 -0.11551379245E+02 -0.61416080810E+02  0.28853453373E+02  0.68832340626E+02  0.00000000000E+00 0.  1.
</event>
<event>
12    1  0.1066489E+000  0.1947591E+03  0.7818608E-02  0.1154958E+00
         21   -1    0    0  501  502  0.00000000000E+00  0.00000000000E+00  0.87316032013E+02  0.87316032013E+02  0.00000000000E+00 0.  1.
         21   -1    0    0  502  503 -0.00000000000E+00 -0.00000000000E+00 -0.52578173606E+03  0.52578173606E+03  0.00000000000E+00 0.  1.
         -6    2    1    2    0  503  0.90108686807E+02  0.77405978671E+01 -0.87974490981E+02  0.21370687492E+03  0.17248659377E+03 0.  0.
        -24    2    3    3    0    0 -0.70295402875E+01  0.16537762560E+02 -0.52286339981E+02  0.10974072951E+03  0.94795856115E+02 0.  0.
          6    2    1    2  501    0 -0.90108686807E+02 -0.77405978671E+01 -0.35049121307E+03  0.39939089316E+03  0.16878833730E+03 0.  0.
         24    2    5    5    0    0  0.15762314491E+02 -0.77053149414E+01 -0.19320827085E+03  0.20973677622E+03  0.79701047272E+02 0.  0.
          5    1    5    5  501    0 -0.10587100130E+03 -0.35282925689E-01 -0.15728294222E+03  0.18965411694E+03  0.47000000000E+01 0. -1.
        -13    1    6    6    0    0 -0.22529935771E+02 -0.21752292774E+02 -0.13548463395E+03  0.13905698934E+03  0.00000000000E+00 0.  1.
         14    1    6    6    0    0  0.38292250262E+02  0.14046977833E+02 -0.57723636899E+02  0.70679786878E+02  0.00000000000E+00 0. -1.
         -5    1    3    3    0  503  0.97138227094E+02 -0.87971646931E+01 -0.35688150999E+02  0.10396614541E+03  0.47000000000E+01 0.  1.
         13    1    4    4    0    0 -0.29365940414E+00  0.55814321479E+02 -0.23396698174E+02  0.60520494078E+02  0.00000000000E+00 0. -1.
        -14    1    4    4    0    0 -0.67358808833E+01 -0.39276558919E+02 -0.28889641807E+02  0.49220235427E+02  0.00000000000E+00 0.  1.
</event>
<event>
12    1  0.1066489E+000  0.2305127E+03  0.7818608E-02  0.1126323E+00
         21   -1    0    0  501  502  0.00000000000E+00  0.00000000000E+00  0.44412894387E+02  0.44412894387E+02  0.00000000000E+00 0. -1.
         21   -1    0    0  502  503 -0.00000000000E+00 -0.00000000000E+00 -0.11953103682E+04  0.11953103682E+04  0.00000000000E+00 0. -1.
         -6    2    1    2    0  503 -0.14445387127E+03 -0.49799823759E+02 -0.58328758880E+03  0.62718459870E+03  0.17259538299E+03 0.  0.
        -24    2    3    3    0    0 -0.36779993214E+02  0.10471329184E+02 -0.37009521672E+03  0.38081221103E+03  0.81148345614E+02 0.  0.
          6    2    1    2  501    0  0.14445387127E+03  0.49799823759E+02 -0.56760988503E+03  0.61253866390E+03  0.17226633397E+03 0.  0.
         24    2    5    5    0    0  0.17124341380E+03  0.32261620803E+02 -0.42425793123E+03  0.46557900682E+03  0.80024373989E+02 0.  0.
          5    1    5    5  501    0 -0.26789542530E+02  0.17538202955E+02 -0.14335195380E+03  0.14695965708E+03  0.47000000000E+01 0. -1.
        -11    1    6    6    0    0  0.11966295680E+03  0.25286749227E+02 -0.37294846980E+03  0.39249102416E+03  0.00000000000E+00 0.  1.
         12    1    6    6    0    0  0.51580456996E+02  0.69748715763E+01 -0.51309461432E+02  0.73087982664E+02  0.00000000000E+00 0. -1.
         -5    1    3    3    0  503 -0.10767387806E+03 -0.60271152943E+02 -0.21319237208E+03  0.24637238767E+03  0.47000000000E+01 0.  1.
         13    1    4    4    0    0 -0.38272941904E+02 -0.27738725802E+02 -0.26008997336E+03  0.26435023971E+03  0.00000000000E+00 0. -1.
        -14    1    4    4    0    0  0.14929486901E+01  0.38210054986E+02 -0.11000524336E+03  0.11646197132E+03  0.00000000000E+00 0.  1.
</event>
<event>
12    1  0.1066489E+000  0.2228308E+03  0.7818608E-02  0.1132545E+00
         21   -1    0    0  503  502  0.00000000000E+00  0.00000000000E+00  0.35634790387E+02  0.35634790387E+02  0.00000000000E+00 0. -1.
         21   -1    0    0  501  503 -0.00000000000E+00 -0.00000000000E+00 -0.23775841447E+04  0.23775841447E+04  0.00000000000E+00 0.  1.
          6    2    1    2  501    0  0.11994774345E+03  0.63050087942E+02 -0.37851121782E+03  0.43717670833E+03  0.17172640315E+03 0.  0.
         24    2    3    3    0    0  0.11087507472E+03  0.34500520422E+02 -0.37538564084E+03  0.40669310036E+03  0.10488722718E+03 0.  0.
         -6    2    1    2    0  502 -0.11994774345E+03 -0.63050087942E+02 -0.19634381365E+04  0.19760422268E+04  0.17689203309E+03 0.  0.
        -24    2    5    5    0    0 -0.93726165582E+02 -0.10728068805E+03 -0.16885102834E+04  0.16963078321E+04  0.78099577956E+02 0.  0.
          5    1    3    3  501    0  0.90726687280E+01  0.28549567520E+02 -0.31255769841E+01  0.30483607971E+02  0.47000000000E+01 0. -1.
        -11    1    4    4    0    0  0.94338197918E+01 -0.24823740666E+02 -0.15180679881E+03  0.15411203464E+03  0.00000000000E+00 0.  1.
         12    1    4    4    0    0  0.10144125493E+03  0.59324261088E+02 -0.22357884203E+03  0.25258106572E+03  0.00000000000E+00 0. -1.
         -5    1    5    5    0  502 -0.26221577865E+02  0.44230600106E+02 -0.27492785314E+03  0.27973439467E+03  0.47000000000E+01 0.  1.
         11    1    6    6    0    0 -0.44154445733E+02 -0.10760442685E+01 -0.37969559232E+03  0.38225582504E+03  0.00000000000E+00 0. -1.
        -12    1    6    6    0    0 -0.49571719849E+02 -0.10620464378E+03 -0.13088146910E+04  0.13140520071E+04  0.00000000000E+00 0.  1.
</event>
<event>
12    1  0.1066489E+000  0.4707667E+03  0.7818608E-02  0.1021778E+00
         21   -1    0    0  503  502  0.00000000000E+00  0.00000000000E+00  0.38284751534E+03  0.38284751534E+03  0.00000000000E+00 0.  1.
         21   -1    0    0  501  503 -0.00000000000E+00 -0.00000000000E+00 -0.58313016691E+03  0.58313016691E+03  0.00000000000E+00 0.  1.
          6    2    1    2  501    0  0.43620086952E+03  0.27154485312E+02 -0.14709435262E+03  0.49221586483E+03  0.17213699305E+03 0.  0.
         24    2    3    3    0    0  0.44038807788E+03  0.45135932505E+02 -0.13444599323E+03  0.46934806755E+03  0.78949172773E+02 0.  0.
         -6    2    1    2    0  502 -0.43620086952E+03 -0.27154485312E+02 -0.53188298945E+02  0.47376181741E+03  0.17496485316E+03 0.  0.
        -24    2    5    5    0    0 -0.26287900609E+03  0.11832905719E+01 -0.10121416623E+03  0.29162979987E+03  0.75477550984E+02 0.  0.
          5    1    3    3  501    0 -0.41872083553E+01 -0.17981447194E+02 -0.12648359398E+02  0.22867797280E+02  0.47000000000E+01 0. -1.
        -13    1    4    4    0    0  0.54437295164E+02 -0.19319774493E+02 -0.25693233991E+02  0.63220369060E+02  0.00000000000E+00 0.  1.
         14    1    4    4    0    0  0.38595078271E+03  0.64455706998E+02 -0.10875275923E+03  0.40612769849E+03  0.00000000000E+00 0. -1.
         -5    1    5    5    0  502 -0.17332186343E+03 -0.28337775884E+02  0.48025867288E+02  0.18213201754E+03  0.47000000000E+01 0.  1.
         13    1    6    6    0    0 -0.20974957825E+03  0.13091663730E+02 -0.48154062322E+02  0.21560401423E+03  0.00000000000E+00 0. -1.
        -14    1    6    6    0    0 -0.53129427846E+02 -0.11908373158E+02 -0.53060103911E+02  0.76025785636E+02  0.00000000000E+00 0.  1.
</event>
<event>
12    1  0.1066489E+000  0.1763235E+03  0.7818608E-02  0.1171853E+00
         21   -1    0    0  503  502  0.00000000000E+00  0.00000000000E+00  0.32282421228E+03  0.32282421228E+03  0.00000000000E+00 0.  1.
         21   -1    0    0  501  503 -0.00000000000E+00 -0.00000000000E+00 -0.14090324339E+03  0.14090324339E+03  0.00000000000E+00 0.  1.
          6    2    1    2  501    0  0.19029076696E+02 -0.24768075166E+02 -0.40577309430E+02  0.18093233739E+03  0.17353509549E+03 0.  0.
         24    2    3    3    0    0  0.47796351268E+02  0.33576365139E+02 -0.56357902135E+02  0.11382982695E+03  0.79806972632E+02 0.  0.
         -6    2    1    2    0  502 -0.19029076696E+02  0.24768075166E+02  0.22249827832E+03  0.28279511829E+03  0.17173244238E+03 0.  0.
        -24    2    5    5    0    0  0.38476102407E+02 -0.96228248440E+01  0.63160880693E+02  0.10987873413E+03  0.80690954575E+02 0.  0.
          5    1    3    3  501    0 -0.28767274572E+02 -0.58344440305E+02  0.15780592704E+02  0.67102510437E+02  0.47000000000E+01 0. -1.
        -13    1    4    4    0    0  0.35994470271E+02  0.16537274423E+02  0.12803372424E+02  0.41629432868E+02  0.00000000000E+00 0.  1.
         14    1    4    4    0    0  0.11801880997E+02  0.17039090716E+02 -0.69161274559E+02  0.72200394085E+02  0.00000000000E+00 0. -1.
         -5    1    5    5    0  502 -0.57505179102E+02  0.34390900010E+02  0.15933739762E+03  0.17291638415E+03  0.47000000000E+01 0.  1.
         11    1    6    6    0    0 -0.65759816900E+01 -0.36704296695E+02  0.28152420006E+02  0.46722667767E+02  0.00000000000E+00 0. -1.
        -12    1    6    6    0    0  0.45052084097E+02  0.27081471851E+02  0.35008460687E+02  0.63156066365E+02  0.00000000000E+00 0.  1.
</event>
<event>
12    1  0.1066489E+000  0.1825061E+03  0.7818608E-02  0.1165638E+00
         21   -1    0    0  503  502  0.00000000000E+00  0.00000000000E+00  0.24927380303E+03  0.24927380303E+03  0.00000000000E+00 0.  1.
         21   -1    0    0  501  503 -0.00000000000E+00 -0.00000000000E+00 -0.15140097478E+03  0.15140097478E+03  0.00000000000E+00 0.  1.
          6    2    1    2  501    0  0.59197630807E+02 -0.78543297427E+01  0.11886963999E+03  0.21696481781E+03  0.17139921490E+03 0.  0.
         24    2    3    3    0    0 -0.20335886489E+02 -0.13725354626E+02  0.11302643861E+03  0.13686311803E+03  0.73175157068E+02 0.  0.
         -6    2    1    2    0  502 -0.59197630807E+02  0.78543297427E+01 -0.20996811746E+02  0.18370996000E+03  0.17245994698E+03 0.  0.
        -24    2    5    5    0    0 -0.78491367234E+02  0.34714103528E+01 -0.69369873021E+02  0.13123614458E+03  0.78979750197E+02 0.  0.
          5    1    3    3  501    0  0.79533517296E+02  0.58710248830E+01  0.58432013814E+01  0.80101699788E+02  0.47000000000E+01 0. -1.
        -13    1    4    4    0    0  0.21845762759E+02 -0.12229000841E+02  0.78301285032E+02  0.82206307847E+02  0.00000000000E+00 0.  1.
         14    1    4    4    0    0 -0.42181649248E+02 -0.14963537851E+01  0.34725153578E+02  0.54656810179E+02  0.00000000000E+00 0. -1.
         -5    1    5    5    0  502  0.19293736427E+02  0.43829193899E+01  0.48373061275E+02  0.52473815421E+02  0.47000000000E+01 0.  1.
         11    1    6    6    0    0 -0.89519191826E+01 -0.21275318559E+02  0.78819127247E+01  0.24390583942E+02  0.00000000000E+00 0. -1.
        -12    1    6    6    0    0 -0.69539448051E+02  0.24746728912E+02 -0.77251785745E+02  0.10684556064E+03  0.00000000000E+00 0.  1.
</event>
<event>
12    1  0.1066489E+000  0.1817178E+03  0.7818608E-02  0.1166191E+00
         21   -1    0    0  503  502  0.00000000000E+00  0.00000000000E+00  0.53601191510E+03  0.53601191510E+03  0.00000000000E+00 0.  1.
         21   -1    0    0  501  503 -0.00000000000E+00 -0.00000000000E+00 -0.74885489799E+02  0.74885489799E+02  0.00000000000E+00 0.  1.
          6    2    1    2  501    0 -0.44236974305E+02 -0.33218307127E+02  0.35938033412E+03  0.40263407329E+03  0.17291502710E+03 0.  0.
         24    2    3    3    0    0 -0.38693399008E+02  0.26858748278E+02  0.31241432761E+03  0.32603198728E+03  0.80470946013E+02 0.  0.
         -6    2    1    2    0  502  0.44236974305E+02  0.33218307127E+02  0.10174609118E+03  0.20826333161E+03  0.17309240999E+03 0.  0.
        -24    2    5    5    0    0  0.56213329497E+02  0.56133743371E+02  0.88182756200E+01  0.11169097942E+03  0.78013956067E+02 0.  0.
          5    1    3    3  501    0 -0.55435752969E+01 -0.60077055404E+02  0.46966006520E+02  0.76602086013E+02  0.47000000000E+01 0. -1.
        -13    1    4    4    0    0 -0.23842705720E+02  0.41114169748E+02  0.82599533141E+02  0.95297074694E+02  0.00000000000E+00 0.  1.
         14    1    4    4    0    0 -0.14850693288E+02 -0.14255421470E+02  0.22981479446E+03  0.23073491259E+03  0.00000000000E+00 0. -1.
         -5    1    5    5    0  502 -0.11976355193E+02 -0.22915436244E+02  0.92927815560E+02  0.96572352186E+02  0.47000000000E+01 0.  1.
         13    1    6    6    0    0  0.46767002705E+02  0.49603814128E+02 -0.27566959644E+02  0.73536577172E+02  0.00000000000E+00 0. -1.
        -14    1    6    6    0    0  0.94463267919E+01  0.65299292430E+01  0.36385235264E+02  0.38154402250E+02  0.00000000000E+00 0.  1.
</event>
<event>
12    1  0.1066489E+000  0.2123123E+03  0.7818608E-02  0.1139911E+00
         21   -1    0    0  501  502  0.00000000000E+00  0.00000000000E+00  0.69606763178E+02  0.69606763178E+02  0.00000000000E+00 0.  1.
         21   -1    0    0  502  503 -0.00000000000E+00 -0.00000000000E+00 -0.65810631243E+03  0.65810631243E+03  0.00000000000E+00 0.  1.
         -6    2    1    2    0  503 -0.12106390825E+03  0.18948887341E+02 -0.24356159028E+03  0.32310796869E+03  0.17338102825E+03 0.  0.
        -24    2    3    3    0    0 -0.95522183819E+02  0.22668509024E+02 -0.26233037492E+03  0.29085006192E+03  0.78346563485E+02 0.  0.
          6    2    1    2  501    0  0.12106390825E+03 -0.18948887341E+02 -0.34493795897E+03  0.40460510692E+03  0.17235883149E+03 0.  0.
         24    2    5    5    0    0  0.62860235374E+02 -0.34928076567E+02 -0.84279917443E+02  0.13700894357E+03  0.80603761764E+02 0.  0.
          5    1    5    5  501    0  0.58203672878E+02  0.15979189225E+02 -0.26065804153E+03  0.26759616335E+03  0.47000000000E+01 0. -1.
        -13    1    6    6    0    0  0.55157920230E+02 -0.60169574947E+02 -0.64180637203E+02  0.10383606361E+03  0.00000000000E+00 0.  1.
         14    1    6    6    0    0  0.77023151439E+01  0.25241498380E+02 -0.20099280240E+02  0.33172879966E+02  0.00000000000E+00 0. -1.
         -5    1    3    3    0  503 -0.25541724433E+02 -0.37196216824E+01  0.18768784637E+02  0.32257906771E+02  0.47000000000E+01 0.  1.
         11    1    4    4    0    0 -0.37911298389E+02 -0.28708428120E+02 -0.83936806041E+02  0.96471901603E+02  0.00000000000E+00 0. -1.
        -12    1    4    4    0    0 -0.57610885430E+02  0.51376937144E+02 -0.17839356888E+03  0.19437816031E+03  0.00000000000E+00 0.  1.
</event>
<event>
12    1  0.1066489E+000  0.3926191E+03  0.7818608E-02  0.1046574E+00
         21   -1    0    0  503  502  0.00000000000E+00  0.00000000000E+00  0.74744084929E+03  0.74744084929E+03  0.00000000000E+00 0.  1.
         21   -1    0    0  501  503 -0.00000000000E+00 -0.00000000000E+00 -0.20898483035E+03  0.20898483035E+03  0.00000000000E+00 0.  1.
          6    2    1    2  501    0 -0.32379810134E+03 -0.13354761855E+03  0.20249110015E+03  0.43968375172E+03  0.17215974858E+03 0.  0.
         24    2    3    3    0    0 -0.92806027910E+02 -0.53665057003E+01  0.39223951877E+02  0.12909401044E+03  0.80529416557E+02 0.  0.
         -6    2    1    2    0  502  0.32379810134E+03  0.13354761855E+03  0.33596491878E+03  0.51674192793E+03  0.17739677723E+03 0.  0.
        -24    2    5    5    0    0  0.20443076717E+03  0.13151020889E+03  0.15375277592E+03  0.29885189486E+03  0.81152112400E+02 0.  0.
          5    1    3    3  501    0 -0.23099207343E+03 -0.12818111285E+03  0.16326714827E+03  0.31058974127E+03  0.47000000000E+01 0. -1.
        -11    1    4    4    0    0 -0.54974340130E+02  0.84362664219E+01  0.61624939903E+02  0.83011938189E+02  0.00000000000E+00 0.  1.
         12    1    4    4    0    0 -0.37831687781E+02 -0.13802772122E+02 -0.22400988025E+02  0.46082072253E+02  0.00000000000E+00 0. -1.
         -5    1    5    5    0  502  0.11936733417E+03  0.20374096593E+01  0.18221214286E+03  0.21789003307E+03  0.47000000000E+01 0.  1.
         13    1    6    6    0    0  0.19328222868E+03  0.12011774918E+03  0.16346055210E+03  0.28018858950E+03  0.00000000000E+00 0. -1.
        -14    1    6    6    0    0  0.11148538486E+02  0.11392459715E+02 -0.97077761737E+01  0.18663305360E+02  0.00000000000E+00 0.  1.
</event>
<event>
12    1  0.1066489E+000  0.4376493E+03  0.7818608E-02  0.1031777E+00
         21   -1    0    0  501  502  0.00000000000E+00  0.00000000000E+00  0.64768548271E+03  0.64768548271E+03  0.00000000000E+00 0. -1.
         21   -1    0    0  502  503 -0.00000000000E+00 -0.00000000000E+00 -0.29495240357E+03  0.29495240357E+03  0.00000000000E+00 0. -1.
         -6    2    1    2    0  503 -0.13453694767E+03  0.37874354740E+03  0.21327849503E+03  0.48330737781E+03  0.16294612611E+03 0.  0.
        -24    2    3    3    0    0 -0.50948903382E+02  0.14051500135E+03  0.14162729179E+03  0.22082730956E+03  0.79788185263E+02 0.  0.
          6    2    1    2  501    0  0.13453694767E+03 -0.37874354740E+03  0.13945458411E+03  0.45933050847E+03  0.17317641291E+03 0.  0.
         24    2    5    5    0    0  0.13714685842E+03 -0.18662063650E+03  0.65825073020E+02  0.25351160887E+03  0.79364178634E+02 0.  0.
          5    1    5    5  501    0 -0.26099107532E+01 -0.19212291091E+03  0.73629511087E+02  0.20581889960E+03  0.47000000000E+01 0. -1.
        -11    1    6    6    0    0  0.81246155436E+02 -0.11550460046E+03  0.79453395553E+02  0.16203423270E+03  0.00000000000E+00 0.  1.
         12    1    6    6    0    0  0.55900702983E+02 -0.71116036034E+02 -0.13628322533E+02  0.91477376167E+02  0.00000000000E+00 0. -1.
         -5    1    3    3    0  503 -0.83588044284E+02  0.23822854606E+03  0.71651203243E+02  0.26248006825E+03  0.47000000000E+01 0.  1.
         13    1    4    4    0    0  0.17328806204E+02  0.53783773641E+02  0.66697144507E+02  0.87415621698E+02  0.00000000000E+00 0. -1.
        -14    1    4    4    0    0 -0.68277709586E+02  0.86731227705E+02  0.74930147283E+02  0.13341168786E+03  0.00000000000E+00 0.  1.
</event>
<event>
12    1  0.1066489E+000  0.2787754E+03  0.7818608E-02  0.1096436E+00
         21   -1    0    0  501  502  0.00000000000E+00  0.00000000000E+00  0.42647305443E+03  0.42647305443E+03  0.00000000000E+00 0. -1.
         21   -1    0    0  502  503 -0.00000000000E+00 -0.00000000000E+00 -0.18189370067E+03  0.18189370067E+03  0.00000000000E+00 0.  1.
         -6    2    1    2    0  503 -0.20422771742E+03 -0.77134862492E+02  0.11831628720E+03  0.30233065308E+03  0.17247125093E+03 0.  0.
        -24    2    3    3    0    0 -0.64767116856E+02 -0.62385158838E+02  0.81030754033E+01  0.12390460419E+03  0.84852835186E+02 0.  0.
          6    2    1    2  501    0  0.20422771742E+03  0.77134862492E+02  0.12626306656E+03  0.30603610203E+03  0.17336950767E+03 0.  0.
         24    2    5    5    0    0  0.12855984868E+03  0.11875944419E+03  0.83025182937E+02  0.20934154819E+03  0.79367893506E+02 0.  0.
          5    1    5    5  501    0  0.75667868746E+02 -0.41624581696E+02  0.43237883623E+02  0.96694553839E+02  0.47000000000E+01 0. -1.
        -11    1    6    6    0    0  0.89603102437E+01  0.48460669988E+02  0.34334892033E+01  0.49401543938E+02  0.00000000000E+00 0.  1.
         12    1    6    6    0    0  0.11959953843E+03  0.70298774200E+02  0.79591693734E+02  0.15994000425E+03  0.00000000000E+00 0. -1.
         -5    1    3    3    0  503 -0.13946060057E+03 -0.14749703654E+02  0.11021321179E+03  0.17842604889E+03  0.47000000000E+01 0.  1.
         13    1    4    4    0    0  0.40412505659E+01 -0.97545387160E+01  0.32281851600E+02  0.33964697473E+02  0.00000000000E+00 0. -1.
        -14    1    4    4    0    0 -0.68808367422E+02 -0.52630620122E+02 -0.24178776196E+02  0.89939906716E+02  0.00000000000E+00 0.  1.
</event>
<event>
12    1  0.1066489E+000  0.4357535E+03  0.7818608E-02  0.1032081E+00
         21   -1    0    0  503  502  0.00000000000E+00  0.00000000000E+00  0.27185165423E+03  0.27185165423E+03  0.00000000000E+00 0. -1.
         21   -1    0    0  501  503 -0.00000000000E+00 -0.00000000000E+00 -0.77331781133E+03  0.77331781133E+03  0.00000000000E+00 0. -1.
          6    2    1    2  501    0 -0.30193076849E+03 -0.26282970058E+03 -0.41374267517E+03  0.60067368512E+03  0.17141830206E+03 0.  0.
         24    2    3    3    0    0 -0.24145431258E+03 -0.21662976332E+03 -0.24119256457E+03  0.41202727888E+03  0.79774594439E+02 0.  0.
         -6    2    1    2    0  502  0.30193076849E+03  0.26282970058E+03 -0.87723481934E+02  0.44449578045E+03  0.17216111375E+03 0.  0.
        -24    2    5    5    0    0  0.27881437752E+03  0.17760452421E+03 -0.10195956189E+03  0.35492762656E+03  0.79353914201E+02 0.  0.
          5    1    3    3  501    0 -0.60476455910E+02 -0.46199937253E+02 -0.17255011060E+03  0.18864640624E+03  0.47000000000E+01 0. -1.
        -11    1    4    4    0    0 -0.12151427489E+03 -0.65070656800E+02 -0.73873486060E+02  0.15638798330E+03  0.00000000000E+00 0.  1.
         12    1    4    4    0    0 -0.11994003769E+03 -0.15155910652E+03 -0.16731907851E+03  0.25563929558E+03  0.00000000000E+00 0. -1.
         -5    1    5    5    0  502  0.23116390961E+02  0.85225176367E+02  0.14236079961E+02  0.89568153886E+02  0.47000000000E+01 0.  1.
         11    1    6    6    0    0  0.19941319700E+02 -0.73530965114E+01 -0.15902833277E+01  0.21313217982E+02  0.00000000000E+00 0. -1.
        -12    1    6    6    0    0  0.25887305782E+03  0.18495762072E+03 -0.10036927857E+03  0.33361440858E+03  0.00000000000E+00 0.  1.
</event>
<event>
12    1  0.1066489E+000  0.2284621E+03  0.7818608E-02  0.1127922E+00
         21   -1    0    0  501  502  0.00000000000E+00  0.00000000000E+00  0.10634367553E+03  0.10634367553E+03  0.00000000000E+00 0. -1.
         21   -1    0    0  502  503 -0.00000000000E+00 -0.00000000000E+00 -0.60480355220E+03  0.60480355220E+03  0.00000000000E+00 0. -1.
         -6    2    1    2    0  503 -0.26916324535E+01  0.15042926647E+03 -0.40566733673E+03  0.46557588752E+03  0.17192646642E+03 0.  0.
        -24    2    3    3    0    0  0.38228012515E+02  0.12600632429E+03 -0.38297910236E+03  0.41258774330E+03  0.78845915407E+02 0.  0.
          6    2    1    2  501    0  0.26916324535E+01 -0.15042926647E+03 -0.92792539934E+02  0.24557134020E+03  0.17046588681E+03 0.  0.
         24    2    5    5    0    0  0.16013212403E+02 -0.68074232170E+02 -0.11732883314E+03  0.15848554428E+03  0.80380897012E+02 0.  0.
          5    1    5    5  501    0 -0.13321579950E+02 -0.82355034300E+02  0.24536293202E+02  0.87085795920E+02  0.47000000000E+01 0. -1.
        -11    1    6    6    0    0  0.45913418080E+02 -0.59875098363E+02 -0.86036540018E+02  0.11443494039E+03  0.00000000000E+00 0.  1.
         12    1    6    6    0    0 -0.29900205677E+02 -0.81991338070E+01 -0.31292293118E+02  0.44050603892E+02  0.00000000000E+00 0. -1.
         -5    1    3    3    0  503 -0.40919644968E+02  0.24422942182E+02 -0.22688234374E+02  0.52988144223E+02  0.47000000000E+01 0.  1.
         11    1    4    4    0    0  0.39462398574E+02  0.21548698326E+02 -0.75808121073E+02  0.88139086230E+02  0.00000000000E+00 0. -1.
        -12    1    4    4    0    0 -0.12343860597E+01  0.10445762596E+03 -0.30717098129E+03  0.32444865707E+03  0.00000000000E+00 0.  1.
</event>
<event>
12    1  0.1066489E+000  0.1959510E+03  0.7818608E-02  0.1153507E+00
         21   -1    0    0  503  502  0.00000000000E+00  0.00000000000E+00  0.56336758450E+03  0.56336758450E+03  0.00000000000E+00 0.  1.
         21   -1    0    0  501  503 -0.00000000000E+00 -0.00000000000E+00 -0.90393743290E+02  0.90393743290E+02  0.00000000000E+00 0.  1.
          6    2    1    2  501    0 -0.94211708839E+02  0.58890755105E+01  0.39975317692E+03  0.44457701784E+03  0.17010465910E+03 0.  0.
         24    2    3    3    0    0 -0.78681953631E+02 -0.50514444504E+02  0.33788431900E+03  0.35929879116E+03  0.78659070486E+02 0.  0.
         -6    2    1    2    0  502  0.94211708839E+02 -0.58890755105E+01  0.73220664295E+02  0.20918430995E+03  0.17171570271E+03 0.  0.
        -24    2    5    5    0    0  0.62029710853E+02 -0.28569034051E+02  0.11171301127E+03  0.15392300079E+03  0.80923535207E+02 0.  0.
          5    1    3    3  501    0 -0.15529755208E+02  0.56403520014E+02  0.61868857916E+02  0.85278226686E+02  0.47000000000E+01 0. -1.
        -13    1    4    4    0    0 -0.22051662272E+02 -0.60380390820E+02  0.19322393576E+03  0.20363584349E+03  0.00000000000E+00 0.  1.
         14    1    4    4    0    0 -0.56630291359E+02  0.98659463161E+01  0.14466038324E+03  0.15566294767E+03  0.00000000000E+00 0. -1.
         -5    1    5    5    0  502  0.32181997986E+02  0.22679958541E+02 -0.38492346978E+02  0.55261309156E+02  0.47000000000E+01 0.  1.
         11    1    6    6    0    0  0.80767246119E+02 -0.28859589280E+02  0.10034345255E+03  0.13200391058E+03  0.00000000000E+00 0. -1.
        -12    1    6    6    0    0 -0.18737535265E+02  0.29055522820E+00  0.11369558721E+02  0.21919090211E+02  0.00000000000E+00 0.  1.
</event>
<event>
12    1  0.1066489E+000  0.1776677E+03  0.7818608E-02  0.1170751E+00
         21   -1    0    0  501  502  0.00000000000E+00  0.00000000000E+00  0.26474522288E+02  0.26474522288E+02  0.00000000000E+00 0.  1.
         21   -1    0    0  502  503 -0.00000000000E+00 -0.00000000000E+00 -0.15373684217E+04  0.15373684217E+04  0.00000000000E+00 0.  1.
         -6    2    1    2    0  503  0.35736296757E+02 -0.60725663535E+01 -0.37985145846E+03  0.41934822853E+03  0.17393058188E+03 0.  0.
        -24    2    3    3    0    0  0.87451844479E+02 -0.11630709616E+02 -0.31519243484E+03  0.33623222425E+03  0.76959334298E+02 0.  0.
          6    2    1    2  501    0 -0.35736296757E+02  0.60725663535E+01 -0.11310424410E+04  0.11444947155E+04  0.17116422376E+03 0.  0.
         24    2    5    5    0    0 -0.66662395084E+02  0.23036929840E+01 -0.10753166345E+04  0.10804784404E+04  0.81722786684E+02 0.  0.
          5    1    5    5  501    0  0.30926098327E+02  0.37688733695E+01 -0.55725806467E+02  0.64016275045E+02  0.47000000000E+01 0. -1.
        -11    1    6    6    0    0 -0.28214428405E+02  0.13469344974E+02 -0.90420583740E+03  0.90474619292E+03  0.00000000000E+00 0.  1.
         12    1    6    6    0    0 -0.38447966679E+02 -0.11165651990E+02 -0.17111079713E+03  0.17573224753E+03  0.00000000000E+00 0. -1.
         -5    1    3    3    0  503 -0.51715547722E+02  0.55581432625E+01 -0.64659023618E+02  0.83116004283E+02  0.47000000000E+01 0.  1.
         11    1    4    4    0    0  0.38923741209E+02 -0.12641003002E+02 -0.25797070390E+03  0.26119673937E+03  0.00000000000E+00 0. -1.
        -12    1    4    4    0    0  0.48528103270E+02  0.10102933861E+01 -0.57221730940E+02  0.75035484882E+02  0.00000000000E+00 0.  1.
</event>
<event>
12    1  0.1066489E+000  0.2039617E+03  0.7818608E-02  0.1147106E+00
         21   -1    0    0  501  502  0.00000000000E+00  0.00000000000E+00  0.16391971116E+03  0.16391971116E+03  0.00000000000E+00 0.  1.
         21   -1    0    0  502  503 -0.00000000000E+00 -0.00000000000E+00 -0.25093379976E+03  0.25093379976E+03  0.00000000000E+00 0.  1.
         -6    2    1    2    0  503 -0.50861360411E+02 -0.94456033540E+02 -0.57796882345E+02  0.21199258784E+03  0.17346918296E+03 0.  0.
        -24    2    3    3    0    0 -0.22234507823E+02 -0.10915704131E+03  0.64366492962E+01  0.13999499826E+03  0.84543101899E+02 0.  0.
          6    2    1    2  501    0  0.50861360411E+02  0.94456033540E+02 -0.29217206260E+02  0.20286092308E+03  0.16967642357E+03 0.  0.
         24    2    5    5    0    0  0.46166741491E+02  0.78602488324E+01 -0.60560964146E+02  0.11052788168E+03  0.79722209691E+02 0.  0.
          5    1    5    5  501    0  0.46946189203E+01  0.86595784708E+02  0.31343757886E+02  0.92333041401E+02  0.47000000000E+01 0. -1.
        -13    1    6    6    0    0  0.40121900723E+02  0.39047733288E+02 -0.21011194529E+02  0.59799353575E+02  0.00000000000E+00 0.  1.
         14    1    6    6    0    0  0.60448407680E+01 -0.31187484455E+02 -0.39549769617E+02  0.50728528101E+02  0.00000000000E+00 0. -1.
         -5    1    3    3    0  503 -0.28626852588E+02  0.14701007770E+02 -0.64233531641E+02  0.71997589582E+02  0.47000000000E+01 0.  1.
         11    1    4    4    0    0 -0.39767078138E+02 -0.24758279937E+02 -0.18336469872E+02  0.50305258736E+02  0.00000000000E+00 0. -1.
        -12    1    4    4    0    0  0.17532570315E+02 -0.84398761373E+02  0.24773119168E+02  0.89689739527E+02  0.00000000000E+00 0.  1.
</event>
<event>
12    1  0.1066489E+000  0.4851508E+03  0.7818608E-02  0.1017782E+00
         21   -1    0    0  503  502  0.00000000000E+00  0.00000000000E+00  0.51052285719E+03  0.51052285719E+03  0.00000000000E+00 0. -1.
         21   -1    0    0  501  503 -0.00000000000E+00 -0.00000000000E+00 -0.46660172615E+03  0.46660172615E+03  0.00000000000E+00 0. -1.
          6    2    1    2  501    0  0.45046480286E+03 -0.46282142687E+02 -0.34824842758E+02  0.48562464575E+03  0.17192426105E+03 0.  0.
         24    2    3    3    0    0  0.33341548661E+03 -0.11684273430E+02  0.34243940496E+02  0.34530308001E+03  0.82214114634E+02 0.  0.
         -6    2    1    2    0  502 -0.45046480286E+03  0.46282142687E+02  0.78745973797E+02  0.49149993759E+03  0.17409964076E+03 0.  0.
        -24    2    5    5    0    0 -0.18800375708E+03  0.29121467993E+02  0.95592229836E+02  0.22789763173E+03  0.81277202038E+02 0.  0.
          5    1    3    3  501    0  0.11704931626E+03 -0.34597869257E+02 -0.69068783254E+02  0.14032156575E+03  0.47000000000E+01 0. -1.
        -13    1    4    4    0    0  0.24444459882E+03 -0.39540581319E+02  0.44226211855E+02  0.25154040884E+03  0.00000000000E+00 0.  1.
         14    1    4    4    0    0  0.88970887790E+02  0.27856307889E+02 -0.99822713593E+01  0.93762671170E+02  0.00000000000E+00 0. -1.
         -5    1    5    5    0  502 -0.26246104579E+03  0.17160674694E+02 -0.16846256038E+02  0.26360230586E+03  0.47000000000E+01 0.  1.
         11    1    6    6    0    0 -0.13396015799E+02 -0.19914137321E+02  0.27645462285E+01  0.24159238820E+02  0.00000000000E+00 0. -1.
        -12    1    6    6    0    0 -0.17460774128E+03  0.49035605313E+02  0.92827683607E+02  0.20373839291E+03  0.00000000000E+00 0.  1.
</event>
<event>
12    1  0.1066489E+000  0.2762577E+03  0.7818608E-02  0.1098053E+00
         21   -1    0    0  503  502  0.00000000000E+00  0.00000000000E+00  0.11807890395E+03  0.11807890395E+03  0.00000000000E+00 0. -1.
         21   -1    0    0  501  503 -0.00000000000E+00 -0.00000000000E+00 -0.73998200143E+03  0.73998200143E+03  0.00000000000E+00 0. -1.
          6    2    1    2  501    0  0.15629191576E+03  0.14317182945E+03 -0.15531953498E+03  0.31692661239E+03  0.17718065362E+03 0.  0.
         24    2    3    3    0    0  0.47652049429E+02  0.79350423359E+02 -0.74141974669E+01  0.12257159883E+03  0.80010118198E+02 0.  0.
         -6    2    1    2    0  502 -0.15629191576E+03 -0.14317182945E+03 -0.46658356250E+03  0.54113429299E+03  0.17378367754E+03 0.  0.
        -24    2    5    5    0    0 -0.94202245423E+02 -0.94774289473E+02 -0.42383440997E+03  0.45142905859E+03  0.79349599080E+02 0.  0.
          5    1    3    3  501    0  0.10863986633E+03  0.63821406092E+02 -0.14790533751E+03  0.19435501356E+03  0.47000000000E+01 0. -1.
        -13    1    4    4    0    0  0.62221223137E+02  0.72811748952E+02  0.12999117524E+02  0.96654065877E+02  0.00000000000E+00 0.  1.
         14    1    4    4    0    0 -0.14569173708E+02  0.65386744067E+01 -0.20413314991E+02  0.25917532955E+02  0.00000000000E+00 0. -1.
         -5    1    5    5    0  502 -0.62089670332E+02 -0.48397539978E+02 -0.42749152529E+02  0.89705234406E+02  0.47000000000E+01 0.  1.
         11    1    6    6    0    0 -0.36194089293E+02 -0.47367375150E+02 -0.30631662533E+03  0.31206338344E+03  0.00000000000E+00 0. -1.
        -12    1    6    6    0    0 -0.58008156131E+02 -0.47406914322E+02 -0.11751778464E+03  0.13936567515E+03  0.00000000000E+00 0.  1.
</event>
<event>
12    1  0.1066489E+000  0.1939042E+03  0.7818608E-02  0.1155114E+00
         21   -1    0    0  501  502  0.00000000000E+00  0.00000000000E+00  0.33027565185E+03  0.33027565185E+03  0.00000000000E+00 0.  1.
         21   -1    0    0  502  503 -0.00000000000E+00 -0.00000000000E+00 -0.11667423440E+03  0.11667423440E+03  0.00000000000E+00 0.  1.
         -6    2    1    2    0  503 -0.35543132291E+02 -0.81703133112E+02  0.14349751440E+03  0.24076216383E+03  0.17156971376E+03 0.  0.
        -24    2    3    3    0    0 -0.31186516181E+02 -0.61126997478E+02  0.12527993244E+02  0.10803137263E+03  0.82490716113E+02 0.  0.
          6    2    1    2  501    0  0.35543132291E+02  0.81703133112E+02  0.70103903052E+02  0.20618772243E+03  0.17222108884E+03 0.  0.
         24    2    5    5    0    0  0.82968198060E+02  0.47818558023E+02  0.82682146751E+02  0.14637465106E+03  0.73612938397E+02 0.  0.
          5    1    5    5  501    0 -0.47425065769E+02  0.33884575089E+02 -0.12578243699E+02  0.59813071370E+02  0.47000000000E+01 0. -1.
        -13    1    6    6    0    0  0.43144855005E+02 -0.15175947971E+02  0.24921500194E+02  0.52085209821E+02  0.00000000000E+00 0.  1.
         14    1    6    6    0    0  0.39823343055E+02  0.62994505994E+02  0.57760646557E+02  0.94289441234E+02  0.00000000000E+00 0. -1.
         -5    1    3    3    0  503 -0.43566161095E+01 -0.20576135634E+02  0.13096952115E+03  0.13273079120E+03  0.47000000000E+01 0.  1.
         13    1    4    4    0    0 -0.22345742918E+02  0.13919621119E+02 -0.11512685703E+02  0.28733778219E+02  0.00000000000E+00 0. -1.
        -14    1    4    4    0    0 -0.88407732633E+01 -0.75046618597E+02  0.24040678947E+02  0.79297594408E+02  0.00000000000E+00 0.  1.
</event>
<event>
12    1  0.1066489E+000  0.2015463E+03  0.7818608E-02  0.1149573E+00
         21   -1    0    0  501  502  0.00000000000E+00  0.00000000000E+00  0.13556646087E+03  0.13556646087E+03  0.00000000000E+00 0.  1.
         21   -1    0    0  502  503 -0.00000000000E+00 -0.00000000000E+00 -0.33158064171E+03  0.33158064171E+03  0.00000000000E+00 0.  1.
         -6    2    1    2    0  503 -0.62339094872E+02 -0.81552936180E+02 -0.18217129559E+02  0.20236788204E+03  0.17344697093E+03 0.  0.
        -24    2    3    3    0    0 -0.72570423244E+02 -0.24438589148E+01  0.26045727969E+02  0.11102119769E+03  0.79842893324E+02 0.  0.
          6    2    1    2  501    0  0.62339094872E+02  0.81552936180E+02 -0.17779705128E+03  0.26477922054E+03  0.16721004765E+03 0.  0.
         24    2    5    5    0    0  0.60803470699E+02  0.49495088132E+02 -0.19692100399E+03  0.22712448205E+03  0.81613863626E+02 0.  0.
          5    1    5    5  501    0  0.15356241738E+01  0.32057848049E+02  0.19123952711E+02  0.37654738486E+02  0.47000000000E+01 0. -1.
        -13    1    6    6    0    0 -0.17146736340E+02  0.17117457777E+02 -0.21248137224E+02  0.32225785690E+02  0.00000000000E+00 0.  1.
         14    1    6    6    0    0  0.77950207039E+02  0.32377630354E+02 -0.17567286677E+03  0.19489869636E+03  0.00000000000E+00 0. -1.
         -5    1    3    3    0  503  0.10231328371E+02 -0.79109077266E+02 -0.44262857528E+02  0.91346684355E+02  0.47000000000E+01 0.  1.
         13    1    4    4    0    0 -0.16374651840E+02 -0.35607225479E+02 -0.35880076786E+01  0.39355781384E+02  0.00000000000E+00 0. -1.
        -14    1    4    4    0    0 -0.56195771403E+02  0.33163366564E+02  0.29633735648E+02  0.71665416304E+02  0.00000000000E+00 0.  1.
</event>
<event>
12    1  0.1066489E+000  0.3142099E+03  0.7818608E-02  0.1079056E+00
         21   -1    0    0  503  502  0.00000000000E+00  0.00000000000E+00  0.51515449313E+03  0.51515449313E+03  0.00000000000E+00 0.  1.
         21   -1    0    0  501  503 -0.00000000000E+00 -0.00000000000E+00 -0.19411923846E+03  0.19411923846E+03  0.00000000000E+00 0. -1.
          6    2    1    2  501    0 -0.38062645153E+02 -0.25789967457E+03  0.22187989831E+03  0.37978982485E+03  0.16446463052E+03 0.  0.
         24    2    3    3    0    0 -0.10522843342E+02 -0.26158497175E+03  0.22076363371E+03  0.35158773015E+03  0.79623629296E+02 0.  0.
         -6    2    1    2    0  502  0.38062645153E+02  0.25789967457E+03  0.99155356368E+02  0.32948390674E+03  0.17540482607E+03 0.  0.
        -24    2    5    5    0    0  0.53146777123E+01  0.41903930585E+02  0.59739336909E+02  0.10744268674E+03  0.78682636983E+02 0.  0.
          5    1    3    3  501    0 -0.27539801811E+02  0.36852971840E+01  0.11162645951E+01  0.28202094705E+02  0.47000000000E+01 0. -1.
        -13    1    4    4    0    0 -0.45038130429E+02 -0.13286446277E+03  0.11744097214E+03  0.18295841221E+03  0.00000000000E+00 0.  1.
         14    1    4    4    0    0  0.34515287087E+02 -0.12872050898E+03  0.10332266157E+03  0.16862931793E+03  0.00000000000E+00 0. -1.
         -5    1    5    5    0  502  0.32747967441E+02  0.21599574398E+03  0.39416019459E+02  0.22204122000E+03  0.47000000000E+01 0.  1.
         11    1    6    6    0    0  0.31084114435E+02  0.18202381738E+02  0.62694957468E+02  0.72306338333E+02  0.00000000000E+00 0. -1.
        -12    1    6    6    0    0 -0.25769436722E+02  0.23701548847E+02 -0.29556205598E+01  0.35136348410E+02  0.00000000000E+00 0.  1.
</event>
<event>
12    1  0.1066489E+000  0.2747501E+03  0.7818608E-02  0.1098612E+00
         21   -1    0    0  503  502  0.00000000000E+00  0.00000000000E+00  0.26145465777E+04  0.26145465777E+04  0.00000000000E+00 0.  1.
         21   -1    0    0  501  503 -0.00000000000E+00 -0.00000000000E+00 -0.33334600743E+02  0.33334600743E+02  0.00000000000E+00 0. -1.
          6    2    1    2  501    0 -0.16245592059E+03  0.14002964739E+03  0.17755566200E+04  0.17966654630E+04  0.17147958155E+03 0.  0.
         24    2    3    3    0    0 -0.11634694576E+03  0.49387416604E+02  0.13954854247E+04  0.14031959533E+04  0.74857091608E+02 0.  0.
         -6    2    1    2    0  502  0.16245592059E+03 -0.14002964739E+03  0.80565535699E+03  0.85121571546E+03  0.17171899054E+03 0.  0.
        -24    2    5    5    0    0  0.83859667710E+02 -0.53345444302E+02  0.61091975642E+03  0.62398110946E+03  0.79065136989E+02 0.  0.
          5    1    3    3  501    0 -0.46108974837E+02  0.90642230790E+02  0.38007119529E+03  0.39346950969E+03  0.47000000000E+01 0. -1.
        -13    1    4    4    0    0 -0.58741373732E+02 -0.87328051602E+01  0.40430566276E+03  0.40864395237E+03  0.00000000000E+00 0.  1.
         14    1    4    4    0    0 -0.57605572024E+02  0.58120221764E+02  0.99117976192E+03  0.99455200093E+03  0.00000000000E+00 0. -1.
         -5    1    5    5    0  502  0.78596252883E+02 -0.86684203092E+02  0.19473560058E+03  0.22723460600E+03  0.47000000000E+01 0.  1.
         11    1    6    6    0    0  0.71019474175E+02  0.11267513706E+01  0.34524558383E+03  0.35247630904E+03  0.00000000000E+00 0. -1.
        -12    1    6    6    0    0  0.12840193535E+02 -0.54472195672E+02  0.26567417259E+03  0.27150480042E+03  0.00000000000E+00 0.  1.
</event>
<event>
12    1  0.1066489E+000  0.1118248E+04  0.7818608E-02  0.9187623E-01
         21   -1    0    0  503  502  0.00000000000E+00  0.00000000000E+00  0.21907680672E+04  0.21907680672E+04  0.00000000000E+00 0. -1.
         21   -1    0    0  501  503 -0.00000000000E+00 -0.00000000000E+00 -0.64174679495E+03  0.64174679495E+03  0.00000000000E+00 0. -1.
          6    2    1    2  501    0  0.35779226970E+03 -0.10453989940E+04  0.30329054286E+03  0.11585008953E+04  0.17106959402E+03 0.  0.
         24    2    3    3    0    0  0.33957423361E+03 -0.91119638580E+03  0.30733035374E+03  0.10229256506E+04  0.79595393856E+02 0.  0.
         -6    2    1    2    0  502 -0.35779226970E+03  0.10453989940E+04  0.12457307294E+04  0.16740139669E+04  0.17205622991E+03 0.  0.
        -24    2    5    5    0    0 -0.29297150128E+03  0.91145796514E+03  0.99998187960E+03  0.13866874655E+04  0.79689677042E+02 0.  0.
          5    1    3    3  501    0  0.18218036090E+02 -0.13420260821E+03 -0.40398108847E+01  0.13557524465E+03  0.47000000000E+01 0. -1.
        -13    1    4    4    0    0  0.23237130566E+03 -0.51433480700E+03  0.16783815708E+03  0.58881776838E+03  0.00000000000E+00 0.  1.
         14    1    4    4    0    0  0.10720292795E+03 -0.39686157881E+03  0.13949219666E+03  0.43410788224E+03  0.00000000000E+00 0. -1.
         -5    1    5    5    0  502 -0.64820768425E+02  0.13394102887E+03  0.24574884980E+03  0.28732650141E+03  0.47000000000E+01 0.  1.
         13    1    6    6    0    0 -0.10027988228E+03  0.21093894500E+03  0.26455922818E+03  0.35290633109E+03  0.00000000000E+00 0. -1.
        -14    1    6    6    0    0 -0.19269161899E+03  0.70051902014E+03  0.73542265142E+03  0.10337811344E+04  0.00000000000E+00 0.  1.
</event>
<event>
12    1  0.1066489E+000  0.2320375E+03  0.7818608E-02  0.1125252E+00
         21   -1    0    0  503  502  0.00000000000E+00  0.00000000000E+00  0.86622770355E+03  0.86622770355E+03  0.00000000000E+00 0. -1.
         21   -1    0    0  501  503 -0.00000000000E+00 -0.00000000000E+00 -0.64710460950E+02  0.64710460950E+02  0.00000000000E+00 0. -1.
          6    2    1    2  501    0  0.15453444271E+03  0.13132710826E+02  0.49448695532E+03  0.54622226570E+03  0.17259215652E+03 0.  0.
         24    2    3    3    0    0  0.16845718678E+03  0.44488081071E+02  0.43227951211E+03  0.47502635264E+03  0.91801121877E+02 0.  0.
         -6    2    1    2    0  502 -0.15453444271E+03 -0.13132710826E+02  0.30703028728E+03  0.38471589880E+03  0.17229440909E+03 0.  0.
        -24    2    5    5    0    0 -0.64871856593E+02 -0.62992570362E+02  0.21669146060E+03  0.24793659280E+03  0.79630039914E+02 0.  0.
          5    1    3    3  501    0 -0.13922744076E+02 -0.31355370245E+02  0.62207443211E+02  0.71195913062E+02  0.47000000000E+01 0. -1.
        -13    1    4    4    0    0  0.98586389458E+02 -0.15017231968E+02  0.28000685860E+03  0.29723498163E+03  0.00000000000E+00 0.  1.
         14    1    4    4    0    0  0.69870797326E+02  0.59505313038E+02  0.15227265351E+03  0.17779137101E+03  0.00000000000E+00 0. -1.
         -5    1    5    5    0  502 -0.89662586114E+02  0.49859859537E+02  0.90338826687E+02  0.13677930600E+03  0.47000000000E+01 0.  1.
         11    1    6    6    0    0 -0.85518403137E+01  0.13252786485E+02  0.80338101931E+02  0.81871734708E+02  0.00000000000E+00 0. -1.
        -12    1    6    6    0    0 -0.56320016279E+02 -0.76245356847E+02  0.13635335867E+03  0.16606485809E+03  0.00000000000E+00 0.  1.
</event>
<event>
12    1  0.1066489E+000  0.2040779E+03  0.7818608E-02  0.1146537E+00
         21   -1    0    0  503  502  0.00000000000E+00  0.00000000000E+00  0.51408818394E+03  0.51408818394E+03  0.00000000000E+00 0.  1.
         21   -1    0    0  501  503 -0.00000000000E+00 -0.00000000000E+00 -0.81788740473E+02  0.81788740473E+02  0.00000000000E+00 0. -1.
          6    2    1    2  501    0  0.10501435487E+03  0.28514299125E+02  0.18034748291E+03  0.27164308401E+03  0.17153329274E+03 0.  0.
         24    2    3    3    0    0  0.13181619502E+03  0.33336988575E+02  0.10146778222E+03  0.18806261890E+03  0.81147851006E+02 0.  0.
         -6    2    1    2    0  502 -0.10501435487E+03 -0.28514299125E+02  0.25195196056E+03  0.32423384040E+03  0.17264620716E+03 0.  0.
        -24    2    5    5    0    0 -0.13557040473E+03 -0.44270410484E+02  0.13713245734E+03  0.20428578686E+03  0.50874040284E+02 0.  0.
          5    1    3    3  501    0 -0.26801840143E+02 -0.48226894494E+01  0.78879700683E+02  0.83580465112E+02  0.47000000000E+01 0. -1.
        -11    1    4    4    0    0  0.35840597261E+02  0.49390980441E+02  0.39977815881E+02  0.72953705345E+02  0.00000000000E+00 0.  1.
         12    1    4    4    0    0  0.95975597755E+02 -0.16053991866E+02  0.61489966342E+02  0.11510891356E+03  0.00000000000E+00 0. -1.
         -5    1    5    5    0  502  0.30556049853E+02  0.15756111358E+02  0.11481950323E+03  0.11994805354E+03  0.47000000000E+01 0.  1.
         13    1    6    6    0    0 -0.99307411820E+02 -0.34183017459E+02  0.12796422422E+03  0.16554541191E+03  0.00000000000E+00 0. -1.
        -14    1    6    6    0    0 -0.36262992907E+02 -0.10087393025E+02  0.91682331200E+01  0.38740374948E+02  0.00000000000E+00 0.  1.
</event>
<event>
12    1  0.1066489E+000  0.3439131E+03  0.7818608E-02  0.1065393E+00
         21   -1    0    0  501  502  0.00000000000E+00  0.00000000000E+00  0.30851420469E+03  0.30851420469E+03  0.00000000000E+00 0. -1.
         21   -1    0    0  502  503 -0.00000000000E+00 -0.00000000000E+00 -0.39195133281E+03  0.39195133281E+03  0.00000000000E+00 0.  1.
         -6    2    1    2    0  503 -0.29361947956E+03 -0.45272563395E+02  0.17729546277E+02  0.34198136753E+03  0.16844855343E+03 0.  0.
        -24    2    3    3    0    0 -0.28108549245E+03 -0.47628419219E+02  0.55947516046E+02  0.30141840286E+03  0.80283302441E+02 0.  0.
          6    2    1    2  501    0  0.29361947956E+03  0.45272563395E+02 -0.10116667440E+03  0.35848416997E+03  0.17324606874E+03 0.  0.
         24    2    5    5    0    0  0.19148591914E+03  0.96022530147E+02 -0.47931958584E+02  0.23253637023E+03  0.76736609924E+02 0.  0.
          5    1    5    5  501    0  0.10213356043E+03 -0.50749966751E+02 -0.53234715817E+02  0.12594779974E+03  0.47000000000E+01 0. -1.
        -11    1    6    6    0    0  0.63975304486E+02  0.16216939782E+02  0.17829079029E+02  0.68364499405E+02  0.00000000000E+00 0.  1.
         12    1    6    6    0    0  0.12751061465E+03  0.79805590365E+02 -0.65761037613E+02  0.16417187083E+03  0.00000000000E+00 0. -1.
         -5    1    3    3    0  503 -0.12533987119E+02  0.23558558232E+01 -0.38217969768E+02  0.40562964672E+02  0.47000000000E+01 0.  1.
         13    1    4    4    0    0 -0.13670976630E+03 -0.12873609711E+02 -0.12540411375E+02  0.13788601070E+03  0.00000000000E+00 0. -1.
        -14    1    4    4    0    0 -0.14437572615E+03 -0.34754809507E+02  0.68487927421E+02  0.16353239216E+03  0.00000000000E+00 0.  1.
</event>
<event>
12    1  0.1066489E+000  0.4565170E+03  0.7818608E-02  0.1025838E+00
         21   -1    0    0  503  502  0.00000000000E+00  0.00000000000E+00  0.11217039412E+04  0.11217039412E+04  0.00000000000E+00 0.  1.
         21   -1    0    0  501  503 -0.00000000000E+00 -0.00000000000E+00 -0.26150268305E+03  0.26150268305E+03  0.00000000000E+00 0.  1.
          6    2    1    2  501    0  0.33620541833E+03 -0.25642906779E+03  0.80260194579E+03  0.92307029481E+03  0.17058410140E+03 0.  0.
         24    2    3    3    0    0  0.34109636886E+03 -0.22032079718E+03  0.68931358584E+03  0.80397339685E+03  0.79573969971E+02 0.  0.
         -6    2    1    2    0  502 -0.33620541833E+03  0.25642906779E+03  0.57599312351E+02  0.46013632944E+03  0.17209825906E+03 0.  0.
        -24    2    5    5    0    0 -0.33867707345E+03  0.20210921941E+03  0.47772005837E+02  0.40467985137E+03  0.77028052741E+02 0.  0.
          5    1    3    3  501    0 -0.48909505301E+01 -0.36108270610E+02  0.11328835995E+03  0.11909689796E+03  0.47000000000E+01 0. -1.
        -11    1    4    4    0    0  0.39289905657E+02 -0.51949266516E+02  0.14864580485E+03  0.16228985883E+03  0.00000000000E+00 0.  1.
         12    1    4    4    0    0  0.30180646320E+03 -0.16837153066E+03  0.54066778099E+03  0.64168353802E+03  0.00000000000E+00 0. -1.
         -5    1    5    5    0  502  0.24716551286E+01  0.54319848379E+02  0.98273065136E+01  0.55456478073E+02  0.47000000000E+01 0.  1.
         13    1    6    6    0    0 -0.22984776868E+03  0.16537202141E+03  0.59103335030E+02  0.28925958315E+03  0.00000000000E+00 0. -1.
        -14    1    6    6    0    0 -0.10882930478E+03  0.36737197999E+02 -0.11331329193E+02  0.11542026822E+03  0.00000000000E+00 0.  1.
</event>
<event>
12    1  0.1066489E+000  0.2078831E+03  0.7818608E-02  0.1144345E+00
         21   -1    0    0  503  502  0.00000000000E+00  0.00000000000E+00  0.48611817237E+03  0.48611817237E+03  0.00000000000E+00 0. -1.
         21   -1    0    0  501  503 -0.00000000000E+00 -0.00000000000E+00 -0.12051823514E+03  0.12051823514E+03  0.00000000000E+00 0. -1.
          6    2    1    2  501    0 -0.14056487678E+02 -0.10798943583E+03  0.34193806236E+03  0.39741103889E+03  0.17074715882E+03 0.  0.
         24    2    3    3    0    0 -0.61943464167E+02 -0.11263893662E+03  0.25433290125E+03  0.29735338237E+03  0.84907517655E+02 0.  0.
         -6    2    1    2    0  502  0.14056487678E+02  0.10798943583E+03  0.23661874872E+02  0.20922536861E+03  0.17707644522E+03 0.  0.
        -24    2    5    5    0    0 -0.69582645202E+02  0.27749816824E+02  0.14337092496E+02  0.92851219535E+02  0.52952808242E+02 0.  0.
          5    1    3    3  501    0  0.47886976490E+02  0.46495007906E+01  0.87605161116E+02  0.10005765652E+03  0.47000000000E+01 0. -1.
        -13    1    4    4    0    0 -0.51586453460E+02 -0.11210167796E+03  0.25828888826E+03  0.28625355575E+03  0.00000000000E+00 0.  1.
         14    1    4    4    0    0 -0.10357010708E+02 -0.53725866194E+00 -0.39559870151E+01  0.11099826617E+02  0.00000000000E+00 0. -1.
         -5    1    5    5    0  502  0.83639132880E+02  0.80239619005E+02  0.93247823758E+01  0.11637414908E+03  0.47000000000E+01 0.  1.
         11    1    6    6    0    0 -0.26408228952E+02  0.27818576432E+02  0.28086018746E+02  0.47540427007E+02  0.00000000000E+00 0. -1.
        -12    1    6    6    0    0 -0.43174416250E+02 -0.68759607263E-01 -0.13748926250E+02  0.45310792528E+02  0.00000000000E+00 0.  1.
</event>
<event>
12    1  0.1066489E+000  0.2221337E+03  0.7818608E-02  0.1134467E+00
         21   -1    0    0  503  502  0.00000000000E+00  0.00000000000E+00  0.77165117497E+03  0.77165117497E+03  0.00000000000E+00 0.  1.
         21   -1    0    0  501  503 -0.00000000000E+00 -0.00000000000E+00 -0.72334400389E+02  0.72334400389E+02  0.00000000000E+00 0.  1.
          6    2    1    2  501    0 -0.68490763901E-01 -0.11850104682E+03  0.17269459743E+03  0.27243127669E+03  0.17422076153E+03 0.  0.
         24    2    3    3    0    0  0.54933234659E+02 -0.21729301462E+02  0.65333466155E+02  0.11771068010E+03  0.78086616001E+02 0.  0.
         -6    2    1    2    0  502  0.68490763901E-01  0.11850104682E+03  0.52662217715E+03  0.57155429867E+03  0.18788532693E+03 0.  0.
        -24    2    5    5    0    0 -0.70856043232E+02  0.10308515117E+03  0.31680155482E+03  0.34948511370E+03  0.78291074221E+02 0.  0.
          5    1    3    3  501    0 -0.55001725423E+02 -0.96771745356E+02  0.10736113128E+03  0.15472059658E+03  0.47000000000E+01 0. -1.
        -11    1    4    4    0    0  0.79016726814E+00  0.25414349001E+02  0.23482842673E+02  0.34611521195E+02  0.00000000000E+00 0.  1.
         12    1    4    4    0    0  0.54143067391E+02 -0.47143650463E+02  0.41850623482E+02  0.83099158908E+02  0.00000000000E+00 0. -1.
         -5    1    5    5    0  502  0.70924533996E+02  0.15415895645E+02  0.20982062232E+03  0.22206918497E+03  0.47000000000E+01 0.  1.
         11    1    6    6    0    0 -0.30384513517E+02  0.45996647811E+02  0.23709039837E+03  0.24341480496E+03  0.00000000000E+00 0. -1.
        -12    1    6    6    0    0 -0.40471529716E+02  0.57088503363E+02  0.79711156451E+02  0.10607030874E+03  0.00000000000E+00 0.  1.
</event>
<event>
12    1  0.1066489E+000  0.2629089E+03  0.7818608E-02  0.1105529E+00
         21   -1    0    0  503  502  0.00000000000E+00  0.00000000000E+00  0.11677473085E+03  0.11677473085E+03  0.00000000000E+00 0.  1.
         21   -1    0    0  501  503 -0.00000000000E+00 -0.00000000000E+00 -0.59068477430E+03  0.59068477430E+03  0.00000000000E+00 0.  1.
          6    2    1    2  501    0  0.12745800697E+03  0.15110413300E+03 -0.24782463975E+03  0.36070927764E+03  0.17209337105E+03 0.  0.
         24    2    3    3    0    0  0.12986731755E+03  0.14554607781E+03 -0.26716515535E+03  0.33990441526E+03  0.78157599427E+02 0.  0.
         -6    2    1    2    0  502 -0.12745800697E+03 -0.15110413300E+03 -0.22608540370E+03  0.34675022752E+03  0.17332947806E+03 0.  0.
        -24    2    5    5    0    0 -0.14884906359E+03 -0.14744879112E+03 -0.15528082107E+03  0.27254566061E+03  0.79194785118E+02 0.  0.
          5    1    3    3  501    0 -0.24093105869E+01  0.55580551950E+01  0.19340515599E+02  0.20804862381E+02  0.47000000000E+01 0. -1.
        -11    1    4    4    0    0 -0.28923265617E+01  0.17726279486E+02 -0.36293528949E+01  0.18323720687E+02  0.00000000000E+00 0.  1.
         12    1    4    4    0    0  0.13275964411E+03  0.12781979832E+03 -0.26353580245E+03  0.32158069457E+03  0.00000000000E+00 0. -1.
         -5    1    5    5    0  502  0.21391056624E+02 -0.36553418793E+01 -0.70804582638E+02  0.74204566910E+02  0.47000000000E+01 0.  1.
         13    1    6    6    0    0 -0.11384863357E+03 -0.15045508137E+03 -0.12684361760E+03  0.22734895250E+03  0.00000000000E+00 0. -1.
        -14    1    6    6    0    0 -0.35000430023E+02  0.30062902520E+01 -0.28437203468E+02  0.45196708109E+02  0.00000000000E+00 0.  1.
</event>
<event>
12    1  0.1066489E+000  0.3450061E+03  0.7818608E-02  0.1064757E+00
         21   -1    0    0  503  502  0.00000000000E+00  0.00000000000E+00  0.13864921033E+03  0.13864921033E+03  0.00000000000E+00 0.  1.
         21   -1    0    0  501  503 -0.00000000000E+00 -0.00000000000E+00 -0.11561228833E+04  0.11561228833E+04  0.00000000000E+00 0.  1.
          6    2    1    2  501    0  0.15174686832E+03  0.25748118941E+03 -0.17968627602E+03  0.38899404028E+03  0.17235292466E+03 0.  0.
         24    2    3    3    0    0  0.11899943193E+03  0.88759930172E+02 -0.61113574147E+02  0.18013802879E+03  0.81704653883E+02 0.  0.
         -6    2    1    2    0  502 -0.15174686832E+03 -0.25748118941E+03 -0.83778739692E+03  0.90577805332E+03  0.17094585248E+03 0.  0.
        -24    2    5    5    0    0 -0.54983779531E+02 -0.65889084579E+02 -0.21743789906E+03  0.24932834505E+03  0.86722524290E+02 0.  0.
          5    1    3    3  501    0  0.32747436391E+02  0.16872125924E+03 -0.11857270187E+03  0.20885601149E+03  0.47000000000E+01 0. -1.
        -13    1    4    4    0    0  0.54387677862E+02 -0.25841206353E+01 -0.36575404089E+02  0.65593119814E+02  0.00000000000E+00 0.  1.
         14    1    4    4    0    0  0.64611754071E+02  0.91344050808E+02 -0.24538170058E+02  0.11454490897E+03  0.00000000000E+00 0. -1.
         -5    1    5    5    0  502 -0.96763088793E+02 -0.19159210483E+03 -0.62034949786E+03  0.65644970827E+03  0.47000000000E+01 0.  1.
         13    1    6    6    0    0 -0.55911638551E+02 -0.77991236430E+02 -0.21689857418E+03  0.23717870007E+03  0.00000000000E+00 0. -1.
        -14    1    6    6    0    0  0.92785902038E+00  0.12102151851E+02 -0.53932487879E+00  0.12149644979E+02  0.00000000000E+00 0.  1.
</event>
<event>
12    1  0.1066489E+000  0.2557100E+03  0.7818608E-02  0.1109982E+00
         21   -1    0    0  501  502  0.00000000000E+00  0.00000000000E+00  0.51796862187E+02  0.51796862187E+02  0.00000000000E+00 0. -1.
         21   -1    0    0  502  503 -0.00000000000E+00 -0.00000000000E+00 -0.12556267656E+04  0.12556267656E+04  0.00000000000E+00 0. -1.
         -6    2    1    2    0  503  0.16763725189E+03  0.82086968412E+02 -0.61921436265E+03  0.66993582466E+03  0.17477718283E+03 0.  0.
        -24    2    3    3    0    0  0.10181787222E+03 -0.16339913149E+02 -0.39922857599E+03  0.42006410139E+03  0.80227934822E+02 0.  0.
          6    2    1    2  501    0 -0.16763725189E+03 -0.82086968412E+02 -0.58461554075E+03  0.63748780312E+03  0.17255390472E+03 0.  0.
         24    2    5    5    0    0 -0.41366803522E+02 -0.67748949964E+02 -0.38281443949E+03  0.39895986057E+03  0.79504355931E+02 0.  0.
          5    1    5    5  501    0 -0.12627044837E+03 -0.14338018448E+02 -0.20180110126E+03  0.23852794254E+03  0.47000000000E+01 0. -1.
        -11    1    6    6    0    0 -0.35672079410E+02 -0.42573883029E+02 -0.95417601378E+02  0.11040630153E+03  0.00000000000E+00 0.  1.
         12    1    6    6    0    0 -0.56947241123E+01 -0.25175066935E+02 -0.28739683811E+03  0.28855355904E+03  0.00000000000E+00 0. -1.
         -5    1    3    3    0  503  0.65819379675E+02  0.98426881561E+02 -0.21998578666E+03  0.24987172326E+03  0.47000000000E+01 0.  1.
         11    1    4    4    0    0  0.27318061622E+02 -0.43379127965E+02 -0.16620164068E+03  0.17392817655E+03  0.00000000000E+00 0. -1.
        -12    1    4    4    0    0  0.74499810597E+02  0.27039214816E+02 -0.23302693531E+03  0.24613592484E+03  0.00000000000E+00 0.  1.
</event>
<event>
12    1  0.1066489E+000  0.2917167E+03  0.7818608E-02  0.1089667E+00
         21   -1    0    0  501  502  0.00000000000E+00  0.00000000000E+00  0.20913249142E+03  0.20913249142E+03  0.00000000000E+00 0.  1.
         21   -1    0    0  502  503 -0.00000000000E+00 -0.00000000000E+00 -0.43023041366E+03  0.43023041366E+03  0.00000000000E+00 0.  1.
         -6    2    1    2    0  503  0.18019096817E+03  0.14923214118E+03 -0.32889554758E+02  0.29356490208E+03  0.17424009858E+03 0.  0.
        -24    2    3    3    0    0  0.11042932577E+03  0.47549578369E+02 -0.76283496256E+02  0.16275529048E+03  0.78832191291E+02 0.  0.
          6    2    1    2  501    0 -0.18019096817E+03 -0.14923214118E+03 -0.18820836749E+03  0.34579800300E+03  0.17150758676E+03 0.  0.
         24    2    5    5    0    0 -0.96591244818E+02 -0.53352804940E+02 -0.24723421278E+02  0.13859959929E+03  0.80138698478E+02 0.  0.
          5    1    5    5  501    0 -0.83599723355E+02 -0.95879336237E+02 -0.16348494621E+03  0.20719840371E+03  0.47000000000E+01 0. -1.
        -11    1    6    6    0    0 -0.29231559373E+02 -0.54928466839E+02 -0.33475048267E+02  0.70655497939E+02  0.00000000000E+00 0.  1.
         12    1    6    6    0    0 -0.67359685445E+02  0.15756618981E+01  0.87516269886E+01  0.67944101352E+02  0.00000000000E+00 0. -1.
         -5    1    3    3    0  503  0.69761642398E+02  0.10168256281E+03  0.43393941499E+02  0.13080961161E+03  0.47000000000E+01 0.  1.
         11    1    4    4    0    0  0.45165414149E+02  0.53857339138E+02 -0.12712380855E+02  0.71429211400E+02  0.00000000000E+00 0. -1.
        -12    1    4    4    0    0  0.65263911625E+02 -0.63077607688E+01 -0.63571115401E+02  0.91326079078E+02  0.00000000000E+00 0.  1.
</event>
<event>
12    1  0.1066489E+000  0.1890254E+03  0.7818608E-02  0.1160068E+00
         21   -1    0    0  503  502  0.00000000000E+00  0.00000000000E+00  0.41369173464E+03  0.41369173464E+03  0.00000000000E+00 0. -1.
         21   -1    0    0  501  503 -0.00000000000E+00 -0.00000000000E+00 -0.91194834887E+02  0.91194834887E+02  0.00000000000E+00 0. -1.
          6    2    1    2  501    0  0.82758723855E+02 -0.63356554787E+00  0.22613874099E+03  0.29271798891E+03  0.16642020032E+03 0.  0.
         24    2    3    3    0    0  0.66455741367E+02 -0.30684440223E+02  0.23350133122E+03  0.25743144698E+03  0.79938587545E+02 0.  0.
         -6    2    1    2    0  502 -0.82758723855E+02  0.63356554787E+00  0.96358158755E+02  0.21216858061E+03  0.16994470884E+03 0.  0.
        -24    2    5    5    0    0 -0.86784408470E+02 -0.47681626840E+02  0.10361036283E+03  0.16292176939E+03  0.77481123911E+02 0.  0.
          5    1    3    3  501    0  0.16302982489E+02  0.30050874675E+02 -0.73625902250E+01  0.35286541933E+02  0.47000000000E+01 0. -1.
        -13    1    4    4    0    0  0.33060794298E+02 -0.49032057330E+02  0.81298518463E+02  0.10053162622E+03  0.00000000000E+00 0.  1.
         14    1    4    4    0    0  0.33394947069E+02  0.18347617107E+02  0.15220281276E+03  0.15689982076E+03  0.00000000000E+00 0. -1.
         -5    1    5    5    0  502  0.40256846143E+01  0.48315192387E+02 -0.72522040771E+01  0.49246811227E+02  0.47000000000E+01 0.  1.
         13    1    6    6    0    0 -0.30407045174E+02 -0.60193856577E+02  0.48231104722E+02  0.82910362613E+02  0.00000000000E+00 0. -1.
        -14    1    6    6    0    0 -0.56377363295E+02  0.12512229738E+02  0.55379258110E+02  0.80011406774E+02  0.00000000000E+00 0.  1.
</event>
<event>
12    1  0.1066489E+000  0.2035936E+03  0.7818608E-02  0.1147551E+00
         21   -1    0    0  501  502  0.00000000000E+00  0.00000000000E+00  0.71431166293E+03  0.71431166293E+03  0.00000000000E+00 0.  1.
         21   -1    0    0  502  503 -0.00000000000E+00 -0.00000000000E+00 -0.58099967600E+02  0.58099967600E+02  0.00000000000E+00 0.  1.
         -6    2    1    2    0  503  0.20109828739E+02  0.10050354742E+03  0.38609790529E+03  0.43648819437E+03  0.17591186175E+03 0.  0.
        -24    2    3    3    0    0  0.33779442912E+02  0.13444851326E+03  0.25997988292E+03  0.30508437166E+03  0.79180053227E+02 0.  0.
          6    2    1    2  501    0 -0.20109828739E+02 -0.10050354742E+03  0.27011379004E+03  0.33592343616E+03  0.17139932069E+03 0.  0.
         24    2    5    5    0    0  0.13934223795E+02 -0.26575228334E+02  0.22950373304E+03  0.24484291900E+03  0.79847893840E+02 0.  0.
          5    1    5    5  501    0 -0.34044052534E+02 -0.73928319088E+02  0.40610057004E+02  0.91080517159E+02  0.47000000000E+01 0. -1.
        -11    1    6    6    0    0 -0.26659109196E+02 -0.34262313666E+02  0.13171729887E+03  0.13868691741E+03  0.00000000000E+00 0.  1.
         12    1    6    6    0    0  0.40593332991E+02  0.76870853318E+01  0.97786434171E+02  0.10615600158E+03  0.00000000000E+00 0. -1.
         -5    1    3    3    0  503 -0.13669614173E+02 -0.33944965834E+02  0.12611802237E+03  0.13140382271E+03  0.47000000000E+01 0.  1.
         11    1    4    4    0    0  0.30519582521E+02  0.71429714424E+02  0.68818087707E+02  0.10377657836E+03  0.00000000000E+00 0. -1.
        -12    1    4    4    0    0  0.32598603908E+01  0.63018798831E+02  0.19116179521E+03  0.20130779330E+03  0.00000000000E+00 0.  1.
</event>
<event>
12    1  0.1066489E+000  0.3478237E+03  0.7818608E-02  0.1063515E+00
         21   -1    0    0  501  502  0.00000000000E+00  0.00000000000E+00  0.74124507023E+03  0.74124507023E+03  0.00000000000E+00 0.  1.
         21   -1    0    0  502  503 -0.00000000000E+00 -0.00000000000E+00 -0.21093373314E+03  0.21093373314E+03  0.00000000000E+00 0.  1.
         -6    2    1    2    0  503  0.23417664249E+03  0.19077687157E+03  0.49162402771E+03  0.60221014711E+03  0.17241914641E+03 0.  0.
        -24    2    3    3    0    0  0.23899196616E+03  0.19735202296E+03  0.40798594863E+03  0.51804460648E+03  0.76502935678E+02 0.  0.
          6    2    1    2  501    0 -0.23417664249E+03 -0.19077687157E+03  0.38687309378E+02  0.34996865626E+03  0.17247271624E+03 0.  0.
         24    2    5    5    0    0 -0.22920365384E+03 -0.13808984638E+03 -0.70545835958E+01  0.27986113875E+03  0.81666206144E+02 0.  0.
          5    1    5    5  501    0 -0.49729886548E+01 -0.52687025190E+02  0.45741892974E+02  0.70107517517E+02  0.47000000000E+01 0. -1.
        -13    1    6    6    0    0 -0.13142943511E+03 -0.34714118046E+02  0.11238605790E+02  0.13640041299E+03  0.00000000000E+00 0.  1.
         14    1    6    6    0    0 -0.97774218733E+02 -0.10337572833E+03 -0.18293189386E+02  0.14346072576E+03  0.00000000000E+00 0. -1.
         -5    1    3    3    0  503 -0.48153236704E+01 -0.65751513887E+01  0.83638079085E+02  0.84165540638E+02  0.47000000000E+01 0.  1.
         11    1    4    4    0    0  0.11864335633E+03  0.14517613111E+03  0.25532523622E+03  0.31677015531E+03  0.00000000000E+00 0. -1.
        -12    1    4    4    0    0  0.12034860984E+03  0.52175891843E+02  0.15266071240E+03  0.20127445116E+03  0.00000000000E+00 0.  1.
</event>
<event>
12    1  0.1066489E+000  0.3045861E+03  0.7818608E-02  0.1083031E+00
         21   -1    0    0  503  502  0.00000000000E+00  0.00000000000E+00  0.30573377277E+03  0.30573377277E+03  0.00000000000E+00 0. -1.
         21   -1    0    0  501  503 -0.00000000000E+00 -0.00000000000E+00 -0.30564145868E+03  0.30564145868E+03  0.00000000000E+00 0. -1.
          6    2    1    2  501    0  0.12725788873E+03  0.21599568452E+03  0.28750503528E+02  0.30593996832E+03  0.17298545253E+03 0.  0.
         24    2    3    3    0    0  0.78899566437E+01  0.39435377666E+02 -0.77854258165E+01  0.89654949654E+02  0.79749587553E+02 0.  0.
         -6    2    1    2    0  502 -0.12725788873E+03 -0.21599568452E+03 -0.28658189443E+02  0.30543526313E+03  0.17210665926E+03 0.  0.
        -24    2    5    5    0    0 -0.99513952452E+02 -0.18824833741E+03  0.35782169733E+02  0.22984233248E+03  0.78782427369E+02 0.  0.
          5    1    3    3  501    0  0.11936793209E+03  0.17656030685E+03  0.36535929345E+02  0.21628501867E+03  0.47000000000E+01 0. -1.
        -13    1    4    4    0    0  0.15786089519E+02  0.61962240121E+02 -0.12931081893E+02  0.65235977053E+02  0.00000000000E+00 0.  1.
         14    1    4    4    0    0 -0.78961328757E+01 -0.22526862455E+02  0.51456560766E+01  0.24418972601E+02  0.00000000000E+00 0. -1.
         -5    1    5    5    0  502 -0.27743936282E+02 -0.27747347111E+02 -0.64440359176E+02  0.75592930640E+02  0.47000000000E+01 0.  1.
         11    1    6    6    0    0 -0.51893485302E+02 -0.40545737848E+02 -0.13081812400E+02  0.67141823703E+02  0.00000000000E+00 0. -1.
        -12    1    6    6    0    0 -0.47620467150E+02 -0.14770259956E+03  0.48863982133E+02  0.16270050878E+03  0.00000000000E+00 0.  1.
</event>
<event>
12    1  0.1066489E+000  0.1751458E+03  0.7818608E-02  0.1175846E+00
         21   -1    0    0  501  502  0.00000000000E+00  0.00000000000E+00  0.88406058931E+03  0.88406058931E+03  0.00000000000E+00 0.  1.
         21   -1    0    0  502  503 -0.00000000000E+00 -0.00000000000E+00 -0.39454817355E+02  0.39454817355E+02  0.00000000000E+00 0.  1.
         -6    2    1    2    0  503 -0.12301222080E+02  0.35347676977E+02  0.60650159553E+03  0.62793185823E+03  0.15828283188E+03 0.  0.
        -24    2    3    3    0    0 -0.25792730188E+02 -0.33364022044E+02  0.38117707634E+03  0.39193069865E+03  0.80841116530E+02 0.  0.
          6    2    1    2  501    0  0.12301222080E+02 -0.35347676977E+02  0.23810417643E+03  0.29558354844E+03  0.17110013718E+03 0.  0.
         24    2    5    5    0    0  0.14779204850E+02  0.37421273368E+02  0.18433071901E+03  0.20494616511E+03  0.80039615372E+02 0.  0.
          5    1    5    5  501    0 -0.24779827702E+01 -0.72768950345E+02  0.53773457421E+02  0.90637383325E+02  0.47000000000E+01 0. -1.
        -11    1    6    6    0    0  0.45597122335E+02  0.36960257420E+02  0.11707910806E+03  0.13096822415E+03  0.00000000000E+00 0.  1.
         12    1    6    6    0    0 -0.30817917485E+02  0.46101594840E+00  0.67251610950E+02  0.73977940963E+02  0.00000000000E+00 0. -1.
         -5    1    3    3    0  503  0.13491508108E+02  0.68711699021E+02  0.22532451919E+03  0.23600115958E+03  0.47000000000E+01 0.  1.
         13    1    4    4    0    0  0.19086561618E+02 -0.41362460799E+02  0.18477003513E+03  0.19030269541E+03  0.00000000000E+00 0. -1.
        -14    1    4    4    0    0 -0.44879291806E+02  0.79984387543E+01  0.19640704121E+03  0.20162800324E+03  0.00000000000E+00 0.  1.
</event>
<event>
12    1  0.1066489E+000  0.1939762E+03  0.7818608E-02  0.1154962E+00
         21   -1    0    0  503  502  0.00000000000E+00  0.00000000000E+00  0.42180661327E+02  0.42180661327E+02  0.00000000000E+00 0.  1.
         21   -1    0    0  501  503 -0.00000000000E+00 -0.00000000000E+00 -0.89590037730E+03  0.89590037730E+03  0.00000000000E+00 0.  1.
          6    2    1    2  501    0  0.62884965028E+02  0.64019397164E+02 -0.46090000359E+03  0.50005557235E+03  0.17197023025E+03 0.  0.
         24    2    3    3    0    0 -0.38845979999E+02 -0.84354625055E+01 -0.18301287211E+03  0.19535532669E+03  0.55586195386E+02 0.  0.
         -6    2    1    2    0  502 -0.62884965028E+02 -0.64019397164E+02 -0.39281971238E+03  0.43802546628E+03  0.17177304977E+03 0.  0.
        -24    2    5    5    0    0  0.48491531524E+00 -0.66826475920E+02 -0.33943359774E+03  0.35498458079E+03  0.79579345906E+02 0.  0.
          5    1    3    3  501    0  0.10173094503E+03  0.72454859669E+02 -0.27788713148E+03  0.30470024567E+03  0.47000000000E+01 0. -1.
        -13    1    4    4    0    0 -0.24737298568E+02 -0.16093154404E+02 -0.17489352048E+03  0.17736591291E+03  0.00000000000E+00 0.  1.
         14    1    4    4    0    0 -0.14108681432E+02  0.76576918988E+01 -0.81193516324E+01  0.17989413773E+02  0.00000000000E+00 0. -1.
         -5    1    5    5    0  502 -0.63369880343E+02  0.28070787565E+01 -0.53386114641E+02  0.83040885486E+02  0.47000000000E+01 0.  1.
         13    1    6    6    0    0 -0.17426648067E+02 -0.69728910582E+02 -0.16982427123E+03  0.18440740802E+03  0.00000000000E+00 0. -1.
        -14    1    6    6    0    0  0.17911563382E+02  0.29024346621E+01 -0.16960932652E+03  0.17057717277E+03  0.00000000000E+00 0.  1.
</event>
<event>
12    1  0.1066489E+000  0.1868960E+03  0.7818608E-02  0.1161717E+00
         21   -1    0    0  501  502  0.00000000000E+00  0.00000000000E+00  0.57602973945E+02  0.57602973945E+02  0.00000000000E+00 0. -1.
         21   -1    0    0  502  503 -0.00000000000E+00 -0.00000000000E+00 -0.62939260248E+03  0.62939260248E+03  0.00000000000E+00 0. -1.
         -6    2    1    2    0  503  0.18518556002E+02  0.65696898504E+02 -0.35821574972E+03  0.40319294947E+03  0.17200875491E+03 0.  0.
        -24    2    3    3    0    0 -0.17506576807E+02  0.10460298195E+03 -0.25165933743E+03  0.28408017718E+03  0.78235930922E+02 0.  0.
          6    2    1    2  501    0 -0.18518556002E+02 -0.65696898504E+02 -0.21357387881E+03  0.28380262695E+03  0.17398594761E+03 0.  0.
         24    2    5    5    0    0  0.22065652670E+02  0.80150481790E+01 -0.17605008109E+03  0.19154941848E+03  0.71738515770E+02 0.  0.
          5    1    5    5  501    0 -0.40584208673E+02 -0.73711946683E+02 -0.37523797725E+02  0.92253208470E+02  0.47000000000E+01 0.  1.
        -11    1    6    6    0    0  0.38397152214E+02  0.37217620675E+01 -0.16883505884E+03  0.17318622897E+03  0.00000000000E+00 0.  1.
         12    1    6    6    0    0 -0.16331499543E+02  0.42932861116E+01 -0.72150222429E+01  0.18363189509E+02  0.00000000000E+00 0. -1.
         -5    1    3    3    0  503  0.36025132809E+02 -0.38906083444E+02 -0.10655641229E+03  0.11911277229E+03  0.47000000000E+01 0.  1.
         13    1    4    4    0    0  0.21383647349E+02  0.13141305850E+01 -0.40703954995E+02  0.45997818050E+02  0.00000000000E+00 0. -1.
        -14    1    4    4    0    0 -0.38890224156E+02  0.10328885136E+03 -0.21095538244E+03  0.23808235913E+03  0.00000000000E+00 0.  1.
</event>
<event>
12    1  0.1066489E+000  0.1937159E+03  0.7818608E-02  0.1155241E+00
         21   -1    0    0  503  502  0.00000000000E+00  0.00000000000E+00  0.88698363468E+02  0.88698363468E+02  0.00000000000E+00 0.  1.
         21   -1    0    0  501  503 -0.00000000000E+00 -0.00000000000E+00 -0.59464570637E+03  0.59464570637E+03  0.00000000000E+00 0.  1.
          6    2    1    2  501    0 -0.17765023444E+01 -0.88626783574E+02 -0.68783122681E+02  0.20518257631E+03  0.17178739455E+03 0.  0.
         24    2    3    3    0    0 -0.31836952047E+02 -0.62945419762E+02  0.11385458357E+02  0.11567137886E+03  0.90964398749E+02 0.  0.
         -6    2    1    2    0  502  0.17765023444E+01  0.88626783574E+02 -0.43716422022E+03  0.47816149353E+03  0.17224400055E+03 0.  0.
        -24    2    5    5    0    0  0.66551742737E+01  0.11283505661E+03 -0.43032116293E+03  0.45210848303E+03  0.80310247293E+02 0.  0.
          5    1    3    3  501    0  0.30060449703E+02 -0.25681363812E+02 -0.80168581038E+02  0.89511197452E+02  0.47000000000E+01 0. -1.
        -11    1    4    4    0    0 -0.52965904742E+02 -0.52925323834E+01  0.41885192461E-01  0.53229688319E+02  0.00000000000E+00 0.  1.
         12    1    4    4    0    0  0.21128952694E+02 -0.57652887378E+02  0.11343573165E+02  0.62441690537E+02  0.00000000000E+00 0. -1.
         -5    1    5    5    0  502 -0.48786719293E+01 -0.24208273035E+02 -0.68430572976E+01  0.26053010504E+02  0.47000000000E+01 0.  1.
         13    1    6    6    0    0 -0.27827896622E+02  0.75837958928E+02 -0.33020610331E+03  0.33994390495E+03  0.00000000000E+00 0. -1.
        -14    1    6    6    0    0  0.34483070895E+02  0.36997097681E+02 -0.10011505961E+03  0.11216457808E+03  0.00000000000E+00 0.  1.
</event>
<event>
12    1  0.1066489E+000  0.3004050E+03  0.7818608E-02  0.1085102E+00
         21   -1    0    0  501  502  0.00000000000E+00  0.00000000000E+00  0.25751501814E+03  0.25751501814E+03  0.00000000000E+00 0.  1.
         21   -1    0    0  502  503 -0.00000000000E+00 -0.00000000000E+00 -0.34987929723E+03  0.34987929723E+03  0.00000000000E+00 0.  1.
         -6    2    1    2    0  503  0.15585142769E+03 -0.18968231114E+03 -0.49082050717E+02  0.30388727678E+03  0.17224802644E+03 0.  0.
        -24    2    3    3    0    0  0.14251605173E+03 -0.16321001099E+03 -0.94416248199E+02  0.24951913916E+03  0.79981499068E+02 0.  0.
          6    2    1    2  501    0 -0.15585142769E+03  0.18968231114E+03 -0.43282228380E+02  0.30350703859E+03  0.17313036852E+03 0.  0.
         24    2    5    5    0    0 -0.60433714066E+02  0.10631049339E+03  0.41160908278E+02  0.15116487962E+03  0.78755607171E+02 0.  0.
          5    1    5    5  501    0 -0.95417713626E+02  0.83371817754E+02 -0.84443136658E+02  0.15234215896E+03  0.47000000000E+01 0. -1.
        -13    1    6    6    0    0  0.58468513020E+01  0.13021567678E+02 -0.17488097731E+02  0.22573888836E+02  0.00000000000E+00 0.  1.
         14    1    6    6    0    0 -0.66280565368E+02  0.93288925708E+02  0.58649006009E+02  0.12859099079E+03  0.00000000000E+00 0. -1.
         -5    1    3    3    0  503  0.13335375958E+02 -0.26472300148E+02  0.45334197481E+02  0.54368137621E+02  0.47000000000E+01 0.  1.
         13    1    4    4    0    0  0.13005991657E+03 -0.95539975968E+02 -0.56683618605E+02  0.17104532009E+03  0.00000000000E+00 0. -1.
        -14    1    4    4    0    0  0.12456135163E+02 -0.67670035025E+02 -0.37732629594E+02  0.78473819071E+02  0.00000000000E+00 0.  1.
</event>
<event>
12    1  0.1066489E+000  0.1751056E+03  0.7818608E-02  0.1173436E+00
         21   -1    0    0  503  502  0.00000000000E+00  0.00000000000E+00  0.21694939059E+03  0.21694939059E+03  0.00000000000E+00 0.  1.
         21   -1    0    0  501  503 -0.00000000000E+00 -0.00000000000E+00 -0.14259477801E+03  0.14259477801E+03  0.00000000000E+00 0.  1.
          6    2    1    2  501    0 -0.28152482286E+02  0.19632563278E+02  0.66980324800E+02  0.18747893317E+03  0.17170901745E+03 0.  0.
         24    2    3    3    0    0  0.31858863555E+02 -0.33696408321E+02  0.50629239223E+02  0.10541317392E+03  0.79988638261E+02 0.  0.
         -6    2    1    2    0  502  0.28152482286E+02 -0.19632563278E+02  0.73742877763E+01  0.17206523543E+03  0.16844603089E+03 0.  0.
        -24    2    5    5    0    0 -0.30571854776E+01 -0.72930339062E+02  0.13040523644E+02  0.10986481345E+03  0.81068127148E+02 0.  0.
          5    1    3    3  501    0 -0.60011345841E+02  0.53328971599E+02  0.16351085577E+02  0.82065759248E+02  0.47000000000E+01 0. -1.
        -13    1    4    4    0    0 -0.59197324607E+01 -0.86873286417E+01 -0.19365505727E+02  0.22034875161E+02  0.00000000000E+00 0.  1.
         14    1    4    4    0    0  0.37778596016E+02 -0.25009079679E+02  0.69994744950E+02  0.83378298759E+02  0.00000000000E+00 0. -1.
         -5    1    5    5    0  502  0.31209667763E+02  0.53297775784E+02 -0.56662358678E+01  0.62200421979E+02  0.47000000000E+01 0.  1.
         11    1    6    6    0    0  0.32833333089E+02 -0.35774241145E+02 -0.15339918504E+02  0.50922855291E+02  0.00000000000E+00 0. -1.
        -12    1    6    6    0    0 -0.35890518567E+02 -0.37156097917E+02  0.28380442148E+02  0.58941958162E+02  0.00000000000E+00 0.  1.
</event>
<event>
12    1  0.1066489E+000  0.1861422E+03  0.7818608E-02  0.1164451E+00
         21   -1    0    0  501  502  0.00000000000E+00  0.00000000000E+00  0.51657206190E+03  0.51657206190E+03  0.00000000000E+00 0. -1.
         21   -1    0    0  502  503 -0.00000000000E+00 -0.00000000000E+00 -0.67073885337E+02  0.67073885337E+02  0.00000000000E+00 0. -1.
         -6    2    1    2    0  503 -0.50861751583E+02 -0.52418276005E+02  0.15050689004E+03  0.23144612699E+03  0.15993871425E+03 0.  0.
        -24    2    3    3    0    0  0.41656750533E+01 -0.45830777260E+02  0.14897830738E+03  0.17580585932E+03  0.81211767059E+02 0.  0.
          6    2    1    2  501    0  0.50861751583E+02  0.52418276005E+02  0.29899128652E+03  0.35219982024E+03  0.17121428249E+03 0.  0.
         24    2    5    5    0    0 -0.32882229557E+02  0.26492871548E+02  0.20256333160E+03  0.22179421659E+03  0.79860240052E+02 0.  0.
          5    1    5    5  501    0  0.83743981140E+02  0.25925404457E+02  0.96427954926E+02  0.13040560366E+03  0.47000000000E+01 0. -1.
        -13    1    6    6    0    0  0.14150656935E+02  0.15708651665E+02  0.10205907733E+02  0.23476869073E+02  0.00000000000E+00 0.  1.
         14    1    6    6    0    0 -0.47032886492E+02  0.10784219883E+02  0.19235742386E+03  0.19831734751E+03  0.00000000000E+00 0. -1.
         -5    1    3    3    0  503 -0.55027426636E+02 -0.65874987458E+01  0.15285826629E+01  0.55640267675E+02  0.47000000000E+01 0.  1.
         11    1    4    4    0    0  0.43152895329E+01  0.72690025887E+01 -0.70387084711E+01  0.11000160877E+02  0.00000000000E+00 0. -1.
        -12    1    4    4    0    0 -0.14961447964E+00 -0.53099779848E+02  0.15601701585E+03  0.16480569844E+03  0.00000000000E+00 0.  1.
</event>
<event>
12    1  0.1066489E+000  0.2453855E+03  0.7818608E-02  0.1116451E+00
         21   -1    0    0  501  502  0.00000000000E+00  0.00000000000E+00  0.18011409449E+03  0.18011409449E+03  0.00000000000E+00 0. -1.
         21   -1    0    0  502  503 -0.00000000000E+00 -0.00000000000E+00 -0.33270855812E+03  0.33270855812E+03  0.00000000000E+00 0. -1.
         -6    2    1    2    0  503 -0.70457951714E+02 -0.15860254070E+03 -0.73776547856E+02  0.25508964655E+03  0.17178084843E+03 0.  0.
        -24    2    3    3    0    0  0.21699196831E+02 -0.29651147688E+02 -0.55232516374E+02  0.95441994228E+02  0.68618493826E+02 0.  0.
          6    2    1    2  501    0  0.70457951714E+02  0.15860254070E+03 -0.78817915775E+02  0.25773300606E+03  0.17347896036E+03 0.  0.
         24    2    5    5    0    0  0.11448374444E+03  0.10416431910E+03 -0.43367665306E+02  0.17911620980E+03  0.79026129238E+02 0.  0.
          5    1    5    5  501    0 -0.44025792728E+02  0.54438221596E+02 -0.35450250469E+02  0.78616796260E+02  0.47000000000E+01 0. -1.
        -13    1    6    6    0    0  0.26095768386E+02 -0.10850918931E+02 -0.12024980576E+02  0.30713705852E+02  0.00000000000E+00 0.  1.
         14    1    6    6    0    0  0.88387976056E+02  0.11501523803E+03 -0.31342684731E+02  0.14840250395E+03  0.00000000000E+00 0. -1.
         -5    1    3    3    0  503 -0.92157148545E+02 -0.12895139301E+03 -0.18544031482E+02  0.15964765232E+03  0.47000000000E+01 0.  1.
         11    1    4    4    0    0 -0.70806487038E+01  0.16884163052E+02 -0.30098300943E+02  0.35229508479E+02  0.00000000000E+00 0. -1.
        -12    1    4    4    0    0  0.28779845535E+02 -0.46535310740E+02 -0.25134215431E+02  0.60212485749E+02  0.00000000000E+00 0.  1.
</event>
<event>
12    1  0.1066489E+000  0.1864692E+03  0.7818608E-02  0.1161969E+00
         21   -1    0    0  503  502  0.00000000000E+00  0.00000000000E+00  0.22345221674E+03  0.22345221674E+03  0.00000000000E+00 0. -1.
         21   -1    0    0  501  503 -0.00000000000E+00 -0.00000000000E+00 -0.15990184071E+03  0.15990184071E+03  0.00000000000E+00 0. -1.
          6    2    1    2  501    0  0.35464199015E+02  0.61718897578E+02 -0.32697067121E+01  0.18527405052E+03  0.17102295485E+03 0.  0.
         24    2    3    3    0    0  0.41008081257E+02  0.89385384892E+02 -0.44608223830E+02  0.13500346123E+03  0.81022411399E+02 0.  0.
         -6    2    1    2    0  502 -0.35464199015E+02 -0.61718897578E+02  0.66820082742E+02  0.19808000693E+03  0.17234800248E+03 0.  0.
        -24    2    5    5    0    0 -0.85503483850E+02 -0.58954947430E+02  0.70033281065E+02  0.14764208379E+03  0.78147251213E+02 0.  0.
          5    1    3    3  501    0 -0.55438822420E+01 -0.27666487313E+02  0.41338517118E+02  0.50270589296E+02  0.47000000000E+01 0. -1.
        -11    1    4    4    0    0  0.37465427434E+02  0.57561452680E+02  0.12235303158E+02  0.69761606424E+02  0.00000000000E+00 0.  1.
         12    1    4    4    0    0  0.35426538233E+01  0.31823932212E+02 -0.56843526988E+02  0.65241854802E+02  0.00000000000E+00 0. -1.
         -5    1    5    5    0  502  0.50039284835E+02 -0.27639501484E+01 -0.32131983236E+01  0.50437923140E+02  0.47000000000E+01 0.  1.
         11    1    6    6    0    0 -0.29305279262E+02  0.62077356967E+01  0.51563504938E+02  0.59633299561E+02  0.00000000000E+00 0. -1.
        -12    1    6    6    0    0 -0.56198204588E+02 -0.65162683127E+02  0.18469776128E+02  0.88008784229E+02  0.00000000000E+00 0.  1.
</event>
<event>
12    1  0.1066489E+000  0.2819606E+03  0.7818608E-02  0.1094740E+00
         21   -1    0    0  501  502  0.00000000000E+00  0.00000000000E+00  0.10887962457E+03  0.10887962457E+03  0.00000000000E+00 0.  1.
         21   -1    0    0  502  503 -0.00000000000E+00 -0.00000000000E+00 -0.79052328251E+03  0.79052328251E+03  0.00000000000E+00 0.  1.
         -6    2    1    2    0  503  0.21074560066E+03 -0.70202055229E+02 -0.21478209345E+03  0.35444765226E+03  0.17366563785E+03 0.  0.
        -24    2    3    3    0    0  0.20152604787E+03 -0.57850609001E+02 -0.11483514133E+03  0.25321010184E+03  0.83479369040E+02 0.  0.
          6    2    1    2  501    0 -0.21074560066E+03  0.70202055229E+02 -0.46686156449E+03  0.54495525482E+03  0.17226280098E+03 0.  0.
         24    2    5    5    0    0 -0.13116480127E+03 -0.24961077648E+02 -0.29583548077E+03  0.33362343799E+03  0.77192656422E+02 0.  0.
          5    1    5    5  501    0 -0.79580799390E+02  0.95163132877E+02 -0.17102608372E+03  0.21133181682E+03  0.47000000000E+01 0. -1.
        -13    1    6    6    0    0 -0.20464760169E+02 -0.23436413173E+02 -0.21579608604E+02  0.37864909596E+02  0.00000000000E+00 0.  1.
         14    1    6    6    0    0 -0.11070004110E+03 -0.15246644746E+01 -0.27425587217E+03  0.29575852840E+03  0.00000000000E+00 0. -1.
         -5    1    3    3    0  503  0.92195527878E+01 -0.12351446228E+02 -0.99946952121E+02  0.10123755042E+03  0.47000000000E+01 0.  1.
         11    1    4    4    0    0  0.82928321798E+02 -0.80430017217E+01 -0.39986819122E+01  0.83413343596E+02  0.00000000000E+00 0. -1.
        -12    1    4    4    0    0  0.11859772608E+03 -0.49807607279E+02 -0.11083645942E+03  0.16979675824E+03  0.00000000000E+00 0.  1.
</event>
<event>
12    1  0.1066489E+000  0.4497649E+03  0.7818608E-02  0.1027796E+00
         21   -1    0    0  503  502  0.00000000000E+00  0.00000000000E+00  0.98296139665E+03  0.98296139665E+03  0.00000000000E+00 0.  1.
         21   -1    0    0  501  503 -0.00000000000E+00 -0.00000000000E+00 -0.36251926572E+03  0.36251926572E+03  0.00000000000E+00 0.  1.
          6    2    1    2  501    0 -0.40539280783E+03 -0.89980638279E+02 -0.13216047111E+03  0.46872576208E+03  0.17261983085E+03 0.  0.
         24    2    3    3    0    0 -0.11390139447E+03 -0.63642836981E+02 -0.72591564243E+02  0.17000939409E+03  0.81300187680E+02 0.  0.
         -6    2    1    2    0  502  0.40539280783E+03  0.89980638279E+02  0.75260260205E+03  0.87675490030E+03  0.17276757414E+03 0.  0.
        -24    2    5    5    0    0  0.27822935805E+03 -0.35084575656E+01  0.43814708167E+03  0.52488117536E+03  0.78124887950E+02 0.  0.
          5    1    3    3  501    0 -0.29149141336E+03 -0.26337801298E+02 -0.59568906870E+02  0.29871636799E+03  0.47000000000E+01 0. -1.
        -11    1    4    4    0    0 -0.71533767725E+02 -0.70243057296E+02 -0.77682524681E+02  0.12682957724E+03  0.00000000000E+00 0.  1.
         12    1    4    4    0    0 -0.42367626746E+02  0.66002203151E+01  0.50909604379E+01  0.43179816841E+02  0.00000000000E+00 0. -1.
         -5    1    5    5    0  502  0.12716344978E+03  0.93489095844E+02  0.31445552038E+03  0.35187372493E+03  0.47000000000E+01 0.  1.
         11    1    6    6    0    0  0.15809310118E+03  0.32412236587E+02  0.21379913241E+03  0.26786946586E+03  0.00000000000E+00 0. -1.
        -12    1    6    6    0    0  0.12013625687E+03 -0.35920694152E+02  0.22434794926E+03  0.25701170950E+03  0.00000000000E+00 0.  1.
</event>
<event>
12    1  0.1066489E+000  0.2251605E+03  0.7818608E-02  0.1133124E+00
         21   -1    0    0  503  502  0.00000000000E+00  0.00000000000E+00  0.46230206225E+02  0.46230206225E+02  0.00000000000E+00 0. -1.
         21   -1    0    0  501  503 -0.00000000000E+00 -0.00000000000E+00 -0.10418641249E+04  0.10418641249E+04  0.00000000000E+00 0. -1.
          6    2    1    2  501    0 -0.11668251391E+03  0.86587384826E+02 -0.55926801824E+03  0.59706231400E+03  0.15030138496E+03 0.  0.
         24    2    3    3    0    0 -0.50148389035E+02 -0.61898113281E+01 -0.23188676228E+03  0.25031316166E+03  0.79574076768E+02 0.  0.
         -6    2    1    2    0  502  0.11668251391E+03 -0.86587384826E+02 -0.43636590046E+03  0.49103201714E+03  0.17200307704E+03 0.  0.
        -24    2    5    5    0    0  0.12962451419E+03 -0.74381428699E+02 -0.44068738894E+03  0.47213106481E+03  0.79795087429E+02 0.  0.
          5    1    3    3  501    0 -0.66534124873E+02  0.92777196155E+02 -0.32738125595E+03  0.34674915234E+03  0.47000000000E+01 0. -1.
        -11    1    4    4    0    0 -0.31295490645E+02  0.15826795962E+02 -0.29402086663E+02  0.45764373755E+02  0.00000000000E+00 0.  1.
         12    1    4    4    0    0 -0.18852898390E+02 -0.22016607290E+02 -0.20248467562E+03  0.20454878791E+03  0.00000000000E+00 0. -1.
         -5    1    5    5    0  502 -0.12942000282E+02 -0.12205956128E+02  0.43214884776E+01  0.18900952329E+02  0.47000000000E+01 0.  1.
         11    1    6    6    0    0  0.42083959977E+02 -0.18270287077E+02 -0.50068264669E+02  0.67909455927E+02  0.00000000000E+00 0. -1.
        -12    1    6    6    0    0  0.87540554212E+02 -0.56111141622E+02 -0.39061912427E+03  0.40422160889E+03  0.00000000000E+00 0.  1.
</event>
<event>
12    1  0.1066489E+000  0.2168019E+03  0.7818608E-02  0.1136340E+00
         21   -1    0    0  503  502  0.00000000000E+00  0.00000000000E+00  0.88840679799E+03  0.88840679799E+03  0.00000000000E+00 0.  1.
         21   -1    0    0  501  503 -0.00000000000E+00 -0.00000000000E+00 -0.90614308667E+02  0.90614308667E+02  0.00000000000E+00 0.  1.
          6    2    1    2  501    0 -0.95212429738E+02  0.90658866237E+02  0.71479794470E+03  0.74687641918E+03  0.17205768500E+03 0.  0.
         24    2    3    3    0    0  0.42438006486E+01  0.23438057547E+01  0.32489863363E+03  0.33488776103E+03  0.81038182855E+02 0.  0.
         -6    2    1    2    0  502  0.95212429738E+02 -0.90658866237E+02  0.82994544626E+02  0.23214468749E+03  0.17239090662E+03 0.  0.
        -24    2    5    5    0    0  0.77952866334E+02 -0.12589469415E+03  0.40296356043E+02  0.17396667269E+03  0.81941952075E+02 0.  0.
          5    1    3    3  501    0 -0.99456230387E+02  0.88315060482E+02  0.38989931107E+03  0.41198865815E+03  0.47000000000E+01 0. -1.
        -11    1    4    4    0    0  0.10881659552E+02 -0.16209332530E+02  0.15675568828E+02  0.25037500550E+02  0.00000000000E+00 0.  1.
         12    1    4    4    0    0 -0.66378589039E+01  0.18553138285E+02  0.30922306480E+03  0.30985026048E+03  0.00000000000E+00 0. -1.
         -5    1    5    5    0  502  0.17259563404E+02  0.35235827915E+02  0.42698188583E+02  0.58178014800E+02  0.47000000000E+01 0.  1.
         13    1    6    6    0    0  0.28788672348E+02 -0.88640640334E+02 -0.10860691047E+02  0.93829128656E+02  0.00000000000E+00 0. -1.
        -14    1    6    6    0    0  0.49164193986E+02 -0.37254053818E+02  0.51157047091E+02  0.80137544030E+02  0.00000000000E+00 0.  1.
</event>
<event>
12    1  0.1066489E+000  0.1855961E+03  0.7818608E-02  0.1162536E+00
         21   -1    0    0  503  502  0.00000000000E+00  0.00000000000E+00  0.27890046757E+04  0.27890046757E+04  0.00000000000E+00 0.  1.
         21   -1    0    0  501  503 -0.00000000000E+00 -0.00000000000E+00 -0.12586300217E+02  0.12586300217E+02  0.00000000000E+00 0.  1.
          6    2    1    2  501    0 -0.51715529463E+02  0.47508068400E+02  0.15853062610E+04  0.15961334125E+04  0.17179760495E+03 0.  0.
         24    2    3    3    0    0 -0.27532736648E+02 -0.26897372309E+02  0.47122103360E+03  0.47929458761E+03  0.78692559866E+02 0.  0.
         -6    2    1    2    0  502  0.51715529463E+02 -0.47508068400E+02  0.11911121145E+04  0.12054575634E+04  0.17160523060E+03 0.  0.
        -24    2    5    5    0    0  0.60505074646E+02 -0.94385337283E+02  0.90533102101E+03  0.91568582932E+03  0.79289497840E+02 0.  0.
          5    1    3    3  501    0 -0.24182792816E+02  0.74405440709E+02  0.11140852274E+04  0.11168388249E+04  0.47000000000E+01 0. -1.
        -11    1    4    4    0    0 -0.62968474967E+01 -0.47185233761E+02  0.39061089416E+03  0.39350091132E+03  0.00000000000E+00 0.  1.
         12    1    4    4    0    0 -0.21235889151E+02  0.20287861452E+02  0.80610139444E+02  0.85793676291E+02  0.00000000000E+00 0. -1.
         -5    1    5    5    0  502 -0.87895451826E+01  0.46877268883E+02  0.28578109352E+03  0.28977173405E+03  0.47000000000E+01 0.  1.
         11    1    6    6    0    0  0.51520533227E+02 -0.10448951776E+02  0.37892993565E+03  0.38255907004E+03  0.00000000000E+00 0. -1.
        -12    1    6    6    0    0  0.89845414187E+01 -0.83936385507E+02  0.52640108536E+03  0.53312675928E+03  0.00000000000E+00 0.  1.
</event>
<event>
12    1  0.1066489E+000  0.3332001E+03  0.7818608E-02  0.1069766E+00
         21   -1    0    0  503  502  0.00000000000E+00  0.00000000000E+00  0.16829743918E+03  0.16829743918E+03  0.00000000000E+00 0. -1.
         21   -1    0    0  501  503 -0.00000000000E+00 -0.00000000000E+00 -0.77987606063E+03  0.77987606063E+03  0.00000000000E+00 0. -1.
          6    2    1    2  501    0 -0.10829188030E+03  0.26363013593E+03 -0.11929418289E+03  0.35391158348E+03  0.17261033265E+03 0.  0.
         24    2    3    3    0    0 -0.10600770292E+03  0.28303603391E+03 -0.10792899686E+03  0.33082340910E+03  0.80302117488E+02 0.  0.
         -6    2    1    2    0  502  0.10829188030E+03 -0.26363013593E+03 -0.49228443857E+03  0.59426191633E+03  0.17197464009E+03 0.  0.
        -24    2    5    5    0    0 -0.32844595919E+01 -0.67448101585E+02 -0.11933138297E+03  0.15831152706E+03  0.79136126749E+02 0.  0.
          5    1    3    3  501    0 -0.22841773784E+01 -0.19405897980E+02 -0.11365186029E+02  0.23088174380E+02  0.47000000000E+01 0. -1.
        -13    1    4    4    0    0 -0.81466621994E+02  0.23788072937E+03 -0.55680601356E+02  0.25753520395E+03  0.00000000000E+00 0.  1.
         14    1    4    4    0    0 -0.24541080927E+02  0.45155304536E+02 -0.52248395503E+02  0.73288205145E+02  0.00000000000E+00 0. -1.
         -5    1    5    5    0  502  0.11157633989E+03 -0.19618203434E+03 -0.37295305560E+03  0.43595038927E+03  0.47000000000E+01 0.  1.
         13    1    6    6    0    0  0.82244567735E+00 -0.31922045533E+02 -0.11829999559E+03  0.12253400493E+03  0.00000000000E+00 0. -1.
        -14    1    6    6    0    0 -0.41069052693E+01 -0.35526056052E+02 -0.10313873738E+01  0.35777522125E+02  0.00000000000E+00 0.  1.
</event>
<event>
12    1  0.1066489E+000  0.2712288E+03  0.7818608E-02  0.1100613E+00
         21   -1    0    0  501  502  0.00000000000E+00  0.00000000000E+00  0.13440013327E+03  0.13440013327E+03  0.00000000000E+00 0. -1.
         21   -1    0    0  502  503 -0.00000000000E+00 -0.00000000000E+00 -0.54744591584E+03  0.54744591584E+03  0.00000000000E+00 0.  1.
         -6    2    1    2    0  503 -0.19085807541E+03 -0.84974571896E+02 -0.19535903211E+03  0.33406367681E+03  0.17258593777E+03 0.  0.
        -24    2    3    3    0    0 -0.17652915117E+03 -0.12196914037E+03 -0.14917957788E+03  0.27300183799E+03  0.78971163583E+02 0.  0.
          6    2    1    2  501    0  0.19085807541E+03  0.84974571896E+02 -0.21768675047E+03  0.34778237230E+03  0.17296697469E+03 0.  0.
         24    2    5    5    0    0  0.14531426898E+03 -0.30346616369E+01 -0.17133849483E+03  0.23828299197E+03  0.79350226906E+02 0.  0.
          5    1    5    5  501    0  0.45543806432E+02  0.88009233533E+02 -0.46348255632E+02  0.10949938032E+03  0.47000000000E+01 0. -1.
        -13    1    6    6    0    0  0.12404269031E+03  0.21847582715E+02 -0.16002762956E+03  0.20364858976E+03  0.00000000000E+00 0.  1.
         14    1    6    6    0    0  0.21271578674E+02 -0.24882244352E+02 -0.11310865277E+02  0.34634402212E+02  0.00000000000E+00 0. -1.
         -5    1    3    3    0  503 -0.14328924247E+02  0.36994568471E+02 -0.46179454230E+02  0.61061838814E+02  0.47000000000E+01 0.  1.
         11    1    4    4    0    0 -0.92652927864E+02 -0.10256723511E+03 -0.11701099898E+03  0.18109714697E+03  0.00000000000E+00 0. -1.
        -12    1    4    4    0    0 -0.83876223304E+02 -0.19401905260E+02 -0.32168578902E+02  0.91904691023E+02  0.00000000000E+00 0.  1.
</event>
<event>
12    1  0.1066489E+000  0.1747851E+03  0.7818608E-02  0.1172987E+00
         21   -1    0    0  503  502  0.00000000000E+00  0.00000000000E+00  0.56510231388E+03  0.56510231388E+03  0.00000000000E+00 0. -1.
         21   -1    0    0  501  503 -0.00000000000E+00 -0.00000000000E+00 -0.74531215301E+02  0.74531215301E+02  0.00000000000E+00 0. -1.
          6    2    1    2  501    0 -0.21649087102E+02  0.23016533676E+02  0.41317266866E+03  0.44862178138E+03  0.17190522041E+03 0.  0.
         24    2    3    3    0    0 -0.60083374439E+02  0.57247607244E+02  0.34346816613E+03  0.36184754262E+03  0.77948460731E+02 0.  0.
         -6    2    1    2    0  502  0.21649087102E+02 -0.23016533676E+02  0.77398429912E+02  0.19101174779E+03  0.17174552992E+03 0.  0.
        -24    2    5    5    0    0  0.57606409095E+02  0.41390823541E+01  0.97862896973E+02  0.14130017068E+03  0.83981910310E+02 0.  0.
          5    1    3    3  501    0  0.38434287336E+02 -0.34231073568E+02  0.69704502529E+02  0.86774238766E+02  0.47000000000E+01 0. -1.
        -11    1    4    4    0    0 -0.25472850256E+02  0.69019000019E+02  0.18230136284E+03  0.19658655945E+03  0.00000000000E+00 0.  1.
         12    1    4    4    0    0 -0.34610524183E+02 -0.11771392775E+02  0.16116680330E+03  0.16526098317E+03  0.00000000000E+00 0. -1.
         -5    1    5    5    0  502 -0.35957321993E+02 -0.27155616030E+02 -0.20464467061E+02  0.49711577112E+02  0.47000000000E+01 0.  1.
         11    1    6    6    0    0  0.65078717409E+01 -0.24565735483E+02  0.73606225531E+02  0.77869789979E+02  0.00000000000E+00 0. -1.
        -12    1    6    6    0    0  0.51098537354E+02  0.28704817837E+02  0.24256671442E+02  0.63430380704E+02  0.00000000000E+00 0.  1.
</event>
<event>
12    1  0.1066489E+000  0.3614521E+03  0.7818608E-02  0.1058105E+00
         21   -1    0    0  503  502  0.00000000000E+00  0.00000000000E+00  0.11843298063E+03  0.11843298063E+03  0.00000000000E+00 0. -1.
         21   -1    0    0  501  503 -0.00000000000E+00 -0.00000000000E+00 -0.26657428175E+04  0.26657428175E+04  0.00000000000E+00 0. -1.
          6    2    1    2  501    0  0.31452922495E+03 -0.41025902014E+02 -0.23397710408E+04  0.23673785348E+04  0.17129169796E+03 0.  0.
         24    2    3    3    0    0  0.17913093964E+03 -0.20545851644E+02 -0.17891172821E+04  0.17999335771E+04  0.79436812225E+02 0.  0.
         -6    2    1    2    0  502 -0.31452922495E+03  0.41025902014E+02 -0.20753879608E+03  0.41679726332E+03  0.17330853658E+03 0.  0.
        -24    2    5    5    0    0 -0.28050743312E+03 -0.10938327934E+02 -0.20283254715E+03  0.35433125422E+03  0.74870077345E+02 0.  0.
          5    1    3    3  501    0  0.13539828531E+03 -0.20480050370E+02 -0.55065375866E+03  0.56744495773E+03  0.47000000000E+01 0. -1.
        -11    1    4    4    0    0  0.13034548153E+03  0.95937877820E+01 -0.14617827592E+04  0.14676139889E+04  0.00000000000E+00 0.  1.
         12    1    4    4    0    0  0.48785458111E+02 -0.30139639426E+02 -0.32733452286E+03  0.33231958811E+03  0.00000000000E+00 0. -1.
         -5    1    5    5    0  502 -0.34021791831E+02  0.51964229948E+02 -0.47062489218E+01  0.62466009096E+02  0.47000000000E+01 0.  1.
         13    1    6    6    0    0 -0.46157397025E+02 -0.30294117208E+02 -0.33824178199E+02  0.64748080036E+02  0.00000000000E+00 0. -1.
        -14    1    6    6    0    0 -0.23435003610E+03  0.19355789273E+02 -0.16900836896E+03  0.28958317419E+03  0.00000000000E+00 0.  1.
</event>
<event>
12    1  0.1066489E+000  0.2995546E+03  0.7818608E-02  0.1085851E+00
         21   -1    0    0  501  502  0.00000000000E+00  0.00000000000E+00  0.52101649106E+03  0.52101649106E+03  0.00000000000E+00 0. -1.
         21   -1    0    0  502  503 -0.00000000000E+00 -0.00000000000E+00 -0.17819290135E+03  0.17819290135E+03  0.00000000000E+00 0. -1.
         -6    2    1    2    0  503 -0.12800856794E+03  0.20513590223E+03  0.99443598840E+02  0.31562949694E+03  0.17682199563E+03 0.  0.
        -24    2    3    3    0    0  0.33168477108E+01  0.45883859291E+02  0.49587709802E+02  0.10322592435E+03  0.77976409722E+02 0.  0.
          6    2    1    2  501    0  0.12800856794E+03 -0.20513590223E+03  0.24337999087E+03  0.38357989546E+03  0.17155985659E+03 0.  0.
         24    2    5    5    0    0  0.89810618412E+02 -0.20733393718E+03  0.15031135562E+03  0.28284372732E+03  0.79710487177E+02 0.  0.
          5    1    5    5  501    0  0.38197949524E+02  0.21980349465E+01  0.93068635249E+02  0.10073616814E+03  0.47000000000E+01 0. -1.
        -11    1    6    6    0    0  0.90968953632E+01 -0.85971547337E+02  0.23349983827E+02  0.89549328314E+02  0.00000000000E+00 0.  1.
         12    1    6    6    0    0  0.80713723049E+02 -0.12136238984E+03  0.12696137180E+03  0.19329439900E+03  0.00000000000E+00 0. -1.
         -5    1    3    3    0  503 -0.13132541565E+03  0.15925204294E+03  0.49855889038E+02  0.21240357259E+03  0.47000000000E+01 0.  1.
         13    1    4    4    0    0  0.94297180650E+01  0.65217910165E+02  0.50356215254E+02  0.82933972555E+02  0.00000000000E+00 0. -1.
        -14    1    4    4    0    0 -0.61128703542E+01 -0.19334050874E+02 -0.76850545169E+00  0.20291951798E+02  0.00000000000E+00 0.  1.
</event>
<event>
12    1  0.1066489E+000  0.1884969E+03  0.7818608E-02  0.1159950E+00
         21   -1    0    0  501  502  0.00000000000E+00  0.00000000000E+00  0.21812810431E+03  0.21812810431E+03  0.00000000000E+00 0.  1.
         21   -1    0    0  502  503 -0.00000000000E+00 -0.00000000000E+00 -0.21867517944E+03  0.21867517944E+03  0.00000000000E+00 0.  1.
         -6    2    1    2    0  503 -0.72763098881E+02  0.27106899876E+02  0.11050568265E+03  0.21850077140E+03  0.17176096362E+03 0.  0.
        -24    2    3    3    0    0 -0.78470332836E+02 -0.41294105109E+02  0.52750813008E+02  0.12867324238E+03  0.76885361286E+02 0.  0.
          6    2    1    2  501    0  0.72763098881E+02 -0.27106899876E+02 -0.11105275778E+03  0.21830251235E+03  0.17115495701E+03 0.  0.
         24    2    5    5    0    0  0.22567710104E+02 -0.68357518723E+02 -0.10819310966E+03  0.15309930540E+03  0.80941932454E+02 0.  0.
          5    1    5    5  501    0  0.50195388778E+02  0.41250618847E+02 -0.28596481220E+01  0.65203206955E+02  0.47000000000E+01 0. -1.
        -11    1    6    6    0    0 -0.79833173965E+01 -0.17963984085E+02  0.92306705931E+01  0.21717351599E+02  0.00000000000E+00 0.  1.
         12    1    6    6    0    0  0.30551027500E+02 -0.50393534638E+02 -0.11742378025E+03  0.13138195380E+03  0.00000000000E+00 0. -1.
         -5    1    3    3    0  503  0.57072339545E+01  0.68401004985E+02  0.57754869640E+02  0.89827529018E+02  0.47000000000E+01 0.  1.
         11    1    4    4    0    0 -0.36945061174E+02  0.12927637483E+02  0.45460355735E+02  0.59989209860E+02  0.00000000000E+00 0. -1.
        -12    1    4    4    0    0 -0.41525271662E+02 -0.54221742592E+02  0.72904572724E+01  0.68684032522E+02  0.00000000000E+00 0.  1.
</event>
<event>
12    1  0.1066489E+000  0.4383556E+03  0.7818608E-02  0.1031288E+00
         21   -1    0    0  503  502  0.00000000000E+00  0.00000000000E+00  0.33274401969E+03  0.33274401969E+03  0.00000000000E+00 0. -1.
         21   -1    0    0  501  503 -0.00000000000E+00 -0.00000000000E+00 -0.64769107168E+03  0.64769107168E+03  0.00000000000E+00 0.  1.
          6    2    1    2  501    0 -0.36449332424E+03 -0.17200613699E+03 -0.31948621444E+03  0.54205603885E+03  0.17120693169E+03 0.  0.
         24    2    3    3    0    0 -0.34086357632E+03 -0.14231158865E+03 -0.33100458932E+03  0.50211991300E+03  0.78229169482E+02 0.  0.
         -6    2    1    2    0  502  0.36449332424E+03  0.17200613699E+03  0.45391624470E+01  0.43837905253E+03  0.17237776864E+03 0.  0.
        -24    2    5    5    0    0  0.31912998955E+03  0.15623158030E+03  0.55610392411E+02  0.36811505532E+03  0.78510644505E+02 0.  0.
          5    1    3    3  501    0 -0.23629747925E+02 -0.29694548338E+02  0.11518374880E+02  0.39936125849E+02  0.47000000000E+01 0. -1.
        -13    1    4    4    0    0 -0.30768705437E+02 -0.13456070470E+02 -0.67073181985E+02  0.75010604640E+02  0.00000000000E+00 0.  1.
         14    1    4    4    0    0 -0.31009487088E+03 -0.12885551818E+03 -0.26393140733E+03  0.42710930836E+03  0.00000000000E+00 0. -1.
         -5    1    5    5    0  502  0.45363334692E+02  0.15774556693E+02 -0.51071229964E+02  0.70263997206E+02  0.47000000000E+01 0.  1.
         11    1    6    6    0    0  0.29068413616E+03  0.11587840017E+03  0.36008921851E+02  0.31499478265E+03  0.00000000000E+00 0. -1.
        -12    1    6    6    0    0  0.28445853386E+02  0.40353180123E+02  0.19601470560E+02  0.53120272675E+02  0.00000000000E+00 0.  1.
</event>
<event>
12    1  0.1066489E+000  0.2900981E+03  0.7818608E-02  0.1090912E+00
         21   -1    0    0  503  502  0.00000000000E+00  0.00000000000E+00  0.10876000403E+03  0.10876000403E+03  0.00000000000E+00 0.  1.
         21   -1    0    0  501  503 -0.00000000000E+00 -0.00000000000E+00 -0.80758742371E+03  0.80758742371E+03  0.00000000000E+00 0.  1.
          6    2    1    2  501    0 -0.97845929265E+02  0.20065829271E+03 -0.46165761484E+03  0.54523817793E+03  0.18525480029E+03 0.  0.
         24    2    3    3    0    0 -0.49250908574E+02  0.12727788005E+03 -0.13471525726E+03  0.20662400786E+03  0.76941336991E+02 0.  0.
         -6    2    1    2    0  502  0.97845929265E+02 -0.20065829271E+03 -0.23716980484E+03  0.37110924981E+03  0.17786225755E+03 0.  0.
        -24    2    5    5    0    0  0.10353135895E+03 -0.74992327581E+02 -0.86108996926E+02  0.17447324957E+03  0.81753067123E+02 0.  0.
          5    1    3    3  501    0 -0.48595020691E+02  0.73380412654E+02 -0.32694235758E+03  0.33861417008E+03  0.47000000000E+01 0. -1.
        -13    1    4    4    0    0 -0.53945915757E+02  0.35219877035E+02 -0.58393624259E+02  0.86950657958E+02  0.00000000000E+00 0.  1.
         14    1    4    4    0    0  0.46950071836E+01  0.92058003016E+02 -0.76321633003E+02  0.11967334990E+03  0.00000000000E+00 0. -1.
         -5    1    5    5    0  502 -0.56854296822E+01 -0.12566596512E+03 -0.15106080791E+03  0.19663600023E+03  0.47000000000E+01 0.  1.
         13    1    6    6    0    0  0.25898106862E+02 -0.64171562259E+02 -0.60768567808E+02  0.92095169120E+02  0.00000000000E+00 0. -1.
        -14    1    6    6    0    0  0.77633252085E+02 -0.10820765322E+02 -0.25340429117E+02  0.82378080454E+02  0.00000000000E+00 0.  1.
</event>
<event>
12    1  0.1066489E+000  0.2191511E+03  0.7818608E-02  0.1134971E+00
         21   -1    0    0  503  502  0.00000000000E+00  0.00000000000E+00  0.17471211088E+03  0.17471211088E+03  0.00000000000E+00 0. -1.
         21   -1    0    0  501  503 -0.00000000000E+00 -0.00000000000E+00 -0.35391833471E+03  0.35391833471E+03  0.00000000000E+00 0. -1.
          6    2    1    2  501    0 -0.50950235176E+02  0.12517406477E+03 -0.21723605985E+03  0.30857526901E+03  0.17251874678E+03 0.  0.
         24    2    3    3    0    0 -0.45237301099E+02  0.75503465558E+02 -0.22851976629E+03  0.25710471361E+03  0.78322177267E+02 0.  0.
         -6    2    1    2    0  502  0.50950235176E+02 -0.12517406477E+03  0.38029836017E+02  0.22005517659E+03  0.16945069891E+03 0.  0.
        -24    2    5    5    0    0  0.47073362300E+02 -0.11662141592E+03  0.84844683496E+02  0.17207707857E+03  0.81212342419E+02 0.  0.
          5    1    3    3  501    0 -0.57129340770E+01  0.49670599213E+02  0.11283706445E+02  0.51470555399E+02  0.47000000000E+01 0. -1.
        -13    1    4    4    0    0 -0.55448724469E+02  0.34824665820E+02 -0.83323140726E+02  0.10597199713E+03  0.00000000000E+00 0.  1.
         14    1    4    4    0    0  0.10211423370E+02  0.40678799738E+02 -0.14519662556E+03  0.15113271648E+03  0.00000000000E+00 0. -1.
         -5    1    5    5    0  502  0.38768728759E+01 -0.85526488527E+01 -0.46814847479E+02  0.47978098025E+02  0.47000000000E+01 0.  1.
         13    1    6    6    0    0  0.41585262833E+02 -0.32646415545E+02  0.41556442331E+00  0.52870551602E+02  0.00000000000E+00 0. -1.
        -14    1    6    6    0    0  0.54880994665E+01 -0.83975000373E+02  0.84429119072E+02  0.11920652696E+03  0.00000000000E+00 0.  1.
</event>
<event>
12    1  0.1066489E+000  0.2439819E+03  0.7818608E-02  0.1117219E+00
         21   -1    0    0  503  502  0.00000000000E+00  0.00000000000E+00  0.34843369662E+03  0.34843369662E+03  0.00000000000E+00 0. -1.
         21   -1    0    0  501  503 -0.00000000000E+00 -0.00000000000E+00 -0.19279644118E+03  0.19279644118E+03  0.00000000000E+00 0. -1.
          6    2    1    2  501    0 -0.47421748151E+02 -0.16580670767E+03 -0.13907364372E+02  0.24437794087E+03  0.17258759137E+03 0.  0.
         24    2    3    3    0    0 -0.33676016168E+02 -0.54130320169E+02  0.50279415332E+02  0.11475312318E+03  0.81093119597E+02 0.  0.
         -6    2    1    2    0  502  0.47421748151E+02  0.16580670767E+03  0.16954461981E+03  0.29685219694E+03  0.17214866311E+03 0.  0.
        -24    2    5    5    0    0 -0.14763367729E+02  0.21537778836E+02  0.77428455082E+02  0.11467648432E+03  0.80459290667E+02 0.  0.
          5    1    3    3  501    0 -0.13745731983E+02 -0.11167638750E+03 -0.64186779704E+02  0.12962481769E+03  0.47000000000E+01 0. -1.
        -11    1    4    4    0    0 -0.23398031658E+02 -0.73244109530E+02  0.23743784207E+02  0.80473192771E+02  0.00000000000E+00 0.  1.
         12    1    4    4    0    0 -0.10277984510E+02  0.19113789361E+02  0.26535631126E+02  0.34279930405E+02  0.00000000000E+00 0. -1.
         -5    1    5    5    0  502  0.62185115881E+02  0.14426892884E+03  0.92116164730E+02  0.18217571262E+03  0.47000000000E+01 0.  1.
         13    1    6    6    0    0 -0.15101638465E+02  0.91203084056E+01  0.93055860197E+02  0.94713423688E+02  0.00000000000E+00 0. -1.
        -14    1    6    6    0    0  0.33827073536E+00  0.12417470430E+02 -0.15627405115E+02  0.19963060627E+02  0.00000000000E+00 0.  1.
</event>
<event>
12    1  0.1066489E+000  0.6692595E+03  0.7818608E-02  0.9771653E-01
         21   -1    0    0  501  502  0.00000000000E+00  0.00000000000E+00  0.10846003198E+04  0.10846003198E+04  0.00000000000E+00 0. -1.
         21   -1    0    0  502  503 -0.00000000000E+00 -0.00000000000E+00 -0.41269120701E+03  0.41269120701E+03  0.00000000000E+00 0. -1.
         -6    2    1    2    0  503 -0.51436216618E+03  0.39273231645E+03  0.31942719881E+03  0.74158078258E+03  0.17059077166E+03 0.  0.
        -24    2    3    3    0    0 -0.24675503510E+03  0.23158306873E+03  0.22842367356E+03  0.41617889529E+03  0.80676720152E+02 0.  0.
          6    2    1    2  501    0  0.51436216618E+03 -0.39273231645E+03  0.35248191397E+03  0.75571074422E+03  0.16747572621E+03 0.  0.
         24    2    5    5    0    0  0.50993087535E+03 -0.40133135479E+03  0.35498269741E+03  0.74466883693E+03  0.86154554498E+02 0.  0.
          5    1    5    5  501    0  0.44312908254E+01  0.85990383357E+01 -0.25007834426E+01  0.11041907286E+02  0.47000000000E+01 0. -1.
        -13    1    6    6    0    0  0.30387149677E+03 -0.26535381334E+03  0.26106921967E+03  0.48052853221E+03  0.00000000000E+00 0.  1.
         14    1    6    6    0    0  0.20605937858E+03 -0.13597754145E+03  0.93913477743E+02  0.26414030472E+03  0.00000000000E+00 0. -1.
         -5    1    3    3    0  503 -0.26760713108E+03  0.16114924772E+03  0.91003525250E+02  0.32540188729E+03  0.47000000000E+01 0.  1.
         11    1    4    4    0    0 -0.75549370428E+00  0.19638694909E+02  0.86885648731E+00  0.19672417749E+02  0.00000000000E+00 0. -1.
        -12    1    4    4    0    0 -0.24599954140E+03  0.21194437382E+03  0.22755481707E+03  0.39650647754E+03  0.00000000000E+00 0.  1.
</event>
<event>
12    1  0.1066489E+000  0.2531247E+03  0.7818608E-02  0.1111378E+00
         21   -1    0    0  503  502  0.00000000000E+00  0.00000000000E+00  0.54017473472E+02  0.54017473472E+02  0.00000000000E+00 0. -1.
         21   -1    0    0  501  503 -0.00000000000E+00 -0.00000000000E+00 -0.14156715718E+04  0.14156715718E+04  0.00000000000E+00 0.  1.
          6    2    1    2  501    0 -0.16765718895E+03  0.78382886779E+02 -0.38453586080E+03  0.46036934819E+03  0.17268265275E+03 0.  0.
         24    2    3    3    0    0 -0.50323677239E+02  0.94296492385E+02 -0.22793486471E+03  0.26398615697E+03  0.79436059555E+02 0.  0.
         -6    2    1    2    0  502  0.16765718895E+03 -0.78382886779E+02 -0.97711823748E+03  0.10093196970E+04  0.17237572587E+03 0.  0.
        -24    2    5    5    0    0  0.15014900708E+03 -0.50386565871E+00 -0.72380461335E+03  0.74368543620E+03  0.81424391297E+02 0.  0.
          5    1    3    3  501    0 -0.11733351171E+03 -0.15913605605E+02 -0.15660099609E+03  0.19638319121E+03  0.47000000000E+01 0. -1.
        -13    1    4    4    0    0  0.12919198309E+02  0.56254717843E+02 -0.79819701157E+02  0.98502201281E+02  0.00000000000E+00 0.  1.
         14    1    4    4    0    0 -0.63242875548E+02  0.38041774542E+02 -0.14811516355E+03  0.16548395569E+03  0.00000000000E+00 0. -1.
         -5    1    5    5    0  502  0.17508181868E+02 -0.77879021121E+02 -0.25331362413E+03  0.26563426084E+03  0.47000000000E+01 0.  1.
         13    1    6    6    0    0  0.82781683566E+02  0.24585837145E+02 -0.25083332186E+03  0.26528216276E+03  0.00000000000E+00 0. -1.
        -14    1    6    6    0    0  0.67367323513E+02 -0.25089702803E+02 -0.47297129149E+03  0.47840327344E+03  0.00000000000E+00 0.  1.
</event>
<event>
12    1  0.1066489E+000  0.1750133E+03  0.7818608E-02  0.1173151E+00
         21   -1    0    0  501  502  0.00000000000E+00  0.00000000000E+00  0.12003920639E+04  0.12003920639E+04  0.00000000000E+00 0.  1.
         21   -1    0    0  502  503 -0.00000000000E+00 -0.00000000000E+00 -0.25333219473E+02  0.25333219473E+02  0.00000000000E+00 0.  1.
         -6    2    1    2    0  503  0.25351297226E+01 -0.23358678120E+02  0.61602833825E+03  0.63993969749E+03  0.17169696612E+03 0.  0.
        -24    2    3    3    0    0  0.42582725599E+02 -0.64908218196E+02  0.46501905549E+03  0.47821132121E+03  0.80106057543E+02 0.  0.
          6    2    1    2  501    0 -0.25351297226E+01  0.23358678120E+02  0.55903050614E+03  0.58578558584E+03  0.17342892221E+03 0.  0.
         24    2    5    5    0    0  0.11776651994E+02  0.16146197393E+02  0.11774057753E+03  0.14417972303E+03  0.80780936577E+02 0.  0.
          5    1    5    5  501    0 -0.14311781716E+02  0.72124807273E+01  0.44128992861E+03  0.44160586281E+03  0.47000000000E+01 0. -1.
        -13    1    6    6    0    0  0.12630971019E+02 -0.30647161052E+02  0.69321208423E+02  0.76838921431E+02  0.00000000000E+00 0.  1.
         14    1    6    6    0    0 -0.85431902515E+00  0.46793358445E+02  0.48419369103E+02  0.67340801598E+02  0.00000000000E+00 0. -1.
         -5    1    3    3    0  503 -0.40047595876E+02  0.41549540076E+02  0.15100928276E+03  0.16172837629E+03  0.47000000000E+01 0.  1.
         11    1    4    4    0    0 -0.22974320248E+02 -0.16470358962E+02  0.86003201492E+02  0.90529789474E+02  0.00000000000E+00 0. -1.
        -12    1    4    4    0    0  0.65557045847E+02 -0.48437859234E+02  0.37901585400E+03  0.38768153173E+03  0.00000000000E+00 0.  1.
</event>
<event>
12    1  0.1066489E+000  0.2038127E+03  0.7818608E-02  0.1146631E+00
         21   -1    0    0  501  502  0.00000000000E+00  0.00000000000E+00  0.15242261942E+03  0.15242261942E+03  0.00000000000E+00 0.  1.
         21   -1    0    0  502  503 -0.00000000000E+00 -0.00000000000E+00 -0.35108331283E+03  0.35108331283E+03  0.00000000000E+00 0.  1.
         -6    2    1    2    0  503 -0.92548530057E+02  0.57308144065E+02  0.20158156202E+02  0.20447195930E+03  0.17190979345E+03 0.  0.
        -24    2    3    3    0    0 -0.41247322945E+02  0.98737242764E+02 -0.29950437352E+01  0.13442665440E+03  0.81309103846E+02 0.  0.
          6    2    1    2  501    0  0.92548530057E+02 -0.57308144065E+02 -0.21881884961E+03  0.29903397296E+03  0.17230836964E+03 0.  0.
         24    2    5    5    0    0  0.13157618184E+03 -0.42304189864E+02 -0.15327941824E+03  0.22115083416E+03  0.79442905810E+02 0.  0.
          5    1    5    5  501    0 -0.39027651788E+02 -0.15003954201E+02 -0.65539431363E+02  0.77883138799E+02  0.47000000000E+01 0. -1.
        -11    1    6    6    0    0  0.98942669695E+02 -0.38128478545E+02 -0.59105541618E+02  0.12139562518E+03  0.00000000000E+00 0.  1.
         12    1    6    6    0    0  0.32633512150E+02 -0.41757113190E+01 -0.94173876624E+02  0.99755208980E+02  0.00000000000E+00 0. -1.
         -5    1    3    3    0  503 -0.51301207112E+02 -0.41429098699E+02  0.23153199937E+02  0.70045304892E+02  0.47000000000E+01 0.  1.
         11    1    4    4    0    0 -0.64794405615E+02  0.78158277866E+02  0.65372024600E+01  0.10173380173E+03  0.00000000000E+00 0. -1.
        -12    1    4    4    0    0  0.23547082670E+02  0.20578964898E+02 -0.95322461952E+01  0.32692852675E+02  0.00000000000E+00 0.  1.
</event>
<event>
12    1  0.1066489E+000  0.2346288E+03  0.7818608E-02  0.1123616E+00
         21   -1    0    0  503  502  0.00000000000E+00  0.00000000000E+00  0.19117183869E+03  0.19117183869E+03  0.00000000000E+00 0. -1.
         21   -1    0    0  501  503 -0.00000000000E+00 -0.00000000000E+00 -0.40820829668E+03  0.40820829668E+03  0.00000000000E+00 0.  1.
          6    2    1    2  501    0  0.13450401170E+03  0.86119260894E+02  0.55240727376E+02  0.23995624190E+03  0.17035141269E+03 0.  0.
         24    2    3    3    0    0  0.50136117402E+02  0.53253878214E+01 -0.22793907737E+02  0.99396340822E+02  0.82571667752E+02 0.  0.
         -6    2    1    2    0  502 -0.13450401170E+03 -0.86119260894E+02 -0.27227718537E+03  0.35942389346E+03  0.17188022939E+03 0.  0.
        -24    2    5    5    0    0 -0.11694778666E+03 -0.90827282369E+02 -0.28892854497E+03  0.33432918724E+03  0.79811786815E+02 0.  0.
          5    1    3    3  501    0  0.84367894301E+02  0.80793873072E+02  0.78034635113E+02  0.14055990108E+03  0.47000000000E+01 0. -1.
        -13    1    4    4    0    0 -0.24471939600E+01  0.10877076374E+02 -0.41759627430E+02  0.43222286286E+02  0.00000000000E+00 0.  1.
         14    1    4    4    0    0  0.52583311362E+02 -0.55516885530E+01  0.18965719693E+02  0.56174054536E+02  0.00000000000E+00 0. -1.
         -5    1    5    5    0  502 -0.17556225044E+02  0.47080214753E+01  0.16651359598E+02  0.25094706224E+02  0.47000000000E+01 0.  1.
         13    1    6    6    0    0 -0.90575708462E+02 -0.70875353089E+02 -0.13715014785E+03  0.17899004915E+03  0.00000000000E+00 0. -1.
        -14    1    6    6    0    0 -0.26372078198E+02 -0.19951929280E+02 -0.15177839712E+03  0.15533913809E+03  0.00000000000E+00 0.  1.
</event>
<event>
12    1  0.1066489E+000  0.1809618E+03  0.7818608E-02  0.1167194E+00
         21   -1    0    0  501  502  0.00000000000E+00  0.00000000000E+00  0.10757265106E+03  0.10757265106E+03  0.00000000000E+00 0.  1.
         21   -1    0    0  502  503 -0.00000000000E+00 -0.00000000000E+00 -0.41783164249E+03  0.41783164249E+03  0.00000000000E+00 0.  1.
         -6    2    1    2    0  503  0.20058374923E+02  0.48349573010E+02 -0.17344892982E+02  0.18179118058E+03  0.17322577293E+03 0.  0.
        -24    2    3    3    0    0 -0.34393760181E+02  0.49295754565E+02 -0.55885293336E+02  0.11490782887E+03  0.80421644886E+02 0.  0.
          6    2    1    2  501    0 -0.20058374923E+02 -0.48349573010E+02 -0.29291409844E+03  0.34361311297E+03  0.17184668377E+03 0.  0.
         24    2    5    5    0    0 -0.49749700630E+02 -0.13785441045E+02 -0.28242109754E+03  0.29661899516E+03  0.74539122981E+02 0.  0.
          5    1    5    5  501    0  0.29691325707E+02 -0.34564131966E+02 -0.10493000899E+02  0.46994117809E+02  0.47000000000E+01 0. -1.
        -13    1    6    6    0    0 -0.23412266279E+02  0.26305685375E+02 -0.64563042631E+02  0.73542571135E+02  0.00000000000E+00 0.  1.
         14    1    6    6    0    0 -0.26337434352E+02 -0.40091126420E+02 -0.21785805491E+03  0.22307642402E+03  0.00000000000E+00 0. -1.
         -5    1    3    3    0  503  0.54452135104E+02 -0.94618155440E+00  0.38540400353E+02  0.66883351712E+02  0.47000000000E+01 0.  1.
         11    1    4    4    0    0  0.26115604309E+02  0.21411766061E+02 -0.19403858902E+02  0.38948661782E+02  0.00000000000E+00 0. -1.
        -12    1    4    4    0    0 -0.60509364490E+02  0.27883988503E+02 -0.36481434434E+02  0.75959167085E+02  0.00000000000E+00 0.  1.
</event>
<event>
12    1  0.2140229E+000  0.4877735E+03  0.7818608E-02  0.1017077E+00
         21   -1    0    0  501  502  0.00000000000E+00  0.00000000000E+00  0.98648698450E+03  0.98648698450E+03  0.00000000000E+00 0. -1.
         21   -1    0    0  502  503 -0.00000000000E+00 -0.00000000000E+00 -0.47627802861E+03  0.47627802861E+03  0.00000000000E+00 0. -1.
         -6    2    1    2    0  503  0.33234561785E+03  0.31208835841E+03  0.76951509098E+03  0.91108530265E+03  0.17340761316E+03 0.  0.
        -24    2    3    3    0    0  0.86966007969E+02  0.51681368844E+02  0.23877646173E+03  0.27098489199E+03  0.78641989922E+02 0.  0.
          6    2    1    2  501    0 -0.33234561785E+03 -0.31208835841E+03 -0.25930613509E+03  0.55167971046E+03  0.17104992861E+03 0.  0.
         24    2    5    5    0    0 -0.19579171221E+03 -0.26645223046E+03 -0.20881194078E+03  0.39903181831E+03  0.79327042809E+02 0.  0.
          5    1    5    5  501    0 -0.13655390564E+03 -0.45636127947E+02 -0.50494194307E+02  0.15264789215E+03  0.47000000000E+01 0. -1.
        -13    1    6    6    0    0 -0.17579341483E+03 -0.18699264704E+03 -0.14204824109E+03  0.29333816243E+03  0.00000000000E+00 0.  1.
         14    1    6    6    0    0 -0.19998297389E+02 -0.79459583424E+02 -0.66763699691E+02  0.10569365588E+03  0.00000000000E+00 0. -1.
         -5    1    3    3    0  503  0.24537960988E+03  0.26040698957E+03  0.53073862924E+03  0.64010041067E+03  0.47000000000E+01 0.  1.
         11    1    4    4    0    0 -0.56442286575E+01  0.32505356053E+02  0.73445641320E+02  0.80515325983E+02  0.00000000000E+00 0. -1.
        -12    1    4    4    0    0  0.92610236626E+02  0.19176012791E+02  0.16533082041E+03  0.19046956600E+03  0.00000000000E+00 0.  1.
</event>
<event>
12    1  0.1066489E+000  0.5295774E+03  0.7818608E-02  0.1006338E+00
         21   -1    0    0  503  502  0.00000000000E+00  0.00000000000E+00  0.31972571539E+03  0.31972571539E+03  0.00000000000E+00 0.  1.
         21   -1    0    0  501  503 -0.00000000000E+00 -0.00000000000E+00 -0.12089920683E+04  0.12089920683E+04  0.00000000000E+00 0. -1.
          6    2    1    2  501    0  0.10961898222E+02 -0.50088801893E+03 -0.84511000867E+03  0.99730269401E+03  0.17144318594E+03 0.  0.
         24    2    3    3    0    0 -0.11759675569E+02 -0.29986137482E+03 -0.62708648471E+03  0.69983953905E+03  0.80515756456E+02 0.  0.
         -6    2    1    2    0  502 -0.10961898222E+02  0.50088801893E+03 -0.44156344273E+02  0.53141508972E+03  0.17159033807E+03 0.  0.
        -24    2    5    5    0    0 -0.62492542963E+02  0.34973047889E+03  0.55431168303E+01  0.36409463164E+03  0.79482380764E+02 0.  0.
          5    1    3    3  501    0  0.22721573791E+02 -0.20102664411E+03 -0.21802352396E+03  0.29746315496E+03  0.47000000000E+01 0. -1.
        -11    1    4    4    0    0  0.29852548184E+02 -0.11347321583E+03 -0.19767815207E+03  0.22987822243E+03  0.00000000000E+00 0.  1.
         12    1    4    4    0    0 -0.41612223753E+02 -0.18638815899E+03 -0.42940833264E+03  0.46996131662E+03  0.00000000000E+00 0. -1.
         -5    1    5    5    0  502  0.51530644741E+02  0.15115754004E+03 -0.49699461103E+02  0.16732045808E+03  0.47000000000E+01 0.  1.
         13    1    6    6    0    0 -0.73347215753E+02  0.29308103308E+03 -0.15949650384E+02  0.30254040615E+03  0.00000000000E+00 0. -1.
        -14    1    6    6    0    0  0.10854672790E+02  0.56649445812E+02  0.21492767214E+02  0.61554225482E+02  0.00000000000E+00 0.  1.
</event>
<event>
12    1  0.1066489E+000  0.1806964E+03  0.7818608E-02  0.1167154E+00
         21   -1    0    0  503  502  0.00000000000E+00  0.00000000000E+00  0.10120652664E+03  0.10120652664E+03  0.00000000000E+00 0.  1.
         21   -1    0    0  501  503 -0.00000000000E+00 -0.00000000000E+00 -0.44540240496E+03  0.44540240496E+03  0.00000000000E+00 0.  1.
          6    2    1    2  501    0 -0.12845101893E+02  0.53920808386E+02 -0.31572950423E+03  0.36378058546E+03  0.17198472111E+03 0.  0.
         24    2    3    3    0    0  0.14314306783E+02 -0.21960288390E+01 -0.57928286058E+02  0.98506593159E+02  0.78346286758E+02 0.  0.
         -6    2    1    2    0  502  0.12845101893E+02 -0.53920808386E+02 -0.28466374086E+02  0.18282834614E+03  0.17188199289E+03 0.  0.
        -24    2    5    5    0    0  0.14997029406E+02 -0.10142851727E+03 -0.28334983074E+02  0.13504005826E+03  0.83188286817E+02 0.  0.
          5    1    3    3  501    0 -0.27159408676E+02  0.56116837225E+02 -0.25780121817E+03  0.26527399230E+03  0.47000000000E+01 0. -1.
        -13    1    4    4    0    0  0.29396657837E+02  0.26204139397E+02 -0.52916266417E+02  0.65961743950E+02  0.00000000000E+00 0.  1.
         14    1    4    4    0    0 -0.15082351054E+02 -0.28400168236E+02 -0.50120196410E+01  0.32544849208E+02  0.00000000000E+00 0. -1.
         -5    1    5    5    0  502 -0.21519275137E+01  0.47507708880E+02 -0.13139101187E+00  0.47788287882E+02  0.47000000000E+01 0.  1.
         13    1    6    6    0    0  0.29129518801E+00 -0.79330991451E+02 -0.55687356677E+02  0.96925604208E+02  0.00000000000E+00 0. -1.
        -14    1    6    6    0    0  0.14705734218E+02 -0.22097525816E+02  0.27352373603E+02  0.38114454053E+02  0.00000000000E+00 0.  1.
</event>
<event>
12    1  0.1066489E+000  0.1804807E+03  0.7818608E-02  0.1167895E+00
         21   -1    0    0  501  502  0.00000000000E+00  0.00000000000E+00  0.66502008606E+02  0.66502008606E+02  0.00000000000E+00 0.  1.
         21   -1    0    0  502  503 -0.00000000000E+00 -0.00000000000E+00 -0.52522650739E+03  0.52522650739E+03  0.00000000000E+00 0.  1.
         -6    2    1    2    0  503 -0.55120935405E+02  0.19016660544E+02 -0.14743403021E+03  0.23304525669E+03  0.17080207113E+03 0.  0.
        -24    2    3    3    0    0 -0.61072118672E+01  0.73377019805E+02 -0.37733354256E+02  0.10108419402E+03  0.58075151190E+02 0.  0.
          6    2    1    2  501    0  0.55120935405E+02 -0.19016660544E+02 -0.31129046858E+03  0.35868325931E+03  0.16838044360E+03 0.  0.
         24    2    5    5    0    0  0.23465707278E+02 -0.15982924471E+02 -0.60176284232E+02  0.10551991165E+03  0.81897333763E+02 0.  0.
          5    1    5    5  501    0  0.31655228127E+02 -0.30337360723E+01 -0.25111418434E+03  0.25316334767E+03  0.47000000000E+01 0. -1.
        -11    1    6    6    0    0  0.20215345552E+02  0.53040882720E+01  0.16023900516E+02  0.26335507132E+02  0.00000000000E+00 0.  1.
         12    1    6    6    0    0  0.32503617259E+01 -0.21287012743E+02 -0.76200184747E+02  0.79184404515E+02  0.00000000000E+00 0. -1.
         -5    1    3    3    0  503 -0.49013723538E+02 -0.54360359262E+02 -0.10970067596E+03  0.13196106266E+03  0.47000000000E+01 0.  1.
         13    1    4    4    0    0 -0.30782234243E+02  0.37174386285E+02 -0.10174846787E+02  0.49325535454E+02  0.00000000000E+00 0. -1.
        -14    1    4    4    0    0  0.24675022376E+02  0.36202633520E+02 -0.27558507469E+02  0.51758658570E+02  0.00000000000E+00 0.  1.
</event>
<event>
12    1  0.1066489E+000  0.2316354E+03  0.7818608E-02  0.1125618E+00
         21   -1    0    0  501  502  0.00000000000E+00  0.00000000000E+00  0.24944427686E+03  0.24944427686E+03  0.00000000000E+00 0.  1.
         21   -1    0    0  502  503 -0.00000000000E+00 -0.00000000000E+00 -0.23530756711E+03  0.23530756711E+03  0.00000000000E+00 0.  1.
         -6    2    1    2    0  503 -0.13599047118E+03  0.75086190113E+02  0.79256537812E+02  0.24481946795E+03  0.17182441300E+03 0.  0.
        -24    2    3    3    0    0 -0.15559062912E+03  0.84792009048E+02  0.90229367054E+02  0.21990236350E+03  0.93901981484E+02 0.  0.
          6    2    1    2  501    0  0.13599047118E+03 -0.75086190113E+02 -0.65119828058E+02  0.23993237602E+03  0.17086722581E+03 0.  0.
         24    2    5    5    0    0  0.11608964316E+03  0.36079508290E+01  0.59931538677E+01  0.13191405825E+03  0.62254142943E+02 0.  0.
          5    1    5    5  501    0  0.19900828025E+02 -0.78694140942E+02 -0.71112981926E+02  0.10801831777E+03  0.47000000000E+01 0. -1.
        -11    1    6    6    0    0  0.34540285410E+02  0.27067137396E+02 -0.11298711492E+02  0.45313597566E+02  0.00000000000E+00 0.  1.
         12    1    6    6    0    0  0.81549357745E+02 -0.23459186567E+02  0.17291865359E+02  0.86600460683E+02  0.00000000000E+00 0. -1.
         -5    1    3    3    0  503  0.19600157940E+02 -0.97058189347E+01 -0.10972829242E+02  0.24917104448E+02  0.47000000000E+01 0.  1.
         11    1    4    4    0    0 -0.13016515907E+03  0.30350567337E+02  0.34702833054E+02  0.13808842165E+03  0.00000000000E+00 0. -1.
        -12    1    4    4    0    0 -0.25425470054E+02  0.54441441711E+02  0.55526534000E+02  0.81813941851E+02  0.00000000000E+00 0.  1.
</event>
<event>
12    1  0.1066489E+000  0.1944713E+03  0.7818608E-02  0.1154542E+00
         21   -1    0    0  501  502  0.00000000000E+00  0.00000000000E+00  0.81593387957E+02  0.81593387957E+02  0.00000000000E+00 0. -1.
         21   -1    0    0  502  503 -0.00000000000E+00 -0.00000000000E+00 -0.47725382979E+03  0.47725382979E+03  0.00000000000E+00 0. -1.
         -6    2    1    2    0  503  0.49445823731E+02 -0.76733908118E+02 -0.14930141936E+03  0.24498125084E+03  0.17144071074E+03 0.  0.
        -24    2    3    3    0    0 -0.25570665932E+02  0.32872904084E+01 -0.72949360553E+02  0.11125543875E+03  0.79946846164E+02 0.  0.
          6    2    1    2  501    0 -0.49445823731E+02  0.76733908118E+02 -0.24635902247E+03  0.31386596691E+03  0.17171515684E+03 0.  0.
         24    2    5    5    0    0 -0.67581093929E+02  0.10617471374E+03 -0.23308228871E+03  0.27652951394E+03  0.79378489995E+02 0.  0.
          5    1    5    5  501    0  0.18135270199E+02 -0.29440805622E+02 -0.13276733760E+02  0.37336452967E+02  0.47000000000E+01 0. -1.
        -11    1    6    6    0    0 -0.22282571097E+02  0.50209123125E+02 -0.17681277530E+03  0.18514920072E+03  0.00000000000E+00 0.  1.
         12    1    6    6    0    0 -0.45298522832E+02  0.55965590615E+02 -0.56269513412E+02  0.91380313215E+02  0.00000000000E+00 0. -1.
         -5    1    3    3    0  503  0.75016489663E+02 -0.80021198526E+02 -0.76352058805E+02  0.13372581209E+03  0.47000000000E+01 0.  1.
         13    1    4    4    0    0  0.25357896936E+02  0.14404393402E+02 -0.13343782608E+02  0.32071264718E+02  0.00000000000E+00 0. -1.
        -14    1    4    4    0    0 -0.50928562868E+02 -0.11117102994E+02 -0.59605577945E+02  0.79184174031E+02  0.00000000000E+00 0.  1.
</event>
<event>
12    1  0.1066489E+000  0.1773907E+03  0.7818608E-02  0.1175848E+00
         21   -1    0    0  501  502  0.00000000000E+00  0.00000000000E+00  0.19260109896E+03  0.19260109896E+03  0.00000000000E+00 0. -1.
         21   -1    0    0  502  503 -0.00000000000E+00 -0.00000000000E+00 -0.30027320847E+03  0.30027320847E+03  0.00000000000E+00 0. -1.
         -6    2    1    2    0  503 -0.91860513314E+01 -0.44146722710E+02 -0.23264881048E+03  0.29256271667E+03  0.17156385839E+03 0.  0.
        -24    2    3    3    0    0 -0.65984813447E+01 -0.75144548424E+02 -0.23455827582E+03  0.26104610557E+03  0.86239442047E+02 0.  0.
          6    2    1    2  501    0  0.91860513314E+01  0.44146722710E+02  0.12497670097E+03  0.20031159076E+03  0.14990744125E+03 0.  0.
         24    2    5    5    0    0 -0.90952087843E+01  0.51832097216E+02  0.28686329062E+02  0.10188804086E+03  0.82395256362E+02 0.  0.
          5    1    5    5  501    0  0.18281260116E+02 -0.76853745069E+01  0.96290371905E+02  0.98423549897E+02  0.47000000000E+01 0. -1.
        -11    1    6    6    0    0  0.21525816663E+02 -0.29865634620E+01 -0.14099745991E+02  0.25905273234E+02  0.00000000000E+00 0.  1.
         12    1    6    6    0    0 -0.30621025447E+02  0.54818660678E+02  0.42786075053E+02  0.75982767628E+02  0.00000000000E+00 0. -1.
         -5    1    3    3    0  503 -0.25875699867E+01  0.30997825715E+02  0.19094653431E+01  0.31516611102E+02  0.47000000000E+01 0.  1.
         13    1    4    4    0    0  0.11188900052E+02 -0.40222497917E+02 -0.26772025735E+02  0.49596191235E+02  0.00000000000E+00 0. -1.
        -14    1    4    4    0    0 -0.17787381397E+02 -0.34922050508E+02 -0.20778625009E+03  0.21144991434E+03  0.00000000000E+00 0.  1.
</event>
<event>
12    1  0.1066489E+000  0.2122181E+03  0.7818608E-02  0.1139996E+00
         21   -1    0    0  501  502  0.00000000000E+00  0.00000000000E+00  0.17037151767E+03  0.17037151767E+03  0.00000000000E+00 0.  1.
         21   -1    0    0  502  503 -0.00000000000E+00 -0.00000000000E+00 -0.30581257918E+03  0.30581257918E+03  0.00000000000E+00 0.  1.
         -6    2    1    2    0  503  0.95545274179E+02 -0.76620126579E+02  0.21000831238E+02  0.21325466200E+03  0.17331177900E+03 0.  0.
        -24    2    3    3    0    0  0.10545160234E+03 -0.14050884415E+01  0.32793448718E+02  0.13633526831E+03  0.79936727450E+02 0.  0.
          6    2    1    2  501    0 -0.95545274179E+02  0.76620126579E+02 -0.15644189275E+03  0.26292943485E+03  0.17221579105E+03 0.  0.
         24    2    5    5    0    0 -0.11351500043E+02  0.71640923407E+02 -0.14034530215E+03  0.17693772422E+03  0.79679834076E+02 0.  0.
          5    1    5    5  501    0 -0.84193774136E+02  0.49792031720E+01 -0.16096590601E+02  0.85991710626E+02  0.47000000000E+01 0. -1.
        -13    1    6    6    0    0  0.16938568444E+02 -0.11067965301E+02 -0.29489036711E+02  0.35763364536E+02  0.00000000000E+00 0.  1.
         14    1    6    6    0    0 -0.28290068487E+02  0.82708888708E+02 -0.11085626543E+03  0.14117435968E+03  0.00000000000E+00 0. -1.
         -5    1    3    3    0  503 -0.99063281643E+01 -0.75215038137E+02 -0.11792617479E+02  0.76919393697E+02  0.47000000000E+01 0.  1.
         11    1    4    4    0    0  0.77403241167E+02 -0.32139901254E+02  0.41960748422E+02  0.93728007574E+02  0.00000000000E+00 0. -1.
        -12    1    4    4    0    0  0.28048361176E+02  0.30734812813E+02 -0.91672997042E+01  0.42607260733E+02  0.00000000000E+00 0.  1.
</event>
<event>
12    1  0.1066489E+000  0.1916705E+03  0.7818608E-02  0.1157457E+00
         21   -1    0    0  503  502  0.00000000000E+00  0.00000000000E+00  0.71761898913E+03  0.71761898913E+03  0.00000000000E+00 0.  1.
         21   -1    0    0  501  503 -0.00000000000E+00 -0.00000000000E+00 -0.56444023017E+02  0.56444023017E+02  0.00000000000E+00 0.  1.
          6    2    1    2  501    0  0.14097096942E+02 -0.77403510186E+02  0.20441988381E+03  0.27872193879E+03  0.17236124487E+03 0.  0.
         24    2    3    3    0    0  0.58684984131E+02  0.42273080724E+00  0.11379596065E+03  0.15112966269E+03  0.80290399300E+02 0.  0.
         -6    2    1    2    0  502 -0.14097096942E+02  0.77403510186E+02  0.45675508230E+03  0.49534107336E+03  0.17477855195E+03 0.  0.
        -24    2    5    5    0    0 -0.35982501108E+02 -0.12404764648E+02  0.13479719838E+03  0.16034336268E+03  0.78045439918E+02 0.  0.
          5    1    3    3  501    0 -0.44587887189E+02 -0.77826240993E+02  0.90623923163E+02  0.12759227610E+03  0.47000000000E+01 0. -1.
        -13    1    4    4    0    0 -0.19080395200E+02  0.34877290992E+01  0.11344104536E+02  0.22470301355E+02  0.00000000000E+00 0.  1.
         14    1    4    4    0    0  0.77765379331E+02 -0.30649982919E+01  0.10245185611E+03  0.12865936133E+03  0.00000000000E+00 0. -1.
         -5    1    5    5    0  502  0.21885404165E+02  0.89808274834E+02  0.32195788392E+03  0.33499771068E+03  0.47000000000E+01 0.  1.
         11    1    6    6    0    0 -0.39441939839E+02 -0.28162233444E+02  0.13579068418E+03  0.14418005382E+03  0.00000000000E+00 0. -1.
        -12    1    6    6    0    0  0.34594387316E+01  0.15757468795E+02 -0.99348579664E+00  0.16163308857E+02  0.00000000000E+00 0.  1.
</event>
<event>
12    1  0.1066489E+000  0.5620357E+03  0.7818608E-02  0.9988928E-01
         21   -1    0    0  501  502  0.00000000000E+00  0.00000000000E+00  0.27742872745E+03  0.27742872745E+03  0.00000000000E+00 0. -1.
         21   -1    0    0  502  503 -0.00000000000E+00 -0.00000000000E+00 -0.14734213649E+04  0.14734213649E+04  0.00000000000E+00 0. -1.
         -6    2    1    2    0  503  0.10927824488E+03  0.52391640880E+03 -0.17849026245E+03  0.58969725371E+03  0.17162149933E+03 0.  0.
        -24    2    3    3    0    0  0.81146071416E+02  0.29050848602E+03 -0.16721903528E+03  0.35428313314E+03  0.81083088967E+02 0.  0.
          6    2    1    2  501    0 -0.10927824488E+03 -0.52391640880E+03 -0.10175023750E+04  0.11611528387E+04  0.16289473084E+03 0.  0.
         24    2    5    5    0    0 -0.92039924405E+02 -0.52144495264E+03 -0.93505326797E+03  0.10767537093E+04  0.68540135460E+02 0.  0.
          5    1    5    5  501    0 -0.17238320470E+02 -0.24714561644E+01 -0.82449107040E+02  0.84399129379E+02  0.47000000000E+01 0. -1.
        -11    1    6    6    0    0 -0.45631859629E+02 -0.32671142061E+03 -0.51764307534E+03  0.61382161286E+03  0.00000000000E+00 0.  1.
         12    1    6    6    0    0 -0.46408064776E+02 -0.19473353203E+03 -0.41741019263E+03  0.46293209641E+03  0.00000000000E+00 0. -1.
         -5    1    3    3    0  503  0.28132173459E+02  0.23340792278E+03 -0.11271227174E+02  0.23541412057E+03  0.47000000000E+01 0.  1.
         11    1    4    4    0    0  0.40060169577E+02  0.93472855938E+02 -0.98564365061E+02  0.14162247718E+03  0.00000000000E+00 0. -1.
        -12    1    4    4    0    0  0.41085901839E+02  0.19703563008E+03 -0.68654670216E+02  0.21266065596E+03  0.00000000000E+00 0.  1.
</event>
<event>
12    1  0.1066489E+000  0.1789630E+03  0.7818608E-02  0.1168877E+00
         21   -1    0    0  503  502  0.00000000000E+00  0.00000000000E+00  0.10413975784E+03  0.10413975784E+03  0.00000000000E+00 0. -1.
         21   -1    0    0  501  503 -0.00000000000E+00 -0.00000000000E+00 -0.33707813793E+03  0.33707813793E+03  0.00000000000E+00 0. -1.
          6    2    1    2  501    0  0.29378213707E+02 -0.39759603249E+02 -0.50735272462E+02  0.18601569305E+03  0.17199960668E+03 0.  0.
         24    2    3    3    0    0 -0.26630831136E+02 -0.74810288124E+02 -0.39245322881E+02  0.11878718306E+03  0.79148083453E+02 0.  0.
         -6    2    1    2    0  502 -0.29378213707E+02  0.39759603249E+02 -0.18220310762E+03  0.25520220272E+03  0.17171571377E+03 0.  0.
        -24    2    5    5    0    0 -0.23100538756E+02  0.91081899026E+02 -0.86915454924E+02  0.14668854458E+03  0.71649742399E+02 0.  0.
          5    1    3    3  501    0  0.56009044843E+02  0.35050684875E+02 -0.11489949581E+02  0.67228509992E+02  0.47000000000E+01 0. -1.
        -11    1    4    4    0    0 -0.29773856990E+02  0.57141279864E+01 -0.31286942199E+01  0.30478230694E+02  0.00000000000E+00 0.  1.
         12    1    4    4    0    0  0.31430258547E+01 -0.80524416111E+02 -0.36116628661E+02  0.88308952362E+02  0.00000000000E+00 0. -1.
         -5    1    5    5    0  502 -0.62776749508E+01 -0.51322295777E+02 -0.95287652695E+02  0.10851365814E+03  0.47000000000E+01 0.  1.
         13    1    6    6    0    0 -0.22669798403E+02  0.50243968336E+02 -0.52380846274E+01  0.55369789997E+02  0.00000000000E+00 0. -1.
        -14    1    6    6    0    0 -0.43074035270E+00  0.40837930691E+02 -0.81677370297E+02  0.91318754585E+02  0.00000000000E+00 0.  1.
</event>
<event>
12    1  0.1066489E+000  0.2684605E+03  0.7818608E-02  0.1102209E+00
         21   -1    0    0  501  502  0.00000000000E+00  0.00000000000E+00  0.39225589482E+03  0.39225589482E+03  0.00000000000E+00 0.  1.
         21   -1    0    0  502  503 -0.00000000000E+00 -0.00000000000E+00 -0.18355823687E+03  0.18355823687E+03  0.00000000000E+00 0. -1.
         -6    2    1    2    0  503 -0.31085177941E+02  0.20406221815E+03  0.10849151578E+03  0.28955390500E+03  0.17164899575E+03 0.  0.
        -24    2    3    3    0    0  0.36077841130E+02  0.15044741859E+03  0.37863016327E+02  0.17821706116E+03  0.79947961212E+02 0.  0.
          6    2    1    2  501    0  0.31085177941E+02 -0.20406221815E+03  0.10020614217E+03  0.28626022668E+03  0.17116065344E+03 0.  0.
         24    2    5    5    0    0 -0.18321380162E+02 -0.35427501666E+02  0.14760009102E+02  0.90807400545E+02  0.80233068492E+02 0.  0.
          5    1    5    5  501    0  0.49406558103E+02 -0.16863471648E+03  0.85446133068E+02  0.19545282613E+03  0.47000000000E+01 0. -1.
        -13    1    6    6    0    0  0.34460071951E+01 -0.38759114777E+02 -0.24365189794E+02  0.45910852939E+02  0.00000000000E+00 0.  1.
         14    1    6    6    0    0 -0.21767387357E+02  0.33316131112E+01  0.39125198896E+02  0.44896547606E+02  0.00000000000E+00 0. -1.
         -5    1    3    3    0  503 -0.67163019071E+02  0.53614799561E+02  0.70628499451E+02  0.11133684385E+03  0.47000000000E+01 0.  1.
         11    1    4    4    0    0 -0.23219721273E+01  0.12672092800E+03  0.40349540656E+02  0.13301003939E+03  0.00000000000E+00 0. -1.
        -12    1    4    4    0    0  0.38399813258E+02  0.23726490591E+02 -0.24865243286E+01  0.45207021769E+02  0.00000000000E+00 0.  1.
</event>
<event>
12    1  0.1066489E+000  0.2028466E+03  0.7818608E-02  0.1147529E+00
         21   -1    0    0  501  502  0.00000000000E+00  0.00000000000E+00  0.61640929374E+02  0.61640929374E+02  0.00000000000E+00 0.  1.
         21   -1    0    0  502  503 -0.00000000000E+00 -0.00000000000E+00 -0.80484523181E+03  0.80484523181E+03  0.00000000000E+00 0.  1.
         -6    2    1    2    0  503  0.10762095416E+03 -0.44486610415E+01 -0.19028465234E+03  0.27753211813E+03  0.17092035373E+03 0.  0.
        -24    2    3    3    0    0  0.18242928707E+02  0.38560059832E+02 -0.12546520820E+03  0.15894952310E+03  0.87771007534E+02 0.  0.
          6    2    1    2  501    0 -0.10762095416E+03  0.44486610415E+01 -0.55291965010E+03  0.58895404305E+03  0.17188561605E+03 0.  0.
         24    2    5    5    0    0  0.10593301873E+02 -0.13741774056E+01 -0.28382103747E+03  0.29493930007E+03  0.79502849027E+02 0.  0.
          5    1    5    5  501    0 -0.11821425604E+03  0.58228384471E+01 -0.26909861262E+03  0.29401474299E+03  0.47000000000E+01 0. -1.
        -13    1    6    6    0    0 -0.26600249616E+01  0.34334933949E+02 -0.19901138741E+03  0.20196904649E+03  0.00000000000E+00 0.  1.
         14    1    6    6    0    0  0.13253326835E+02 -0.35709111354E+02 -0.84809650062E+02  0.92970253574E+02  0.00000000000E+00 0. -1.
         -5    1    3    3    0  503  0.89378025455E+02 -0.43008720873E+02 -0.64819444140E+02  0.11858259503E+03  0.47000000000E+01 0.  1.
         13    1    4    4    0    0  0.51141014909E+02  0.39573271475E+02 -0.84231336122E+02  0.10619023122E+03  0.00000000000E+00 0. -1.
        -14    1    4    4    0    0 -0.32898086202E+02 -0.10132116427E+01 -0.41233872081E+02  0.52759291887E+02  0.00000000000E+00 0.  1.
</event>
<event>
12    1  0.1066489E+000  0.2776602E+03  0.7818608E-02  0.1097198E+00
         21   -1    0    0  503  502  0.00000000000E+00  0.00000000000E+00  0.39469384863E+03  0.39469384863E+03  0.00000000000E+00 0. -1.
         21   -1    0    0  501  503 -0.00000000000E+00 -0.00000000000E+00 -0.21455204459E+03  0.21455204459E+03  0.00000000000E+00 0. -1.
          6    2    1    2  501    0 -0.19119105657E+03 -0.99742896613E+02  0.18414563106E+03  0.33317380360E+03  0.17490713087E+03 0.  0.
         24    2    3    3    0    0 -0.32309915902E+02 -0.73771854889E+02  0.99269839023E+02  0.15111968543E+03  0.80600503382E+02 0.  0.
         -6    2    1    2    0  502  0.19119105657E+03  0.99742896613E+02 -0.40038270175E+01  0.27607208962E+03  0.17232847268E+03 0.  0.
        -24    2    5    5    0    0  0.10132625253E+03  0.12333467733E+03 -0.28338072701E+02  0.17991336336E+03  0.78021278301E+02 0.  0.
          5    1    3    3  501    0 -0.15888114067E+03 -0.25971041724E+02  0.84875792034E+02  0.18205411817E+03  0.47000000000E+01 0. -1.
        -11    1    4    4    0    0 -0.20406938943E+01 -0.75300971143E+02  0.41802876501E+02  0.86150340513E+02  0.00000000000E+00 0.  1.
         12    1    4    4    0    0 -0.30269222008E+02  0.15291162541E+01  0.57466962522E+02  0.64969344917E+02  0.00000000000E+00 0. -1.
         -5    1    5    5    0  502  0.89864804038E+02 -0.23591780714E+02  0.24334245684E+02  0.96158726255E+02  0.47000000000E+01 0.  1.
         11    1    6    6    0    0  0.37631648406E+02  0.10432838255E+03 -0.12733886998E+02  0.11163648259E+03  0.00000000000E+00 0. -1.
        -12    1    6    6    0    0  0.63694604127E+02  0.19006294775E+02 -0.15604185703E+02  0.68276880768E+02  0.00000000000E+00 0.  1.
</event>
<event>
12    1  0.1066489E+000  0.2236834E+03  0.7818608E-02  0.1131850E+00
         21   -1    0    0  501  502  0.00000000000E+00  0.00000000000E+00  0.17769155319E+03  0.17769155319E+03  0.00000000000E+00 0.  1.
         21   -1    0    0  502  503 -0.00000000000E+00 -0.00000000000E+00 -0.27793630247E+03  0.27793630247E+03  0.00000000000E+00 0.  1.
         -6    2    1    2    0  503 -0.25169758939E+02  0.14979235028E+03 -0.36806331433E+02  0.22669132928E+03  0.16420410399E+03 0.  0.
        -24    2    3    3    0    0 -0.66872113095E+02  0.86683634224E+02  0.14098534316E+02  0.13539405801E+03  0.78401851520E+02 0.  0.
          6    2    1    2  501    0  0.25169758939E+02 -0.14979235028E+03 -0.63438417846E+02  0.22893652638E+03  0.15911076419E+03 0.  0.
         24    2    5    5    0    0 -0.72971432140E+01 -0.83103486489E+02  0.20612526578E+02  0.11673957656E+03  0.79017812661E+02 0.  0.
          5    1    5    5  501    0  0.32466902153E+02 -0.66688863796E+02 -0.84050944424E+02  0.11219694982E+03  0.47000000000E+01 0. -1.
        -13    1    6    6    0    0 -0.29674393816E+02 -0.35469040716E+02  0.39506017204E+02  0.60822264780E+02  0.00000000000E+00 0.  1.
         14    1    6    6    0    0  0.22377250602E+02 -0.47634445773E+02 -0.18893490627E+02  0.55917311779E+02  0.00000000000E+00 0. -1.
         -5    1    3    3    0  503  0.41702354156E+02  0.63108716061E+02 -0.50904865748E+02  0.91297271273E+02  0.47000000000E+01 0.  1.
         11    1    4    4    0    0 -0.27774740874E+02  0.89597968511E+02  0.19524286401E+02  0.95814560226E+02  0.00000000000E+00 0. -1.
        -12    1    4    4    0    0 -0.39097372221E+02 -0.29143342872E+01 -0.54257520849E+01  0.39579497781E+02  0.00000000000E+00 0.  1.
</event>
<event>
12    1  0.1066489E+000  0.2712405E+03  0.7818608E-02  0.1101072E+00
         21   -1    0    0  503  502  0.00000000000E+00  0.00000000000E+00  0.78096966840E+02  0.78096966840E+02  0.00000000000E+00 0. -1.
         21   -1    0    0  501  503 -0.00000000000E+00 -0.00000000000E+00 -0.94848389080E+03  0.94848389080E+03  0.00000000000E+00 0. -1.
          6    2    1    2  501    0  0.14305917046E+03  0.15166204906E+03 -0.36067561523E+03  0.44919274965E+03  0.16798786722E+03 0.  0.
         24    2    3    3    0    0  0.64936352615E+02  0.28222607117E+02 -0.84237792978E+02  0.13649412466E+03  0.80755153753E+02 0.  0.
         -6    2    1    2    0  502 -0.14305917046E+03 -0.15166204906E+03 -0.50971130873E+03  0.57738810799E+03  0.17350534755E+03 0.  0.
        -24    2    5    5    0    0 -0.34295239936E+02 -0.37806021687E+02 -0.30358380967E+03  0.31795907449E+03  0.79557430850E+02 0.  0.
          5    1    3    3  501    0  0.78122817846E+02  0.12343944195E+03 -0.27643782226E+03  0.31269862499E+03  0.47000000000E+01 0. -1.
        -13    1    4    4    0    0  0.70716454074E+02 -0.24398640297E+01 -0.76780776930E+02  0.10441291835E+03  0.00000000000E+00 0.  1.
         14    1    4    4    0    0 -0.57801014591E+01  0.30662471147E+02 -0.74570160479E+01  0.32081206306E+02  0.00000000000E+00 0. -1.
         -5    1    5    5    0  502 -0.10876393052E+03 -0.11385602738E+03 -0.20612749906E+03  0.25942903350E+03  0.47000000000E+01 0.  1.
         13    1    6    6    0    0 -0.96659705437E+01  0.23864998672E+02 -0.56206302426E+02  0.61823277012E+02  0.00000000000E+00 0. -1.
        -14    1    6    6    0    0 -0.24629269392E+02 -0.61671020360E+02 -0.24737750724E+03  0.25613579748E+03  0.00000000000E+00 0.  1.
</event>
<event>
12    1  0.1066489E+000  0.1912839E+03  0.7818608E-02  0.1157327E+00
         21   -1    0    0  501  502  0.00000000000E+00  0.00000000000E+00  0.32389919847E+03  0.32389919847E+03  0.00000000000E+00 0. -1.
         21   -1    0    0  502  503 -0.00000000000E+00 -0.00000000000E+00 -0.12727290920E+03  0.12727290920E+03  0.00000000000E+00 0. -1.
         -6    2    1    2    0  503 -0.79991468293E+02  0.25262394474E+02  0.17405807427E+03  0.25856152549E+03  0.17181683756E+03 0.  0.
        -24    2    3    3    0    0 -0.76820611628E+02  0.75484733534E+02  0.96095863783E+02  0.16565009488E+03  0.81278456743E+02 0.  0.
          6    2    1    2  501    0  0.79991468293E+02 -0.25262394474E+02  0.22568214994E+02  0.19261058219E+03  0.17190895401E+03 0.  0.
         24    2    5    5    0    0  0.56218428727E+02  0.66662285242E+01  0.79956995081E+02  0.12260946465E+03  0.73722516420E+02 0.  0.
          5    1    5    5  501    0  0.23773039567E+02 -0.31928622998E+02 -0.57388780087E+02  0.70001117539E+02  0.47000000000E+01 0. -1.
        -11    1    6    6    0    0  0.56360714684E+01 -0.29537356192E+02  0.19325303850E+02  0.35744762992E+02  0.00000000000E+00 0.  1.
         12    1    6    6    0    0  0.50582357258E+02  0.36203584717E+02  0.60631691231E+02  0.86864701655E+02  0.00000000000E+00 0. -1.
         -5    1    3    3    0  503 -0.31708566652E+01 -0.50222339060E+02  0.77962210488E+02  0.92911430604E+02  0.47000000000E+01 0.  1.
         11    1    4    4    0    0  0.11796286748E+02  0.13768048861E+02  0.40093711946E+02  0.44002469113E+02  0.00000000000E+00 0. -1.
        -12    1    4    4    0    0 -0.88616898376E+02  0.61716684673E+02  0.56002151837E+02  0.12164762577E+03  0.00000000000E+00 0.  1.
</event>
<event>
12    1  0.1066489E+000  0.1947881E+03  0.7818608E-02  0.1154480E+00
         21   -1    0    0  501  502  0.00000000000E+00  0.00000000000E+00  0.10290011903E+03  0.10290011903E+03  0.00000000000E+00 0. -1.
         21   -1    0    0  502  503 -0.00000000000E+00 -0.00000000000E+00 -0.36642266111E+03  0.36642266111E+03  0.00000000000E+00 0. -1.
         -6    2    1    2    0  503  0.65042902298E+02 -0.63335526359E+02 -0.13063568202E+03  0.23352349616E+03  0.17095488820E+03 0.  0.
        -24    2    3    3    0    0  0.17716486074E+02 -0.45523021047E+02 -0.24558931330E+02  0.11591634478E+03  0.10221173394E+03 0.  0.
          6    2    1    2  501    0 -0.65042902298E+02  0.63335526359E+02 -0.13288686006E+03  0.23579928399E+03  0.17233808841E+03 0.  0.
         24    2    5    5    0    0 -0.75769092866E+02  0.10369557224E+03 -0.89864429945E+02  0.17565775125E+03  0.79286207293E+02 0.  0.
          5    1    5    5  501    0  0.10726190569E+02 -0.40360045884E+02 -0.43022430115E+02  0.60141532745E+02  0.47000000000E+01 0. -1.
        -13    1    6    6    0    0 -0.18322835469E+02 -0.47115863309E+01  0.61207538108E+01  0.19884390174E+02  0.00000000000E+00 0.  1.
         14    1    6    6    0    0 -0.57446257397E+02  0.10840715857E+03 -0.95985183756E+02  0.15577336107E+03  0.00000000000E+00 0. -1.
         -5    1    3    3    0  503  0.47326416224E+02 -0.17812505312E+02 -0.10607675069E+03  0.11760715138E+03  0.47000000000E+01 0.  1.
         13    1    4    4    0    0  0.27240665927E+02 -0.21733081434E+02 -0.61659801804E+02  0.70825926520E+02  0.00000000000E+00 0. -1.
        -14    1    4    4    0    0 -0.95241798534E+01 -0.23789939613E+02  0.37100870475E+02  0.45090418258E+02  0.00000000000E+00 0.  1.
</event>
<event>
12    1  0.1066489E+000  0.3580331E+03  0.7818608E-02  0.1059373E+00
         21   -1    0    0  503  502  0.00000000000E+00  0.00000000000E+00  0.96432411154E+03  0.96432411154E+03  0.00000000000E+00 0.  1.
         21   -1    0    0  501  503 -0.00000000000E+00 -0.00000000000E+00 -0.14236705205E+03  0.14236705205E+03  0.00000000000E+00 0.  1.
          6    2    1    2  501    0 -0.18316491413E+03  0.25517836669E+03  0.26835069187E+03  0.44743691942E+03  0.17182059956E+03 0.  0.
         24    2    3    3    0    0 -0.65669570416E+02  0.54002793830E+02  0.46501452790E+02  0.12569798520E+03  0.80055007036E+02 0.  0.
         -6    2    1    2    0  502  0.18316491413E+03 -0.25517836669E+03  0.55360636761E+03  0.65925424417E+03  0.17167050884E+03 0.  0.
        -24    2    5    5    0    0  0.12386052668E+03 -0.13224454080E+03  0.20655925148E+03  0.28630179850E+03  0.80448410870E+02 0.  0.
          5    1    3    3  501    0 -0.11749534371E+03  0.20117557286E+03  0.22184923908E+03  0.32173893422E+03  0.47000000000E+01 0. -1.
        -11    1    4    4    0    0 -0.18405037177E+02  0.36794434921E+02  0.60794683384E+02  0.73406875444E+02  0.00000000000E+00 0.  1.
         12    1    4    4    0    0 -0.47264533239E+02  0.17208358909E+02 -0.14293230594E+02  0.52291109755E+02  0.00000000000E+00 0. -1.
         -5    1    5    5    0  502  0.59304387446E+02 -0.12293382589E+03  0.34704711613E+03  0.37295244567E+03  0.47000000000E+01 0.  1.
         11    1    6    6    0    0  0.90549775730E+01 -0.23487616892E+02 -0.12027937432E+01  0.25201338831E+02  0.00000000000E+00 0. -1.
        -12    1    6    6    0    0  0.11480554911E+03 -0.10875692391E+03  0.20776204522E+03  0.26110045967E+03  0.00000000000E+00 0.  1.
</event>
<event>
12    1  0.1066489E+000  0.2346257E+03  0.7818608E-02  0.1123624E+00
         21   -1    0    0  501  502  0.00000000000E+00  0.00000000000E+00  0.15303855468E+03  0.15303855468E+03  0.00000000000E+00 0.  1.
         21   -1    0    0  502  503 -0.00000000000E+00 -0.00000000000E+00 -0.48246890002E+03  0.48246890002E+03  0.00000000000E+00 0.  1.
         -6    2    1    2    0  503 -0.66664443563E+01  0.15817337938E+03 -0.32584407374E+03  0.40085437360E+03  0.17160014283E+03 0.  0.
        -24    2    3    3    0    0 -0.44244010287E+02  0.95052320927E+02 -0.29071608298E+03  0.31929208319E+03  0.80244110858E+02 0.  0.
          6    2    1    2  501    0  0.66664443563E+01 -0.15817337938E+03 -0.35862716013E+01  0.23465308109E+03  0.17316451050E+03 0.  0.
         24    2    5    5    0    0  0.48724125782E+02 -0.87755925281E+02  0.48973566052E+02  0.13712312189E+03  0.79556253862E+02 0.  0.
          5    1    5    5  501    0 -0.42057681426E+02 -0.70417454100E+02 -0.52559837654E+02  0.97529959207E+02  0.47000000000E+01 0. -1.
        -13    1    6    6    0    0  0.50302575916E+02 -0.18639607004E+02  0.22722334269E+01  0.53693082775E+02  0.00000000000E+00 0.  1.
         14    1    6    6    0    0 -0.15784501345E+01 -0.69116318277E+02  0.46701332625E+02  0.83430039111E+02  0.00000000000E+00 0. -1.
         -5    1    3    3    0  503  0.37577565931E+02  0.63121058454E+02 -0.35127990762E+02  0.81562290408E+02  0.47000000000E+01 0.  1.
         11    1    4    4    0    0 -0.54764493181E+02  0.90702362536E+02 -0.18681711340E+03  0.21477127867E+03  0.00000000000E+00 0. -1.
        -12    1    4    4    0    0  0.10520482894E+02  0.43499583905E+01 -0.10389896958E+03  0.10452080452E+03  0.00000000000E+00 0.  1.
</event>
<event>
12    1  0.1066489E+000  0.1946934E+03  0.7818608E-02  0.1154435E+00
         21   -1    0    0  501  502  0.00000000000E+00  0.00000000000E+00  0.11614012867E+03  0.11614012867E+03  0.00000000000E+00 0.  1.
         21   -1    0    0  502  503 -0.00000000000E+00 -0.00000000000E+00 -0.33659988741E+03  0.33659988741E+03  0.00000000000E+00 0.  1.
         -6    2    1    2    0  503  0.88911654764E+02 -0.12961551361E+02 -0.68943595463E+02  0.20653995034E+03  0.17272014233E+03 0.  0.
        -24    2    3    3    0    0  0.10674259318E+03  0.42748299746E+00  0.12919284066E+01  0.13270007345E+03  0.78825607992E+02 0.  0.
          6    2    1    2  501    0 -0.88911654764E+02  0.12961551361E+02 -0.15151616328E+03  0.24620006574E+03  0.17200011764E+03 0.  0.
         24    2    5    5    0    0 -0.12119265434E+03  0.48289264013E+01 -0.15467759528E+03  0.21243192728E+03  0.80567904571E+02 0.  0.
          5    1    5    5  501    0  0.32280999580E+02  0.81326249597E+01  0.31614320040E+01  0.33768138459E+02  0.47000000000E+01 0. -1.
        -11    1    6    6    0    0 -0.45305514819E+02  0.29607859619E+02 -0.10576584378E+03  0.11880921149E+03  0.00000000000E+00 0.  1.
         12    1    6    6    0    0 -0.75887139525E+02 -0.24778933218E+02 -0.48911751508E+02  0.93622715792E+02  0.00000000000E+00 0. -1.
         -5    1    3    3    0  503 -0.17830938414E+02 -0.13389034358E+02 -0.70235523869E+02  0.73839876889E+02  0.47000000000E+01 0.  1.
         13    1    4    4    0    0  0.74761509629E+02  0.26025468439E+02 -0.26178237047E+02  0.83378105186E+02  0.00000000000E+00 0. -1.
        -14    1    4    4    0    0  0.31981083549E+02 -0.25597985442E+02  0.27470165454E+02  0.49321968266E+02  0.00000000000E+00 0.  1.
</event>
<event>
12    1  0.1066489E+000  0.2479780E+03  0.7818608E-02  0.1114860E+00
         21   -1    0    0  503  502  0.00000000000E+00  0.00000000000E+00  0.11284505615E+03  0.11284505615E+03  0.00000000000E+00 0. -1.
         21   -1    0    0  501  503 -0.00000000000E+00 -0.00000000000E+00 -0.54456508335E+03  0.54456508335E+03  0.00000000000E+00 0.  1.
          6    2    1    2  501    0  0.62049330086E+02  0.16518529442E+03 -0.18942549625E+03  0.31071182642E+03  0.17182409492E+03 0.  0.
         24    2    3    3    0    0  0.23145670362E+02  0.15573845578E+03 -0.19938129129E+03  0.26919140548E+03  0.88999577553E+02 0.  0.
         -6    2    1    2    0  502 -0.62049330086E+02 -0.16518529442E+03 -0.24229453095E+03  0.34669831307E+03  0.17423197095E+03 0.  0.
        -24    2    5    5    0    0  0.56145971898E+00 -0.15988740026E+02 -0.64249228963E+02  0.10607008862E+03  0.82867033449E+02 0.  0.
          5    1    3    3  501    0  0.38903659724E+02  0.94468386346E+01  0.99557950395E+01  0.41520420939E+02  0.47000000000E+01 0. -1.
        -11    1    4    4    0    0  0.56627202300E+02  0.79824903031E+02 -0.11001346025E+03  0.14724678815E+03  0.00000000000E+00 0.  1.
         12    1    4    4    0    0 -0.33481531938E+02  0.75913552750E+02 -0.89367831039E+02  0.12194461733E+03  0.00000000000E+00 0. -1.
         -5    1    5    5    0  502 -0.62610789805E+02 -0.14919655439E+03 -0.17804530199E+03  0.24062822445E+03  0.47000000000E+01 0.  1.
         13    1    6    6    0    0 -0.36947449271E+02 -0.12227210511E+02 -0.54788231483E+02  0.67203935848E+02  0.00000000000E+00 0. -1.
        -14    1    6    6    0    0  0.37508908990E+02 -0.37615295157E+01 -0.94609974806E+01  0.38866152771E+02  0.00000000000E+00 0.  1.
</event>
<event>
12    1  0.1066489E+000  0.3013318E+03  0.7818608E-02  0.1084600E+00
         21   -1    0    0  503  502  0.00000000000E+00  0.00000000000E+00  0.22363745435E+03  0.22363745435E+03  0.00000000000E+00 0. -1.
         21   -1    0    0  501  503 -0.00000000000E+00 -0.00000000000E+00 -0.42438300614E+03  0.42438300614E+03  0.00000000000E+00 0. -1.
          6    2    1    2  501    0  0.51345156486E+01 -0.24686933479E+03 -0.32470827535E+02  0.30288681756E+03  0.17238108335E+03 0.  0.
         24    2    3    3    0    0  0.13505416028E+02 -0.24661980231E+03  0.96523718208E+01  0.25968278807E+03  0.79613183497E+02 0.  0.
         -6    2    1    2    0  502 -0.51345156486E+01  0.24686933479E+03 -0.16827472426E+03  0.34513364294E+03  0.17271368489E+03 0.  0.
        -24    2    5    5    0    0 -0.13660712488E+02  0.61339836390E+02 -0.85360785504E+01  0.10011850923E+03  0.77470385697E+02 0.  0.
          5    1    3    3  501    0 -0.83709003796E+01 -0.24953248599E+00 -0.42123199356E+02  0.43204029484E+02  0.47000000000E+01 0. -1.
        -11    1    4    4    0    0 -0.30109169196E+02 -0.53695892716E+02  0.60435991786E+01  0.61857384807E+02  0.00000000000E+00 0.  1.
         12    1    4    4    0    0  0.43614585224E+02 -0.19292390959E+03  0.36087726422E+01  0.19782540326E+03  0.00000000000E+00 0. -1.
         -5    1    5    5    0  502  0.85261968394E+01  0.18552949840E+03 -0.15973864571E+03  0.24501513370E+03  0.47000000000E+01 0.  1.
         11    1    6    6    0    0 -0.30876875512E+02 -0.48349569061E+01 -0.49900914774E+01  0.31649000973E+02  0.00000000000E+00 0. -1.
        -12    1    6    6    0    0  0.17216163024E+02  0.66174793296E+02 -0.35459870730E+01  0.68469508260E+02  0.00000000000E+00 0.  1.
</event>
<event>
12    1  0.1066489E+000  0.1979809E+03  0.7818608E-02  0.1151880E+00
         21   -1    0    0  501  502  0.00000000000E+00  0.00000000000E+00  0.66076541571E+02  0.66076541571E+02  0.00000000000E+00 0.  1.
         21   -1    0    0  502  503 -0.00000000000E+00 -0.00000000000E+00 -0.80952656583E+03  0.80952656583E+03  0.00000000000E+00 0.  1.
         -6    2    1    2    0  503 -0.85011696649E+02  0.50388840721E+02 -0.14368601062E+03  0.24462647395E+03  0.17155296055E+03 0.  0.
        -24    2    3    3    0    0 -0.10813126121E+02  0.77359112636E+02 -0.51367642877E+02  0.12306334443E+03  0.80028719868E+02 0.  0.
          6    2    1    2  501    0  0.85011696649E+02 -0.50388840721E+02 -0.59976401363E+03  0.63097663345E+03  0.16925902065E+03 0.  0.
         24    2    5    5    0    0  0.11668898112E+03 -0.75047640859E+02 -0.45269790171E+03  0.47845765741E+03  0.68832209088E+02 0.  0.
          5    1    5    5  501    0 -0.31677284468E+02  0.24658800138E+02 -0.14706611192E+03  0.15251897604E+03  0.47000000000E+01 0. -1.
        -11    1    6    6    0    0  0.53304366793E+01  0.12134438559E+02 -0.32521682870E+02  0.35118627692E+02  0.00000000000E+00 0.  1.
         12    1    6    6    0    0  0.11135854444E+03 -0.87182079418E+02 -0.42017621884E+03  0.44333902972E+03  0.00000000000E+00 0. -1.
         -5    1    3    3    0  503 -0.74198570527E+02 -0.26970271915E+02 -0.92318367748E+02  0.12156312952E+03  0.47000000000E+01 0.  1.
         13    1    4    4    0    0  0.24067956587E+02  0.12757520630E+02 -0.40555337413E+02  0.48854439507E+02  0.00000000000E+00 0. -1.
        -14    1    4    4    0    0 -0.34881082709E+02  0.64601592006E+02 -0.10812305464E+02  0.74208904925E+02  0.00000000000E+00 0.  1.
</event>
<event>
12    1  0.1066489E+000  0.4476629E+03  0.7818608E-02  0.1028426E+00
         21   -1    0    0  501  502  0.00000000000E+00  0.00000000000E+00  0.29269717584E+04  0.29269717584E+04  0.00000000000E+00 0. -1.
         21   -1    0    0  502  503 -0.00000000000E+00 -0.00000000000E+00 -0.13656709092E+03  0.13656709092E+03  0.00000000000E+00 0.  1.
         -6    2    1    2    0  503 -0.10483077166E+03 -0.39966571418E+03  0.24768978553E+04  0.25170147457E+04  0.17209901378E+03 0.  0.
        -24    2    3    3    0    0 -0.19001572227E+01 -0.10989711702E+03  0.60155604374E+03  0.61662279886E+03  0.79202369872E+02 0.  0.
          6    2    1    2  501    0  0.10483077166E+03  0.39966571418E+03  0.31350681222E+03  0.54652410369E+03  0.17227855591E+03 0.  0.
         24    2    5    5    0    0  0.47876648652E+02  0.79582403962E+02  0.87615848079E+02  0.15061260438E+03  0.79887966903E+02 0.  0.
          5    1    5    5  501    0  0.56954123008E+02  0.32008331021E+03  0.22589096414E+03  0.39591149931E+03  0.47000000000E+01 0. -1.
        -11    1    6    6    0    0 -0.11708372409E+02  0.42868573524E+02  0.89706381452E+01  0.45335118056E+02  0.00000000000E+00 0.  1.
         12    1    6    6    0    0  0.59585021061E+02  0.36713830438E+02  0.78645209934E+02  0.10527748632E+03  0.00000000000E+00 0. -1.
         -5    1    3    3    0  503 -0.10293061444E+03 -0.28976859715E+03  0.18753418116E+04  0.19003919468E+04  0.47000000000E+01 0.  1.
         13    1    4    4    0    0 -0.73094380087E+01 -0.33665406438E+02  0.39297099326E+03  0.39447812235E+03  0.00000000000E+00 0. -1.
        -14    1    4    4    0    0  0.54092807859E+01 -0.76231710585E+02  0.20858505048E+03  0.22214467651E+03  0.00000000000E+00 0.  1.
</event>
<event>
12    1  0.1066489E+000  0.2030152E+03  0.7818608E-02  0.1147282E+00
         21   -1    0    0  501  502  0.00000000000E+00  0.00000000000E+00  0.38174619333E+03  0.38174619333E+03  0.00000000000E+00 0.  1.
         21   -1    0    0  502  503 -0.00000000000E+00 -0.00000000000E+00 -0.45616308908E+03  0.45616308908E+03  0.00000000000E+00 0.  1.
         -6    2    1    2    0  503  0.27715112768E+02  0.10439439399E+03  0.32890150515E+03  0.38651179027E+03  0.17189778056E+03 0.  0.
        -24    2    3    3    0    0 -0.70980978991E+01  0.12670186168E+03  0.18802217356E+03  0.23961502781E+03  0.77196366880E+02 0.  0.
          6    2    1    2  501    0 -0.27715112768E+02 -0.10439439399E+03 -0.40331840090E+03  0.45139749214E+03  0.17154488169E+03 0.  0.
         24    2    5    5    0    0  0.25195191498E+02 -0.10740223392E+03 -0.35442816052E+03  0.37914174495E+03  0.77195234714E+02 0.  0.
          5    1    5    5  501    0 -0.52910304266E+02  0.30078399355E+01 -0.48890240372E+02  0.72255747192E+02  0.47000000000E+01 0. -1.
        -13    1    6    6    0    0  0.49051992276E+02 -0.40608857137E+02 -0.17218873523E+03  0.18358686708E+03  0.00000000000E+00 0.  1.
         14    1    6    6    0    0 -0.23856800778E+02 -0.66793376786E+02 -0.18223942530E+03  0.19555487787E+03  0.00000000000E+00 0. -1.
         -5    1    3    3    0  503  0.34813210667E+02 -0.22307467691E+02  0.14087933159E+03  0.14689676246E+03  0.47000000000E+01 0.  1.
         11    1    4    4    0    0  0.30314542298E+02  0.94265275396E+02  0.12562739190E+03  0.15995985501E+03  0.00000000000E+00 0. -1.
        -12    1    4    4    0    0 -0.37412640197E+02  0.32436586282E+02  0.62394781659E+02  0.79655172804E+02  0.00000000000E+00 0.  1.
</event>
<event>
12    1  0.1066489E+000  0.2759534E+03  0.7818608E-02  0.1099199E+00
         21   -1    0    0  501  502  0.00000000000E+00  0.00000000000E+00  0.12794444373E+04  0.12794444373E+04  0.00000000000E+00 0.  1.
         21   -1    0    0  502  503 -0.00000000000E+00 -0.00000000000E+00 -0.84280593302E+02  0.84280593302E+02  0.00000000000E+00 0.  1.
         -6    2    1    2    0  503 -0.17221437432E+03  0.10897983661E+03  0.20707138723E+03  0.33782202204E+03  0.17236810510E+03 0.  0.
        -24    2    3    3    0    0 -0.19618183026E+03  0.11557983194E+03  0.19109355947E+03  0.30789912340E+03  0.80244087946E+02 0.  0.
          6    2    1    2  501    0  0.17221437432E+03 -0.10897983661E+03  0.98809245681E+03  0.10259030086E+04  0.18605344488E+03 0.  0.
         24    2    5    5    0    0  0.12086626294E+03 -0.53288598899E+02  0.87886480201E+03  0.89289581679E+03  0.86088739994E+02 0.  0.
          5    1    5    5  501    0  0.51348111381E+02 -0.55691237708E+02  0.10922765481E+03  0.13300719181E+03  0.47000000000E+01 0. -1.
        -13    1    6    6    0    0  0.12385744233E+02 -0.20613369456E+02  0.40352342483E+03  0.40423937468E+03  0.00000000000E+00 0.  1.
         14    1    6    6    0    0  0.10848051870E+03 -0.32675229443E+02  0.47534137718E+03  0.48865644211E+03  0.00000000000E+00 0. -1.
         -5    1    3    3    0  503  0.23967455940E+02 -0.65999953297E+01  0.15977827762E+02  0.29922898633E+02  0.47000000000E+01 0.  1.
         13    1    4    4    0    0 -0.13832784666E+03  0.11982517013E+03  0.13732262690E+03  0.22880159182E+03  0.00000000000E+00 0. -1.
        -14    1    4    4    0    0 -0.57853983596E+02 -0.42453381958E+01  0.53770932561E+02  0.79097531585E+02  0.00000000000E+00 0.  1.
</event>
<event>
12    1  0.1066489E+000  0.1817194E+03  0.7818608E-02  0.1166758E+00
         21   -1    0    0  503  502  0.00000000000E+00  0.00000000000E+00  0.65749352788E+03  0.65749352788E+03  0.00000000000E+00 0. -1.
         21   -1    0    0  501  503 -0.00000000000E+00 -0.00000000000E+00 -0.69730192738E+02  0.69730192738E+02  0.00000000000E+00 0. -1.
          6    2    1    2  501    0  0.52388637033E+02 -0.10745873092E+02  0.49105800654E+03  0.52360282588E+03  0.17367184689E+03 0.  0.
         24    2    3    3    0    0  0.84008989046E+02 -0.41976267668E+02  0.42973002654E+03  0.44771873441E+03  0.83454491476E+02 0.  0.
         -6    2    1    2    0  502 -0.52388637033E+02  0.10745873092E+02  0.96705328597E+02  0.20362089473E+03  0.17102486695E+03 0.  0.
        -24    2    5    5    0    0  0.97458029945E+01  0.34001891813E+02  0.11892513032E+02  0.95839473662E+02  0.88276064268E+02 0.  0.
          5    1    3    3  501    0 -0.31620352013E+02  0.31230394576E+02  0.61327980006E+02  0.75884091471E+02  0.47000000000E+01 0. -1.
        -13    1    4    4    0    0  0.23817465579E+02  0.21837048482E+02  0.65011363585E+02  0.72598937652E+02  0.00000000000E+00 0.  1.
         14    1    4    4    0    0  0.60191523468E+02 -0.63813316150E+02  0.36471866295E+03  0.37511979676E+03  0.00000000000E+00 0. -1.
         -5    1    5    5    0  502 -0.62134440028E+02 -0.23256018721E+02  0.84812815565E+02  0.10778142107E+03  0.47000000000E+01 0.  1.
         13    1    6    6    0    0  0.96256183665E+01 -0.25481919827E+02  0.22606664862E+02  0.35398334187E+02  0.00000000000E+00 0. -1.
        -14    1    6    6    0    0  0.12018462800E+00  0.59483811640E+02 -0.10714151830E+02  0.60441139475E+02  0.00000000000E+00 0.  1.
</event>
<event>
12    1  0.1066489E+000  0.4538166E+03  0.7818608E-02  0.1026650E+00
         21   -1    0    0  501  502  0.00000000000E+00  0.00000000000E+00  0.29994221678E+03  0.29994221678E+03  0.00000000000E+00 0.  1.
         21   -1    0    0  502  503 -0.00000000000E+00 -0.00000000000E+00 -0.77623076801E+03  0.77623076801E+03  0.00000000000E+00 0.  1.
         -6    2    1    2    0  503 -0.36621961574E+03  0.20532845003E+03 -0.54274611330E+02  0.45705060496E+03  0.17225836037E+03 0.  0.
        -24    2    3    3    0    0 -0.25761093968E+03  0.66924363410E+02 -0.25281323271E+02  0.27868514737E+03  0.78638409194E+02 0.  0.
          6    2    1    2  501    0  0.36621961574E+03 -0.20532845003E+03 -0.42201393990E+03  0.61912237982E+03  0.17011812477E+03 0.  0.
         24    2    5    5    0    0  0.33136284939E+03 -0.21466429800E+03 -0.41984646671E+03  0.58266774831E+03  0.85723687091E+02 0.  0.
          5    1    5    5  501    0  0.34856766357E+02  0.93358479688E+01 -0.21674731918E+01  0.36454631505E+02  0.47000000000E+01 0. -1.
        -13    1    6    6    0    0 -0.40996662133E+01 -0.79899380900E+01 -0.16637350261E+02  0.18906289891E+02  0.00000000000E+00 0.  1.
         14    1    6    6    0    0  0.33546251560E+03 -0.20667435991E+03 -0.40320911645E+03  0.56376145842E+03  0.00000000000E+00 0. -1.
         -5    1    3    3    0  503 -0.10860867607E+03  0.13840408662E+03 -0.28993288059E+02  0.17836545759E+03  0.47000000000E+01 0.  1.
         11    1    4    4    0    0 -0.13397719193E+03  0.67934063661E+02 -0.36353208840E+02  0.15455251780E+03  0.00000000000E+00 0. -1.
        -12    1    4    4    0    0 -0.12363374774E+03 -0.10097002514E+01  0.11071885568E+02  0.12413262958E+03  0.00000000000E+00 0.  1.
</event>
<event>
12    1  0.1066489E+000  0.2257314E+03  0.7818608E-02  0.1130119E+00
         21   -1    0    0  503  502  0.00000000000E+00  0.00000000000E+00  0.24462304780E+03  0.24462304780E+03  0.00000000000E+00 0. -1.
         21   -1    0    0  501  503 -0.00000000000E+00 -0.00000000000E+00 -0.27474534671E+03  0.27474534671E+03  0.00000000000E+00 0. -1.
          6    2    1    2  501    0 -0.12736565180E+03  0.62842626437E+02  0.11482617346E+03  0.25110598212E+03  0.17233095830E+03 0.  0.
         24    2    3    3    0    0 -0.15862294491E+03  0.63913053282E+02  0.11276904989E+03  0.21941235590E+03  0.78605383243E+02 0.  0.
         -6    2    1    2    0  502  0.12736565180E+03 -0.62842626437E+02 -0.14494847236E+03  0.26826241239E+03  0.17545215104E+03 0.  0.
        -24    2    5    5    0    0  0.32060707270E+02  0.57737712632E+01  0.29079814828E+01  0.79384506244E+02  0.72334072816E+02 0.  0.
          5    1    3    3  501    0  0.31257293107E+02 -0.10704268449E+01  0.20571235674E+01  0.31693626226E+02  0.47000000000E+01 0. -1.
        -13    1    4    4    0    0 -0.10016832760E+03  0.54052707230E+02  0.11263568906E+03  0.16013178155E+03  0.00000000000E+00 0.  1.
         14    1    4    4    0    0 -0.58454617312E+02  0.98603460521E+01  0.13336082819E+00  0.59280574344E+02  0.00000000000E+00 0. -1.
         -5    1    5    5    0  502  0.95304944534E+02 -0.68616397700E+02 -0.14785645384E+03  0.18887790614E+03  0.47000000000E+01 0.  1.
         11    1    6    6    0    0  0.53666067524E+02  0.12934789284E+02  0.87340085976E+01  0.55889520337E+02  0.00000000000E+00 0. -1.
        -12    1    6    6    0    0 -0.21605360254E+02 -0.71610180211E+01 -0.58260271147E+01  0.23494985907E+02  0.00000000000E+00 0.  1.
</event>
<event>
12    1  0.1066489E+000  0.1866635E+03  0.7818608E-02  0.1162719E+00
         21   -1    0    0  503  502  0.00000000000E+00  0.00000000000E+00  0.79434936496E+02  0.79434936496E+02  0.00000000000E+00 0. -1.
         21   -1    0    0  501  503 -0.00000000000E+00 -0.00000000000E+00 -0.58586474333E+03  0.58586474333E+03  0.00000000000E+00 0. -1.
          6    2    1    2  501    0 -0.41432980205E+02  0.52157983883E+02 -0.42926388194E+03  0.46809264729E+03  0.17437344688E+03 0.  0.
         24    2    3    3    0    0 -0.34519412021E+02 -0.25166962484E+02 -0.12463234456E+03  0.15368938980E+03  0.79134325161E+02 0.  0.
         -6    2    1    2    0  502  0.41432980205E+02 -0.52157983883E+02 -0.77165924895E+02  0.19720703254E+03  0.16881613248E+03 0.  0.
        -24    2    5    5    0    0  0.76377528925E+02 -0.62671209490E+02 -0.20086425415E+02  0.12929673392E+03  0.80950438490E+02 0.  0.
          5    1    3    3  501    0 -0.69135681840E+01  0.77324946367E+02 -0.30463153738E+03  0.31440325749E+03  0.47000000000E+01 0. -1.
        -11    1    4    4    0    0  0.11623960138E+02  0.21273065734E+02 -0.29039592073E+02  0.37828001306E+02  0.00000000000E+00 0.  1.
         12    1    4    4    0    0 -0.46143372159E+02 -0.46440028218E+02 -0.95592752488E+02  0.11586138849E+03  0.00000000000E+00 0. -1.
         -5    1    5    5    0  502 -0.34944548720E+02  0.10513225607E+02 -0.57079499480E+02  0.67910298621E+02  0.47000000000E+01 0.  1.
         13    1    6    6    0    0  0.54686031837E+02 -0.59045130879E+02 -0.48041531834E+02  0.93727681821E+02  0.00000000000E+00 0. -1.
        -14    1    6    6    0    0  0.21691497088E+02 -0.36260786109E+01  0.27955106419E+02  0.35569052095E+02  0.00000000000E+00 0.  1.
</event>
<event>
12    1  0.1066489E+000  0.3646679E+03  0.7818608E-02  0.1056783E+00
         21   -1    0    0  501  502  0.00000000000E+00  0.00000000000E+00  0.50269602458E+03  0.50269602458E+03  0.00000000000E+00 0.  1.
         21   -1    0    0  502  503 -0.00000000000E+00 -0.00000000000E+00 -0.26706515779E+03  0.26706515779E+03  0.00000000000E+00 0.  1.
         -6    2    1    2    0  503 -0.30596480018E+03 -0.97985504754E+02  0.78603000148E+02  0.37272158567E+03  0.17183518470E+03 0.  0.
        -24    2    3    3    0    0 -0.10912627816E+03 -0.47506354893E+00  0.70720054233E+02  0.15286272019E+03  0.80354930662E+02 0.  0.
          6    2    1    2  501    0  0.30596480018E+03  0.97985504754E+02  0.15702786664E+03  0.39703959670E+03  0.17253136630E+03 0.  0.
         24    2    5    5    0    0  0.25092342069E+03  0.48016860886E+02  0.58774748337E+02  0.27374245934E+03  0.78818024731E+02 0.  0.
          5    1    5    5  501    0  0.55041379488E+02  0.49968643868E+02  0.98253118299E+02  0.12329713736E+03  0.47000000000E+01 0. -1.
        -11    1    6    6    0    0  0.11983753566E+03 -0.10579800788E+02  0.49704179200E+01  0.12040627970E+03  0.00000000000E+00 0.  1.
         12    1    6    6    0    0  0.13108588503E+03  0.58596661674E+02  0.53804330417E+02  0.15333617964E+03  0.00000000000E+00 0. -1.
         -5    1    3    3    0  503 -0.19683852202E+03 -0.97510441205E+02  0.78829459146E+01  0.21985886548E+03  0.47000000000E+01 0.  1.
         11    1    4    4    0    0 -0.45006759625E+02  0.31779710881E+01 -0.13364844331E+02  0.47056635835E+02  0.00000000000E+00 0. -1.
        -12    1    4    4    0    0 -0.64119518534E+02 -0.36530346370E+01  0.84084898564E+02  0.10580608435E+03  0.00000000000E+00 0.  1.
</event>
<event>
12    1  0.1066489E+000  0.1822855E+03  0.7818608E-02  0.1165864E+00
         21   -1    0    0  503  502  0.00000000000E+00  0.00000000000E+00  0.13507727716E+04  0.13507727716E+04  0.00000000000E+00 0.  1.
         21   -1    0    0  501  503 -0.00000000000E+00 -0.00000000000E+00 -0.40718670007E+02  0.40718670007E+02  0.00000000000E+00 0.  1.
          6    2    1    2  501    0 -0.41912587960E+02  0.38292400608E+02  0.10935700504E+04  0.11084837485E+04  0.17209820639E+03 0.  0.
         24    2    3    3    0    0 -0.66067509654E+02  0.39330745268E+02  0.41762803527E+03  0.43209315411E+03  0.79871738607E+02 0.  0.
         -6    2    1    2    0  502  0.41912587960E+02 -0.38292400608E+02  0.21648405118E+03  0.28300769306E+03  0.17321962056E+03 0.  0.
        -24    2    5    5    0    0  0.33827418872E+02 -0.90473482116E+02  0.12163658970E+03  0.17435058941E+03  0.79201785579E+02 0.  0.
          5    1    3    3  501    0  0.24154921694E+02 -0.10383446600E+01  0.67594201513E+03  0.67639059442E+03  0.47000000000E+01 0. -1.
        -13    1    4    4    0    0  0.15284963628E+02 -0.18493159141E+01  0.11503045632E+03  0.11605626206E+03  0.00000000000E+00 0.  1.
         14    1    4    4    0    0 -0.81352473282E+02  0.41180061182E+02  0.30259757896E+03  0.31603689205E+03  0.00000000000E+00 0. -1.
         -5    1    5    5    0  502  0.80851690880E+01  0.52181081508E+02  0.94847461477E+02  0.10865710366E+03  0.47000000000E+01 0.  1.
         11    1    6    6    0    0  0.42623011714E+02 -0.86644499410E+02  0.63824036771E+02  0.11574756186E+03  0.00000000000E+00 0. -1.
        -12    1    6    6    0    0 -0.87955928429E+01 -0.38289827058E+01  0.57812552930E+02  0.58603027553E+02  0.00000000000E+00 0.  1.
</event>
<event>
12    1  0.1066489E+000  0.2771268E+03  0.7818608E-02  0.1097391E+00
         21   -1    0    0  503  502  0.00000000000E+00  0.00000000000E+00  0.13316358149E+03  0.13316358149E+03  0.00000000000E+00 0. -1.
         21   -1    0    0  501  503 -0.00000000000E+00 -0.00000000000E+00 -0.10618523230E+04  0.10618523230E+04  0.00000000000E+00 0. -1.
          6    2    1    2  501    0  0.15138848232E+03  0.15480326049E+03 -0.59316645834E+02  0.28254284513E+03  0.17155020497E+03 0.  0.
         24    2    3    3    0    0  0.18158981199E+03  0.13342611926E+03 -0.53280080783E+02  0.24475881943E+03  0.79314081738E+02 0.  0.
         -6    2    1    2    0  502 -0.15138848232E+03 -0.15480326049E+03 -0.86937209565E+03  0.91247305933E+03  0.17296450871E+03 0.  0.
        -24    2    5    5    0    0 -0.88819654458E+02 -0.14414550694E+03 -0.43506819591E+03  0.47353067899E+03  0.79247149247E+02 0.  0.
          5    1    3    3  501    0 -0.30201329665E+02  0.21377141233E+02 -0.60365650509E+01  0.37784025705E+02  0.47000000000E+01 0. -1.
        -11    1    4    4    0    0  0.11279269809E+03  0.12405995008E+03 -0.23890054381E+02  0.16936291995E+03  0.00000000000E+00 0.  1.
         12    1    4    4    0    0  0.68797113902E+02  0.93661691762E+01 -0.29390026402E+02  0.75395899478E+02  0.00000000000E+00 0. -1.
         -5    1    5    5    0  502 -0.62568827865E+02 -0.10657753550E+02 -0.43430389974E+03  0.43894238034E+03  0.47000000000E+01 0.  1.
         11    1    6    6    0    0 -0.64048328664E+02 -0.39991778293E+02 -0.13149444832E+03  0.15163218878E+03  0.00000000000E+00 0. -1.
        -12    1    6    6    0    0 -0.24771325794E+02 -0.10415372865E+03 -0.30357374760E+03  0.32189849022E+03  0.00000000000E+00 0.  1.
</event>
<event>
12    1  0.1066489E+000  0.2066049E+03  0.7818608E-02  0.1145919E+00
         21   -1    0    0  501  502  0.00000000000E+00  0.00000000000E+00  0.11751091896E+04  0.11751091896E+04  0.00000000000E+00 0. -1.
         21   -1    0    0  502  503 -0.00000000000E+00 -0.00000000000E+00 -0.38123594110E+02  0.38123594110E+02  0.00000000000E+00 0. -1.
         -6    2    1    2    0  503  0.62034033862E+02 -0.81324504540E+02  0.38318930972E+03  0.43163542764E+03  0.17033261258E+03 0.  0.
        -24    2    3    3    0    0  0.82264114896E+02 -0.38740749507E+02  0.14318046487E+03  0.18699494043E+03  0.78728850838E+02 0.  0.
          6    2    1    2  501    0 -0.62034033862E+02  0.81324504540E+02  0.75379628572E+03  0.78159735603E+03  0.17950958245E+03 0.  0.
         24    2    5    5    0    0  0.31914806251E+02  0.29857819115E+02  0.24138003162E+03  0.25808258858E+03  0.80201363110E+02 0.  0.
          5    1    5    5  501    0 -0.93948840113E+02  0.51466685425E+02  0.51241625410E+03  0.52351476745E+03  0.47000000000E+01 0. -1.
        -13    1    6    6    0    0  0.17390708909E+02  0.52326451905E+02  0.20862918947E+03  0.21579303284E+03  0.00000000000E+00 0.  1.
         14    1    6    6    0    0  0.14524097342E+02 -0.22468632790E+02  0.32750842151E+02  0.42289555740E+02  0.00000000000E+00 0. -1.
         -5    1    3    3    0  503 -0.20230081034E+02 -0.42583755034E+02  0.24000884486E+03  0.24464048721E+03  0.47000000000E+01 0.  1.
         13    1    4    4    0    0 -0.32375142554E+01  0.46726523108E+01  0.59363542472E+02  0.59635101686E+02  0.00000000000E+00 0. -1.
        -14    1    4    4    0    0  0.85501629151E+02 -0.43413401818E+02  0.83816922396E+02  0.12735983874E+03  0.00000000000E+00 0.  1.
</event>
<event>
12    1  0.1066489E+000  0.2146138E+03  0.7818608E-02  0.1138146E+00
         21   -1    0    0  501  502  0.00000000000E+00  0.00000000000E+00  0.10891302553E+03  0.10891302553E+03  0.00000000000E+00 0.  1.
         21   -1    0    0  502  503 -0.00000000000E+00 -0.00000000000E+00 -0.45293410797E+03  0.45293410797E+03  0.00000000000E+00 0.  1.
         -6    2    1    2    0  503 -0.11229568646E+03 -0.59890038770E+02 -0.97808990875E+02  0.23585099543E+03  0.17280612086E+03 0.  0.
        -24    2    3    3    0    0 -0.10859505716E+03 -0.21771117068E+02 -0.12836328195E+03  0.18663309673E+03  0.78025077140E+02 0.  0.
          6    2    1    2  501    0  0.11229568646E+03  0.59890038770E+02 -0.24621209157E+03  0.32599613807E+03  0.17162735814E+03 0.  0.
         24    2    5    5    0    0  0.77269169500E+02 -0.22422951070E+02 -0.18687291280E+03  0.21854608770E+03  0.79797203101E+02 0.  0.
          5    1    5    5  501    0  0.35026516960E+02  0.82312989840E+02 -0.59339178774E+02  0.10745005037E+03  0.47000000000E+01 0. -1.
        -11    1    6    6    0    0  0.77517979850E+02  0.12252791651E+02 -0.12413810750E+03  0.14686537317E+03  0.00000000000E+00 0.  1.
         12    1    6    6    0    0 -0.24881035031E+00 -0.34675742721E+02 -0.62734805304E+02  0.71680714536E+02  0.00000000000E+00 0. -1.
         -5    1    3    3    0  503 -0.37006293041E+01 -0.38118921702E+02  0.30554291079E+02  0.49217898699E+02  0.47000000000E+01 0.  1.
         13    1    4    4    0    0 -0.26572466220E+02 -0.86044067186E+01 -0.91646207281E+02  0.95807928090E+02  0.00000000000E+00 0. -1.
        -14    1    4    4    0    0 -0.82022590936E+02 -0.13166710349E+02 -0.36717074673E+02  0.90825168636E+02  0.00000000000E+00 0.  1.
</event>
<event>
12    1  0.1066489E+000  0.1865543E+03  0.7818608E-02  0.1163768E+00
         21   -1    0    0  501  502  0.00000000000E+00  0.00000000000E+00  0.10727429305E+04  0.10727429305E+04  0.00000000000E+00 0. -1.
         21   -1    0    0  502  503 -0.00000000000E+00 -0.00000000000E+00 -0.79713761011E+02  0.79713761011E+02  0.00000000000E+00 0. -1.
         -6    2    1    2    0  503 -0.43132398484E+02  0.21989332490E+01  0.50359098019E+02  0.19323186499E+03  0.18148629641E+03 0.  0.
        -24    2    3    3    0    0  0.26072987322E+02  0.52705099462E+02  0.40722964203E+02  0.10688834569E+03  0.79430034954E+02 0.  0.
          6    2    1    2  501    0  0.43132398484E+02 -0.21989332490E+01  0.94267007144E+03  0.95922482650E+03  0.17210509891E+03 0.  0.
         24    2    5    5    0    0  0.83812803790E+02 -0.16961248532E+02  0.33345292127E+03  0.34845445444E+03  0.54012832545E+02 0.  0.
          5    1    5    5  501    0 -0.40680405307E+02  0.14762315283E+02  0.60921715017E+03  0.61077037206E+03  0.47000000000E+01 0. -1.
        -13    1    6    6    0    0  0.76351294339E+02 -0.31556232604E+02  0.30050071968E+03  0.31165044279E+03  0.00000000000E+00 0.  1.
         14    1    6    6    0    0  0.74615094513E+01  0.14594984072E+02  0.32952201596E+02  0.36804011648E+02  0.00000000000E+00 0. -1.
         -5    1    3    3    0  503 -0.69205385806E+02 -0.50506166213E+02  0.96361338155E+01  0.86343519299E+02  0.47000000000E+01 0.  1.
         13    1    4    4    0    0  0.27080886389E+02 -0.13749094557E+02  0.31321825356E+01  0.30532320190E+02  0.00000000000E+00 0. -1.
        -14    1    4    4    0    0 -0.10078990676E+01  0.66454194018E+02  0.37590781668E+02  0.76356025496E+02  0.00000000000E+00 0.  1.
</event>
<event>
12    1  0.1066489E+000  0.4056990E+03  0.7818608E-02  0.1042114E+00
         21   -1    0    0  501  502  0.00000000000E+00  0.00000000000E+00  0.38954852548E+03  0.38954852548E+03  0.00000000000E+00 0.  1.
         21   -1    0    0  502  503 -0.00000000000E+00 -0.00000000000E+00 -0.43419819595E+03  0.43419819595E+03  0.00000000000E+00 0. -1.
         -6    2    1    2    0  503  0.69270741699E+02 -0.35860018666E+03 -0.99495612016E+02  0.41772122924E+03  0.17663272351E+03 0.  0.
        -24    2    3    3    0    0  0.68233215673E+02 -0.37268310183E+03 -0.87005868405E+02  0.39829216196E+03  0.86707318248E+02 0.  0.
          6    2    1    2  501    0 -0.69270741699E+02  0.35860018666E+03  0.54845941550E+02  0.40602549219E+03  0.16868934013E+03 0.  0.
         24    2    5    5    0    0 -0.15475457017E+02  0.76807344321E+02  0.50151320435E+02  0.11906683991E+03  0.74316212998E+02 0.  0.
          5    1    5    5  501    0 -0.53795284682E+02  0.28179284234E+03  0.46946211154E+01  0.28695865228E+03  0.47000000000E+01 0. -1.
        -11    1    6    6    0    0 -0.25281342830E+02  0.28591617594E+02 -0.11805069359E+02  0.39949800431E+02  0.00000000000E+00 0.  1.
         12    1    6    6    0    0  0.98058858131E+01  0.48215726727E+02  0.61956389793E+02  0.79117039483E+02  0.00000000000E+00 0. -1.
         -5    1    3    3    0  503  0.10375260266E+01  0.14082915162E+02 -0.12489743611E+02  0.19429067275E+02  0.47000000000E+01 0.  1.
         13    1    4    4    0    0  0.33408147466E+02 -0.74593535704E+02  0.11242763782E+02  0.82502724945E+02  0.00000000000E+00 0. -1.
        -14    1    4    4    0    0  0.34825068207E+02 -0.29808956612E+03 -0.98248632187E+02  0.31578943702E+03  0.00000000000E+00 0.  1.
</event>
<event>
12    1  0.1066489E+000  0.4068493E+03  0.7818608E-02  0.1041504E+00
         21   -1    0    0  503  502  0.00000000000E+00  0.00000000000E+00  0.78896082183E+03  0.78896082183E+03  0.00000000000E+00 0.  1.
         21   -1    0    0  501  503 -0.00000000000E+00 -0.00000000000E+00 -0.21811970522E+03  0.21811970522E+03  0.00000000000E+00 0.  1.
          6    2    1    2  501    0  0.74082973312E+02 -0.36038245804E+03  0.18430224476E+03  0.44588657169E+03  0.17170822459E+03 0.  0.
         24    2    3    3    0    0  0.39820430906E+02 -0.10230195773E+03  0.10924142804E+03  0.17489638245E+03  0.81263138775E+02 0.  0.
         -6    2    1    2    0  502 -0.74082973312E+02  0.36038245804E+03  0.38653887185E+03  0.56119395535E+03  0.17367369713E+03 0.  0.
        -24    2    5    5    0    0 -0.10513292756E+03  0.18660492555E+03  0.19998223897E+03  0.30431227494E+03  0.82089792802E+02 0.  0.
          5    1    3    3  501    0  0.34262542406E+02 -0.25808050032E+03  0.75060816721E+02  0.27099018924E+03  0.47000000000E+01 0. -1.
        -11    1    4    4    0    0 -0.21319960635E+01 -0.73480661659E+02  0.27267146495E+02  0.78405677875E+02  0.00000000000E+00 0.  1.
         12    1    4    4    0    0  0.41952426969E+02 -0.28821296067E+02  0.81974281544E+02  0.96490704580E+02  0.00000000000E+00 0. -1.
         -5    1    5    5    0  502  0.31049954244E+02  0.17377753250E+03  0.18655663288E+03  0.25688168041E+03  0.47000000000E+01 0.  1.
         11    1    6    6    0    0 -0.19956437918E+02  0.11376217646E+03  0.12049266095E+03  0.16690887799E+03  0.00000000000E+00 0. -1.
        -12    1    6    6    0    0 -0.85176489638E+02  0.72842749088E+02  0.79489578015E+02  0.13740339695E+03  0.00000000000E+00 0.  1.
</event>
<event>
12    1  0.1066489E+000  0.1727355E+03  0.7818608E-02  0.1175178E+00
         21   -1    0    0  501  502  0.00000000000E+00  0.00000000000E+00  0.29878384520E+02  0.29878384520E+02  0.00000000000E+00 0. -1.
         21   -1    0    0  502  503 -0.00000000000E+00 -0.00000000000E+00 -0.10185327232E+04  0.10185327232E+04  0.00000000000E+00 0. -1.
         -6    2    1    2    0  503  0.18063736073E+02 -0.58079289890E+01 -0.41412598183E+03  0.44847746590E+03  0.17108967821E+03 0.  0.
        -24    2    3    3    0    0  0.55427817140E+02  0.29728031247E+02 -0.16342633192E+03  0.19248667800E+03  0.79918436470E+02 0.  0.
          6    2    1    2  501    0 -0.18063736073E+02  0.58079289890E+01 -0.57452835682E+03  0.59993364180E+03  0.17169016036E+03 0.  0.
         24    2    5    5    0    0 -0.15184408895E+02 -0.63621105882E+02 -0.35003352896E+03  0.36488322349E+03  0.79612084520E+02 0.  0.
          5    1    5    5  501    0 -0.28793271781E+01  0.69429034871E+02 -0.22449482786E+03  0.23505041830E+03  0.47000000000E+01 0. -1.
        -13    1    6    6    0    0  0.21315198697E+02 -0.53254863174E+02 -0.27361735710E+03  0.27956551335E+03  0.00000000000E+00 0.  1.
         14    1    6    6    0    0 -0.36499607592E+02 -0.10366242708E+02 -0.76416171863E+02  0.85317710145E+02  0.00000000000E+00 0. -1.
         -5    1    3    3    0  503 -0.37364081067E+02 -0.35535960236E+02 -0.25069964991E+03  0.25599078790E+03  0.47000000000E+01 0.  1.
         13    1    4    4    0    0  0.33165474989E+02  0.14719409781E+02 -0.16154709424E+03  0.16557195841E+03  0.00000000000E+00 0. -1.
        -14    1    4    4    0    0  0.22262342151E+02  0.15008621465E+02 -0.18792376845E+01  0.26914719590E+02  0.00000000000E+00 0.  1.
</event>
<event>
12    1  0.1066489E+000  0.4638941E+03  0.7818608E-02  0.1023777E+00
         21   -1    0    0  501  502  0.00000000000E+00  0.00000000000E+00  0.14389836372E+04  0.14389836372E+04  0.00000000000E+00 0.  1.
         21   -1    0    0  502  503 -0.00000000000E+00 -0.00000000000E+00 -0.17064937249E+03  0.17064937249E+03  0.00000000000E+00 0.  1.
         -6    2    1    2    0  503  0.18337781591E+03  0.38982022166E+03  0.91973322252E+03  0.10293568295E+04  0.16756805547E+03 0.  0.
        -24    2    3    3    0    0  0.14613925951E+03  0.36912734698E+03  0.73659404775E+03  0.84126921032E+03  0.86898858433E+02 0.  0.
          6    2    1    2  501    0 -0.18337781591E+03 -0.38982022166E+03  0.34860104217E+03  0.58027618018E+03  0.17207710512E+03 0.  0.
         24    2    5    5    0    0 -0.83794931939E+02 -0.17126112774E+03  0.24073762736E+03  0.31694856187E+03  0.78420795389E+02 0.  0.
          5    1    5    5  501    0 -0.99582883972E+02 -0.21855909392E+03  0.10786341481E+03  0.26332761832E+03  0.47000000000E+01 0. -1.
        -13    1    6    6    0    0 -0.16484592447E+02 -0.12020240834E+03  0.13279612780E+03  0.17987543556E+03  0.00000000000E+00 0.  1.
         14    1    6    6    0    0 -0.67310339492E+02 -0.51058719406E+02  0.10794149955E+03  0.13707312631E+03  0.00000000000E+00 0. -1.
         -5    1    3    3    0  503  0.37238556406E+02  0.20692874672E+02  0.18313917477E+03  0.18808761915E+03  0.47000000000E+01 0.  1.
         11    1    4    4    0    0  0.11604697990E+03  0.18592152469E+03  0.36166172730E+03  0.42288641487E+03  0.00000000000E+00 0. -1.
        -12    1    4    4    0    0  0.30092279605E+02  0.18320582229E+03  0.37493232045E+03  0.41838279545E+03  0.00000000000E+00 0.  1.
</event>
<event>
12    1  0.1066489E+000  0.1819234E+03  0.7818608E-02  0.1166338E+00
         21   -1    0    0  503  502  0.00000000000E+00  0.00000000000E+00  0.47299682820E+03  0.47299682820E+03  0.00000000000E+00 0.  1.
         21   -1    0    0  501  503 -0.00000000000E+00 -0.00000000000E+00 -0.12679793659E+03  0.12679793659E+03  0.00000000000E+00 0.  1.
          6    2    1    2  501    0 -0.69255241285E+01  0.48331934466E+02 -0.28330380242E+02  0.18411605261E+03  0.17524888476E+03 0.  0.
         24    2    3    3    0    0  0.30322393063E+02  0.91007553842E+02 -0.26431719830E+02  0.12724505178E+03  0.79314847355E+02 0.  0.
         -6    2    1    2    0  502  0.69255241285E+01 -0.48331934466E+02  0.37452927185E+03  0.41567871219E+03  0.17358766522E+03 0.  0.
        -24    2    5    5    0    0 -0.36496516522E+02  0.26961432832E+02  0.19299852748E+03  0.21435790868E+03  0.81498262703E+02 0.  0.
          5    1    3    3  501    0 -0.37247917191E+02 -0.42675619375E+02 -0.18986604120E+01  0.56871000831E+02  0.47000000000E+01 0. -1.
        -11    1    4    4    0    0  0.31693066836E+02  0.42745842570E+02  0.23157685734E+02  0.58033920693E+02  0.00000000000E+00 0.  1.
         12    1    4    4    0    0 -0.13706737728E+01  0.48261711272E+02 -0.49589405564E+02  0.69211131083E+02  0.00000000000E+00 0. -1.
         -5    1    5    5    0  502  0.43422040651E+02 -0.75293367299E+02  0.18153074437E+03  0.20132080351E+03  0.47000000000E+01 0.  1.
         13    1    6    6    0    0 -0.17853512794E+02  0.52421088426E+02  0.15703318907E+03  0.16651168398E+03  0.00000000000E+00 0. -1.
        -14    1    6    6    0    0 -0.18643003729E+02 -0.25459655594E+02  0.35965338406E+02  0.47846224696E+02  0.00000000000E+00 0.  1.
</event>
<event>
12    1  0.1066489E+000  0.1748279E+03  0.7818608E-02  0.1172986E+00
         21   -1    0    0  503  502  0.00000000000E+00  0.00000000000E+00  0.59412165500E+02  0.59412165500E+02  0.00000000000E+00 0. -1.
         21   -1    0    0  501  503 -0.00000000000E+00 -0.00000000000E+00 -0.57030827421E+03  0.57030827421E+03  0.00000000000E+00 0. -1.
          6    2    1    2  501    0  0.43588623008E+00  0.30011923707E+02 -0.35460395499E+03  0.39521663438E+03  0.17190496688E+03 0.  0.
         24    2    3    3    0    0 -0.54004829298E+02  0.57912692730E+02 -0.22140380795E+03  0.24856530097E+03  0.80589460281E+02 0.  0.
         -6    2    1    2    0  502 -0.43588623008E+00 -0.30011923707E+02 -0.15629215373E+03  0.23450380533E+03  0.17223208713E+03 0.  0.
        -24    2    5    5    0    0 -0.15090266700E+02 -0.34891705262E+02 -0.14831102074E+02  0.92124444924E+02  0.82594216012E+02 0.  0.
          5    1    3    3  501    0  0.54440715528E+02 -0.27900769023E+02 -0.13320014704E+03  0.14665133341E+03  0.47000000000E+01 0. -1.
        -13    1    4    4    0    0 -0.12940344282E+02  0.37756288157E+02 -0.25434146484E+02  0.47327429815E+02  0.00000000000E+00 0.  1.
         14    1    4    4    0    0 -0.41064485015E+02  0.20156404573E+02 -0.19596966146E+03  0.20123787116E+03  0.00000000000E+00 0. -1.
         -5    1    5    5    0  502  0.14654380470E+02  0.48797815552E+01 -0.14146105165E+03  0.14237936041E+03  0.47000000000E+01 0.  1.
         11    1    6    6    0    0  0.16753478346E+02 -0.51845970915E+02 -0.48940726772E+01  0.54704987745E+02  0.00000000000E+00 0. -1.
        -12    1    6    6    0    0 -0.31843745046E+02  0.16954265653E+02 -0.99370293973E+01  0.37419457180E+02  0.00000000000E+00 0.  1.
</event>
<event>
12    1  0.1066489E+000  0.1744466E+03  0.7818608E-02  0.1173757E+00
         21   -1    0    0  503  502  0.00000000000E+00  0.00000000000E+00  0.10527408632E+04  0.10527408632E+04  0.00000000000E+00 0.  1.
         21   -1    0    0  501  503 -0.00000000000E+00 -0.00000000000E+00 -0.35295264990E+02  0.35295264990E+02  0.00000000000E+00 0.  1.
          6    2    1    2  501    0  0.16938509180E+02  0.72314590217E+01  0.26961544338E+03  0.32012887658E+03  0.17161236324E+03 0.  0.
         24    2    3    3    0    0  0.28044744061E+02  0.41694388828E+01  0.44862055156E+02  0.95031342300E+02  0.78831847222E+02 0.  0.
         -6    2    1    2    0  502 -0.16938509180E+02 -0.72314590217E+01  0.74783015479E+03  0.76790725158E+03  0.17347161010E+03 0.  0.
        -24    2    5    5    0    0 -0.53746364961E+02 -0.11721074769E+02  0.70265760840E+03  0.70927599844E+03  0.79490074704E+02 0.  0.
          5    1    3    3  501    0 -0.11106234881E+02  0.30620201388E+01  0.22475338822E+03  0.22509753428E+03  0.47000000000E+01 0. -1.
        -11    1    4    4    0    0 -0.10787150747E+02 -0.13861568528E+02 -0.13849132521E+02  0.22367480298E+02  0.00000000000E+00 0.  1.
         12    1    4    4    0    0  0.38831894807E+02  0.18031007411E+02  0.58711187677E+02  0.72663862002E+02  0.00000000000E+00 0. -1.
         -5    1    5    5    0  502  0.36807855782E+02  0.44896157473E+01  0.45172546393E+02  0.58631253137E+02  0.47000000000E+01 0.  1.
         13    1    6    6    0    0 -0.74832698810E+02 -0.91332178013E+01  0.54006127655E+03  0.54529765350E+03  0.00000000000E+00 0. -1.
        -14    1    6    6    0    0  0.21086333848E+02 -0.25878569676E+01  0.16259633185E+03  0.16397834494E+03  0.00000000000E+00 0.  1.
</event>
<event>
12    1  0.1066489E+000  0.6694954E+03  0.7818608E-02  0.9771711E-01
         21   -1    0    0  501  502  0.00000000000E+00  0.00000000000E+00  0.55169587560E+03  0.55169587560E+03  0.00000000000E+00 0. -1.
         21   -1    0    0  502  503 -0.00000000000E+00 -0.00000000000E+00 -0.95586573368E+03  0.95586573368E+03  0.00000000000E+00 0.  1.
         -6    2    1    2    0  503 -0.19684045823E+03  0.61512594922E+03 -0.49658435498E+03  0.83355868044E+03  0.17634611627E+03 0.  0.
        -24    2    3    3    0    0 -0.10076004586E+03  0.49508094867E+03 -0.34196582234E+03  0.61545038524E+03  0.81122256297E+02 0.  0.
          6    2    1    2  501    0  0.19684045823E+03 -0.61512594922E+03  0.92414496897E+02  0.67400292884E+03  0.16915498651E+03 0.  0.
         24    2    5    5    0    0  0.11590380784E+03 -0.47968137876E+03  0.20022970575E+02  0.50034062400E+03  0.80074358370E+02 0.  0.
          5    1    5    5  501    0  0.80936650389E+02 -0.13544457045E+03  0.72391526322E+02  0.17366230485E+03  0.47000000000E+01 0. -1.
        -11    1    6    6    0    0  0.89063949690E+01 -0.37406436381E+01  0.77199485191E+01  0.12365835649E+02  0.00000000000E+00 0.  1.
         12    1    6    6    0    0  0.10699741287E+03 -0.47594073512E+03  0.12303022056E+02  0.48797478835E+03  0.00000000000E+00 0. -1.
         -5    1    3    3    0  503 -0.96080412364E+02  0.12004500054E+03 -0.15461853265E+03  0.21810829520E+03  0.47000000000E+01 0.  1.
         11    1    4    4    0    0 -0.11505598188E+03  0.43993181895E+03 -0.30344874500E+03  0.54668000250E+03  0.00000000000E+00 0. -1.
        -12    1    4    4    0    0  0.14295936019E+02  0.55149129725E+02 -0.38517077340E+02  0.68770382745E+02  0.00000000000E+00 0.  1.
</event>
<event>
12    1  0.1066489E+000  0.2312218E+03  0.7818608E-02  0.1125913E+00
         21   -1    0    0  503  502  0.00000000000E+00  0.00000000000E+00  0.37450508135E+02  0.37450508135E+02  0.00000000000E+00 0. -1.
         21   -1    0    0  501  503 -0.00000000000E+00 -0.00000000000E+00 -0.15888010038E+04  0.15888010038E+04  0.00000000000E+00 0. -1.
          6    2    1    2  501    0  0.10952895882E+03 -0.11000131401E+03 -0.10372463440E+04  0.10625436239E+04  0.17035871761E+03 0.  0.
         24    2    3    3    0    0  0.48246342865E+01 -0.14350889222E+02 -0.57363653317E+03  0.57770535599E+03  0.66748640714E+02 0.  0.
         -6    2    1    2    0  502 -0.10952895882E+03  0.11000131401E+03 -0.51410415171E+03  0.56370788807E+03  0.17136692318E+03 0.  0.
        -24    2    5    5    0    0 -0.51634357220E+02  0.89143453395E+02 -0.47166905943E+03  0.48881020920E+03  0.76492201307E+02 0.  0.
          5    1    3    3  501    0  0.10470432453E+03 -0.95650424793E+02 -0.46360981081E+03  0.48483826790E+03  0.47000000000E+01 0. -1.
        -13    1    4    4    0    0  0.38501555384E+00 -0.32436900347E+02 -0.51839972132E+03  0.51941368080E+03  0.00000000000E+00 0.  1.
         14    1    4    4    0    0  0.44396187326E+01  0.18086011125E+02 -0.55236811846E+02  0.58291675185E+02  0.00000000000E+00 0. -1.
         -5    1    5    5    0  502 -0.57894601599E+02  0.20857860619E+02 -0.42435092279E+02  0.74897678874E+02  0.47000000000E+01 0. -1.
         13    1    6    6    0    0  0.73114792540E+01  0.14044495373E+02 -0.20420889224E+03  0.20482181829E+03  0.00000000000E+00 0. -1.
        -14    1    6    6    0    0 -0.58945836474E+02  0.75098958023E+02 -0.26746016720E+03  0.28398839091E+03  0.00000000000E+00 0.  1.
</event>
<event>
12    1  0.1066489E+000  0.2002983E+03  0.7818608E-02  0.1150305E+00
         21   -1    0    0  503  502  0.00000000000E+00  0.00000000000E+00  0.68327679731E+03  0.68327679731E+03  0.00000000000E+00 0.  1.
         21   -1    0    0  501  503 -0.00000000000E+00 -0.00000000000E+00 -0.11403570971E+03  0.11403570971E+03  0.00000000000E+00 0.  1.
          6    2    1    2  501    0  0.87401676439E+01  0.96360175376E+02  0.56646736518E+03  0.60083665235E+03  0.17537882729E+03 0.  0.
         24    2    3    3    0    0  0.65383440149E+02  0.54359528319E+02  0.23956369704E+03  0.26638095585E+03  0.79612160740E+02 0.  0.
         -6    2    1    2    0  502 -0.87401676439E+01 -0.96360175376E+02  0.27737224205E+01  0.19647585467E+03  0.17097775880E+03 0.  0.
        -24    2    5    5    0    0 -0.61623042795E+02 -0.84981016461E+02  0.34653366080E+02  0.13351169485E+03  0.74868847457E+02 0.  0.
          5    1    3    3  501    0 -0.56643272505E+02  0.42000647057E+02  0.32690366815E+03  0.33445569650E+03  0.47000000000E+01 0. -1.
        -11    1    4    4    0    0  0.43098281202E+02  0.39516720284E+02  0.56297932795E+02  0.81169515592E+02  0.00000000000E+00 0.  1.
         12    1    4    4    0    0  0.22285158947E+02  0.14842808035E+02  0.18326576424E+03  0.18521144026E+03  0.00000000000E+00 0. -1.
         -5    1    5    5    0  502  0.52882875151E+02 -0.11379158915E+02 -0.31879643659E+02  0.62964159819E+02  0.47000000000E+01 0.  1.
         11    1    6    6    0    0 -0.17722050751E+02  0.60203301697E+01 -0.11989799071E+02  0.22227702084E+02  0.00000000000E+00 0. -1.
        -12    1    6    6    0    0 -0.43900992044E+02 -0.91001346631E+02  0.46643165151E+02  0.11128399277E+03  0.00000000000E+00 0.  1.
</event>
<event>
12    1  0.1066489E+000  0.2192225E+03  0.7818608E-02  0.1134604E+00
         21   -1    0    0  503  502  0.00000000000E+00  0.00000000000E+00  0.39350926669E+03  0.39350926669E+03  0.00000000000E+00 0. -1.
         21   -1    0    0  501  503 -0.00000000000E+00 -0.00000000000E+00 -0.16779721433E+03  0.16779721433E+03  0.00000000000E+00 0. -1.
          6    2    1    2  501    0  0.13217851667E+03 -0.31461503868E+02  0.25979823529E+03  0.33944979798E+03  0.17108493737E+03 0.  0.
         24    2    3    3    0    0  0.74378112206E+02  0.45757634080E+02  0.11462085795E+03  0.16508740836E+03  0.80560825907E+02 0.  0.
         -6    2    1    2    0  502 -0.13217851667E+03  0.31461503868E+02 -0.34086182928E+02  0.22185668304E+03  0.17203933692E+03 0.  0.
        -24    2    5    5    0    0 -0.62004417241E+02  0.46332341079E+02 -0.79570366904E+02  0.13678937427E+03  0.79929068778E+02 0.  0.
          5    1    3    3  501    0  0.57800404467E+02 -0.77219137948E+02  0.14517737734E+03  0.17436238962E+03  0.47000000000E+01 0. -1.
        -11    1    4    4    0    0  0.91117274326E+02  0.36516177529E+02  0.10479781357E+03  0.14359098381E+03  0.00000000000E+00 0.  1.
         12    1    4    4    0    0 -0.16739162120E+02  0.92414565510E+01  0.98230443731E+01  0.21496424550E+02  0.00000000000E+00 0. -1.
         -5    1    5    5    0  502 -0.70174099432E+02 -0.14870837211E+02  0.45484183976E+02  0.85067308776E+02  0.47000000000E+01 0.  1.
         11    1    6    6    0    0 -0.34682057539E+02  0.63203632685E+02 -0.75547424233E+02  0.10442680503E+03  0.00000000000E+00 0. -1.
        -12    1    6    6    0    0 -0.27322359702E+02 -0.16871291605E+02 -0.40229426704E+01  0.32362569240E+02  0.00000000000E+00 0.  1.
</event>
<event>
12    1  0.1066489E+000  0.2391748E+03  0.7818608E-02  0.1123075E+00
         21   -1    0    0  503  502  0.00000000000E+00  0.00000000000E+00  0.74570582549E+03  0.74570582549E+03  0.00000000000E+00 0. -1.
         21   -1    0    0  501  503 -0.00000000000E+00 -0.00000000000E+00 -0.73959425447E+02  0.73959425447E+02  0.00000000000E+00 0.  1.
          6    2    1    2  501    0  0.38225698809E+02  0.13376444219E+03  0.41781919815E+03  0.48143271356E+03  0.19455190901E+03 0.  0.
         24    2    3    3    0    0  0.62293233966E+01  0.11164649565E+03  0.12171720879E+03  0.18274985550E+03  0.77965930425E+02 0.  0.
         -6    2    1    2    0  502 -0.38225698809E+02 -0.13376444219E+03  0.25392720190E+03  0.33823253738E+03  0.17483733993E+03 0.  0.
        -24    2    5    5    0    0  0.26765819611E+02 -0.64309925779E+02  0.59319371860E+02  0.12157122374E+03  0.80053725150E+02 0.  0.
          5    1    3    3  501    0  0.31996375412E+02  0.22117946539E+02  0.29610198936E+03  0.29868285806E+03  0.47000000000E+01 0. -1.
        -13    1    4    4    0    0 -0.30960640431E+02  0.72628518546E+02  0.51642725733E+02  0.94342111930E+02  0.00000000000E+00 0.  1.
         14    1    4    4    0    0  0.37189963828E+02  0.39017977106E+02  0.70074483057E+02  0.88407743568E+02  0.00000000000E+00 0. -1.
         -5    1    5    5    0  502 -0.64991518420E+02 -0.69454516412E+02  0.19460783004E+03  0.21666131364E+03  0.47000000000E+01 0.  1.
         11    1    6    6    0    0  0.36036005310E+02 -0.80081466030E+02  0.48574524860E+02  0.10035496672E+03  0.00000000000E+00 0. -1.
        -12    1    6    6    0    0 -0.92701856990E+01  0.15771540251E+02  0.10744847000E+02  0.21216257018E+02  0.00000000000E+00 0.  1.
</event>
<event>
12    1  0.1066489E+000  0.2239545E+03  0.7818608E-02  0.1131236E+00
         21   -1    0    0  501  502  0.00000000000E+00  0.00000000000E+00  0.47635896465E+02  0.47635896465E+02  0.00000000000E+00 0. -1.
         21   -1    0    0  502  503 -0.00000000000E+00 -0.00000000000E+00 -0.11236191194E+04  0.11236191194E+04  0.00000000000E+00 0. -1.
         -6    2    1    2    0  503  0.13102629137E+02  0.14057324584E+03 -0.38575033385E+03  0.44604815431E+03  0.17384797831E+03 0.  0.
        -24    2    3    3    0    0 -0.32891890660E+02  0.69401684530E+02 -0.10674873634E+03  0.15442362105E+03  0.80949933532E+02 0.  0.
          6    2    1    2  501    0 -0.13102629137E+02 -0.14057324584E+03 -0.69023288911E+03  0.72520686159E+03  0.17196230559E+03 0.  0.
         24    2    5    5    0    0 -0.66431923561E+02 -0.66843273468E+02 -0.49029643104E+03  0.50548704059E+03  0.79027427161E+02 0.  0.
          5    1    5    5  501    0  0.53329294424E+02 -0.73729972370E+02 -0.19993645808E+03  0.21971982100E+03  0.47000000000E+01 0. -1.
        -13    1    6    6    0    0 -0.13994024303E+01  0.93153662486E+00 -0.20735972348E+03  0.20736653782E+03  0.00000000000E+00 0.  1.
         14    1    6    6    0    0 -0.65032521130E+02 -0.67774810093E+02 -0.28293670756E+03  0.29812050277E+03  0.00000000000E+00 0. -1.
         -5    1    3    3    0  503  0.45994519797E+02  0.71171561308E+02 -0.27900159750E+03  0.29162453326E+03  0.47000000000E+01 0.  1.
         11    1    4    4    0    0 -0.33258218087E+02  0.20003231708E+02 -0.96444646468E+02  0.10396060880E+03  0.00000000000E+00 0. -1.
        -12    1    4    4    0    0  0.36632742725E+00  0.49398452822E+02 -0.10304089877E+02  0.50463012248E+02  0.00000000000E+00 0.  1.
</event>
<event>
12    1  0.1066489E+000  0.1826194E+03  0.7818608E-02  0.1166466E+00
         21   -1    0    0  503  502  0.00000000000E+00  0.00000000000E+00  0.36370929436E+02  0.36370929436E+02  0.00000000000E+00 0. -1.
         21   -1    0    0  501  503 -0.00000000000E+00 -0.00000000000E+00 -0.96746692124E+03  0.96746692124E+03  0.00000000000E+00 0. -1.
          6    2    1    2  501    0 -0.55119731641E+02  0.23475926064E+02 -0.59932538353E+03  0.62512743388E+03  0.16734422405E+03 0.  0.
         24    2    3    3    0    0 -0.28643118346E+02 -0.14452269314E+01 -0.57497282207E+03  0.58111366140E+03  0.79226412485E+02 0.  0.
         -6    2    1    2    0  502  0.55119731641E+02 -0.23475926064E+02 -0.33177060827E+03  0.37871041680E+03  0.17251243247E+03 0.  0.
        -24    2    5    5    0    0  0.16024634394E+02  0.11458764241E+02 -0.59695075475E+02  0.10158942379E+03  0.79804867054E+02 0.  0.
          5    1    3    3  501    0 -0.26476613295E+02  0.24921152996E+02 -0.24352561460E+02  0.44013772480E+02  0.47000000000E+01 0. -1.
        -11    1    4    4    0    0  0.55284110913E+01 -0.68370833316E+01 -0.50454711015E+01  0.10137347598E+02  0.00000000000E+00 0.  1.
         12    1    4    4    0    0 -0.34171529437E+02  0.53918564002E+01 -0.56992735097E+03  0.57097631380E+03  0.00000000000E+00 0. -1.
         -5    1    5    5    0  502  0.39095097247E+02 -0.34934690305E+02 -0.27207553280E+03  0.27712099300E+03  0.47000000000E+01 0.  1.
         13    1    6    6    0    0 -0.48442932145E+01 -0.21287688798E+02 -0.58828394426E+02  0.62748807653E+02  0.00000000000E+00 0. -1.
        -14    1    6    6    0    0  0.20868927609E+02  0.32746453039E+02 -0.86668104828E+00  0.38840616141E+02  0.00000000000E+00 0.  1.
</event>
<event>
12    1  0.1066489E+000  0.2453345E+03  0.7818608E-02  0.1116379E+00
         21   -1    0    0  501  502  0.00000000000E+00  0.00000000000E+00  0.12479448243E+03  0.12479448243E+03  0.00000000000E+00 0. -1.
         21   -1    0    0  502  503 -0.00000000000E+00 -0.00000000000E+00 -0.58284701159E+03  0.58284701159E+03  0.00000000000E+00 0. -1.
         -6    2    1    2    0  503 -0.51643421254E+02  0.16613245892E+03 -0.81493998443E+02  0.25851558295E+03  0.17297976176E+03 0.  0.
        -24    2    3    3    0    0 -0.43248618142E+02  0.14537746633E+03 -0.12320580100E+03  0.21094240869E+03  0.79447968479E+02 0.  0.
          6    2    1    2  501    0  0.51643421254E+02 -0.16613245892E+03 -0.37655853071E+03  0.44912591107E+03  0.17219384447E+03 0.  0.
         24    2    5    5    0    0 -0.32417290990E+01 -0.61243056102E+02 -0.79056619984E+02  0.12890154685E+03  0.81267698924E+02 0.  0.
          5    1    5    5  501    0  0.54885150353E+02 -0.10488940282E+03 -0.29750191073E+03  0.32022436422E+03  0.47000000000E+01 0. -1.
        -11    1    6    6    0    0 -0.61644228863E+01  0.16645356049E+02  0.18522679915E+00  0.17751120992E+02  0.00000000000E+00 0.  1.
         12    1    6    6    0    0  0.29226937872E+01 -0.77888412151E+02 -0.79241846783E+02  0.11115042586E+03  0.00000000000E+00 0. -1.
         -5    1    3    3    0  503 -0.83948031122E+01  0.20754992588E+02  0.41711802553E+02  0.47573174256E+02  0.47000000000E+01 0.  1.
         13    1    4    4    0    0  0.83637683202E+01 -0.71200840170E-01 -0.28876713896E+02  0.30063637430E+02  0.00000000000E+00 0. -1.
        -14    1    4    4    0    0 -0.51612386462E+02  0.14544866717E+03 -0.94329087100E+02  0.18087877126E+03  0.00000000000E+00 0.  1.
</event>
<event>
12    1  0.1066489E+000  0.3917991E+03  0.7818608E-02  0.1046674E+00
         21   -1    0    0  503  502  0.00000000000E+00  0.00000000000E+00  0.40440041944E+03  0.40440041944E+03  0.00000000000E+00 0. -1.
         21   -1    0    0  501  503 -0.00000000000E+00 -0.00000000000E+00 -0.38931200824E+03  0.38931200824E+03  0.00000000000E+00 0. -1.
          6    2    1    2  501    0 -0.17035487200E+03 -0.30899185348E+03 -0.55773279474E+02  0.39574892224E+03  0.17032264331E+03 0.  0.
         24    2    3    3    0    0 -0.11235642482E+03 -0.30054245062E+03 -0.40111429966E+02  0.33489996322E+03  0.87174123031E+02 0.  0.
         -6    2    1    2    0  502  0.17035487200E+03  0.30899185348E+03  0.70861690671E+02  0.39796350543E+03  0.16987296583E+03 0.  0.
        -24    2    5    5    0    0  0.55961315447E+02  0.97722642443E+02  0.76452578904E+02  0.15760145904E+03  0.79447085525E+02 0.  0.
          5    1    3    3  501    0 -0.57998447184E+02 -0.84494028558E+01 -0.15661849507E+02  0.60848959025E+02  0.47000000000E+01 0. -1.
        -13    1    4    4    0    0 -0.78005593924E+02 -0.92397349883E+02 -0.24366737196E+02  0.12335266852E+03  0.00000000000E+00 0.  1.
         14    1    4    4    0    0 -0.34350830891E+02 -0.20814510074E+03 -0.15744692771E+02  0.21154729470E+03  0.00000000000E+00 0. -1.
         -5    1    5    5    0  502  0.11439355655E+03  0.21126921104E+03 -0.55908882331E+01  0.24036204639E+03  0.47000000000E+01 0.  1.
         11    1    6    6    0    0 -0.14712283860E+02  0.55019169938E+00  0.20028913185E+02  0.24857823127E+02  0.00000000000E+00 0. -1.
        -12    1    6    6    0    0  0.70673599307E+02  0.97172450743E+02  0.56423665719E+02  0.13274363591E+03  0.00000000000E+00 0.  1.
</event>
<event>
12    1  0.1066489E+000  0.2391267E+03  0.7818608E-02  0.1120590E+00
         21   -1    0    0  501  502  0.00000000000E+00  0.00000000000E+00  0.24407807671E+02  0.24407807671E+02  0.00000000000E+00 0.  1.
         21   -1    0    0  502  503 -0.00000000000E+00 -0.00000000000E+00 -0.24308098814E+04  0.24308098814E+04  0.00000000000E+00 0.  1.
         -6    2    1    2    0  503 -0.78403088790E+02 -0.14699350917E+03 -0.95664839356E+03  0.98608201778E+03  0.17154434065E+03 0.  0.
        -24    2    3    3    0    0 -0.73194645171E+02 -0.17026742970E+03 -0.92182737735E+03  0.94361560244E+03  0.79348836369E+02 0.  0.
          6    2    1    2  501    0  0.78403088790E+02  0.14699350917E+03 -0.14497536801E+04  0.14691356713E+04  0.16976381074E+03 0.  0.
         24    2    5    5    0    0  0.11077049959E+03  0.71024117705E+02 -0.91281865550E+03  0.92586749770E+03  0.81720233725E+02 0.  0.
          5    1    5    5  501    0 -0.32367410797E+02  0.75969391467E+02 -0.53693502463E+03  0.54326817355E+03  0.47000000000E+01 0. -1.
        -11    1    6    6    0    0 -0.13264556086E+01  0.20700655112E+02 -0.47008006444E+02  0.51381215209E+02  0.00000000000E+00 0.  1.
         12    1    6    6    0    0  0.11209695520E+03  0.50323462593E+02 -0.86581064905E+03  0.87448628249E+03  0.00000000000E+00 0. -1.
         -5    1    3    3    0  503 -0.52084436182E+01  0.23273920530E+02 -0.34821016214E+02  0.42466415342E+02  0.47000000000E+01 0.  1.
         13    1    4    4    0    0 -0.14618176821E+02 -0.86945479813E+02 -0.27413513523E+03  0.28796402539E+03  0.00000000000E+00 0. -1.
        -14    1    4    4    0    0 -0.58576468350E+02 -0.83321949890E+02 -0.64769224212E+03  0.65565157705E+03  0.00000000000E+00 0.  1.
</event>
<event>
12    1  0.1066489E+000  0.1943920E+03  0.7818608E-02  0.1155344E+00
         21   -1    0    0  503  502  0.00000000000E+00  0.00000000000E+00  0.51080667567E+03  0.51080667567E+03  0.00000000000E+00 0. -1.
         21   -1    0    0  501  503 -0.00000000000E+00 -0.00000000000E+00 -0.79736408271E+02  0.79736408271E+02  0.00000000000E+00 0. -1.
          6    2    1    2  501    0 -0.85793903722E+02 -0.23579730654E+02  0.30547527355E+03  0.36208204340E+03  0.17283421477E+03 0.  0.
         24    2    3    3    0    0 -0.19675586816E+02 -0.69737711384E+02  0.21670432544E+03  0.24206303556E+03  0.79895377938E+02 0.  0.
         -6    2    1    2    0  502  0.85793903722E+02  0.23579730654E+02  0.12559499385E+03  0.22846104053E+03  0.16883052730E+03 0.  0.
        -24    2    5    5    0    0  0.11521018661E+03  0.49656693479E+02  0.82650255797E+02  0.17005157028E+03  0.79669928232E+02 0.  0.
          5    1    3    3  501    0 -0.66118316906E+02  0.46157980730E+02  0.88770948109E+02  0.12001900784E+03  0.47000000000E+01 0. -1.
        -13    1    4    4    0    0 -0.32004792895E+02 -0.46196817665E+02  0.56578034947E+02  0.79746641115E+02  0.00000000000E+00 0.  1.
         14    1    4    4    0    0  0.12329206079E+02 -0.23540893718E+02  0.16012629049E+03  0.16231639445E+03  0.00000000000E+00 0. -1.
         -5    1    5    5    0  502 -0.29416282888E+02 -0.26076962825E+02  0.42944738052E+02  0.58409470255E+02  0.47000000000E+01 0.  1.
         11    1    6    6    0    0  0.13442649484E+02  0.41479261923E+02  0.99704351640E+01  0.44728554327E+02  0.00000000000E+00 0. -1.
        -12    1    6    6    0    0  0.10176753713E+03  0.81774315558E+01  0.72679820633E+02  0.12532301595E+03  0.00000000000E+00 0.  1.
</event>
<event>
12    1  0.1066489E+000  0.1783236E+03  0.7818608E-02  0.1169591E+00
         21   -1    0    0  501  502  0.00000000000E+00  0.00000000000E+00  0.61293587211E+03  0.61293587211E+03  0.00000000000E+00 0. -1.
         21   -1    0    0  502  503 -0.00000000000E+00 -0.00000000000E+00 -0.57999954583E+02  0.57999954583E+02  0.00000000000E+00 0. -1.
         -6    2    1    2    0  503  0.66477053396E+01 -0.47092852167E+02  0.38762481064E+03  0.42641112970E+03  0.17120610094E+03 0.  0.
        -24    2    3    3    0    0 -0.28726705232E+02 -0.36256297211E+01  0.92163154617E+02  0.12564472777E+03  0.80337922325E+02 0.  0.
          6    2    1    2  501    0 -0.66477053396E+01  0.47092852167E+02  0.16731110689E+03  0.24452469699E+03  0.17186445892E+03 0.  0.
         24    2    5    5    0    0  0.15217223595E+02  0.11902459219E+02  0.18251648142E+03  0.20014303087E+03  0.79823144439E+02 0.  0.
          5    1    5    5  501    0 -0.21864928934E+02  0.35190392948E+02 -0.15205374528E+02  0.44381666121E+02  0.47000000000E+01 0. -1.
        -11    1    6    6    0    0  0.27959718835E+02 -0.12679119604E+02  0.23310108506E+02  0.38546946828E+02  0.00000000000E+00 0.  1.
         12    1    6    6    0    0 -0.12742495240E+02  0.24581578823E+02  0.15920637291E+03  0.16159608405E+03  0.00000000000E+00 0. -1.
         -5    1    3    3    0  503  0.35374410572E+02 -0.43467222446E+02  0.29546165602E+03  0.30076640193E+03  0.47000000000E+01 0.  1.
         13    1    4    4    0    0  0.15561406380E+02 -0.28364583505E+02  0.22247825507E+02  0.39264140201E+02  0.00000000000E+00 0. -1.
        -14    1    4    4    0    0 -0.44288111613E+02  0.24738953784E+02  0.69915329111E+02  0.86380587571E+02  0.00000000000E+00 0.  1.
</event>
<event>
12    1  0.1066489E+000  0.2125474E+03  0.7818608E-02  0.1139796E+00
         21   -1    0    0  503  502  0.00000000000E+00  0.00000000000E+00  0.25921635101E+03  0.25921635101E+03  0.00000000000E+00 0.  1.
         21   -1    0    0  501  503 -0.00000000000E+00 -0.00000000000E+00 -0.24310439597E+03  0.24310439597E+03  0.00000000000E+00 0.  1.
          6    2    1    2  501    0 -0.71006455179E+02 -0.10240750417E+03  0.14261452577E+03  0.25497628902E+03  0.17071845657E+03 0.  0.
         24    2    3    3    0    0  0.16251858566E+02 -0.38842599831E+02  0.19806205512E+02  0.91396082678E+02  0.78664399086E+02 0.  0.
         -6    2    1    2    0  502  0.71006455179E+02  0.10240750417E+03 -0.12650257073E+03  0.24734445796E+03  0.17218352678E+03 0.  0.
        -24    2    5    5    0    0  0.93449249662E+02  0.32300550748E+02 -0.11855526053E+03  0.17315609174E+03  0.78432100999E+02 0.  0.
          5    1    3    3  501    0 -0.87258313745E+02 -0.63564904343E+02  0.12280832025E+03  0.16358020634E+03  0.47000000000E+01 0. -1.
        -11    1    4    4    0    0  0.17647055730E+02 -0.50255375885E+02  0.41045747687E+02  0.67244143124E+02  0.00000000000E+00 0.  1.
         12    1    4    4    0    0 -0.13951971645E+01  0.11412776054E+02 -0.21239542175E+02  0.24151939554E+02  0.00000000000E+00 0. -1.
         -5    1    5    5    0  502 -0.22442794482E+02  0.70106953427E+02 -0.79473102012E+01  0.74188366220E+02  0.47000000000E+01 0.  1.
         11    1    6    6    0    0  0.29932944354E+02  0.45799837881E+02 -0.27274913419E+02  0.61135318839E+02  0.00000000000E+00 0. -1.
        -12    1    6    6    0    0  0.63516305307E+02 -0.13499287132E+02 -0.91280347110E+02  0.11202077290E+03  0.00000000000E+00 0.  1.
</event>
<event>
12    1  0.1066489E+000  0.1912486E+03  0.7818608E-02  0.1157841E+00
         21   -1    0    0  501  502  0.00000000000E+00  0.00000000000E+00  0.12996174567E+03  0.12996174567E+03  0.00000000000E+00 0. -1.
         21   -1    0    0  502  503 -0.00000000000E+00 -0.00000000000E+00 -0.27858126284E+03  0.27858126284E+03  0.00000000000E+00 0. -1.
         -6    2    1    2    0  503 -0.49559866901E+02 -0.62847126679E+02 -0.82607223466E+02  0.20832666439E+03  0.17369543456E+03 0.  0.
        -24    2    3    3    0    0 -0.77929331183E+02 -0.96455604731E+02 -0.71312484152E+02  0.16267562457E+03  0.77467567987E+02 0.  0.
          6    2    1    2  501    0  0.49559866901E+02  0.62847126679E+02 -0.66012293703E+02  0.20021634413E+03  0.17123965603E+03 0.  0.
         24    2    5    5    0    0 -0.20710733778E+02 -0.28759310335E+01 -0.47832061287E+02  0.10218528535E+03  0.87844868838E+02 0.  0.
          5    1    5    5  501    0  0.70270600678E+02  0.65723057712E+02 -0.18180232416E+02  0.98031058779E+02  0.47000000000E+01 0. -1.
        -13    1    6    6    0    0 -0.51430104432E+02  0.12588179207E+02 -0.41364482419E+02  0.67190314059E+02  0.00000000000E+00 0.  1.
         14    1    6    6    0    0  0.30719370654E+02 -0.15464110240E+02 -0.64675788684E+01  0.34994971286E+02  0.00000000000E+00 0. -1.
         -5    1    3    3    0  503  0.28369464282E+02  0.33608478052E+02 -0.11294739314E+02  0.45651039822E+02  0.47000000000E+01 0.  1.
         11    1    4    4    0    0 -0.26532306202E+02 -0.51732552225E+02  0.73589476111E+01  0.58603535234E+02  0.00000000000E+00 0. -1.
        -12    1    4    4    0    0 -0.51397024981E+02 -0.44723052506E+02 -0.78671431763E+02  0.10407208933E+03  0.00000000000E+00 0.  1.
</event>
<event>
12    1  0.1066489E+000  0.1832251E+03  0.7818608E-02  0.1164846E+00
         21   -1    0    0  503  502  0.00000000000E+00  0.00000000000E+00  0.37982738380E+03  0.37982738380E+03  0.00000000000E+00 0. -1.
         21   -1    0    0  501  503 -0.00000000000E+00 -0.00000000000E+00 -0.89879644785E+02  0.89879644785E+02  0.00000000000E+00 0. -1.
          6    2    1    2  501    0 -0.41091574594E+02  0.50282942681E+02  0.17799530200E+03  0.25544817199E+03  0.17133169354E+03 0.  0.
         24    2    3    3    0    0 -0.83974235894E+02  0.46155316598E+02  0.79548492335E+02  0.14788505437E+03  0.79749866019E+02 0.  0.
         -6    2    1    2    0  502  0.41091574594E+02 -0.50282942681E+02  0.11195243701E+03  0.21425885660E+03  0.17075308972E+03 0.  0.
        -24    2    5    5    0    0 -0.59700500091E+00 -0.14093717006E+02 -0.79537255127E+01  0.82171099650E+02  0.80559534471E+02 0.  0.
          5    1    3    3  501    0  0.42882661300E+02  0.41276260833E+01  0.98446809667E+02  0.10756311761E+03  0.47000000000E+01 0. -1.
        -11    1    4    4    0    0 -0.23218682563E+02  0.53562088373E+02  0.18013296981E+02  0.61094053712E+02  0.00000000000E+00 0.  1.
         12    1    4    4    0    0 -0.60755553331E+02 -0.74067717745E+01  0.61535195354E+02  0.86791000662E+02  0.00000000000E+00 0. -1.
         -5    1    5    5    0  502  0.41688579595E+02 -0.36189225675E+02  0.11990616253E+03  0.13208775695E+03  0.47000000000E+01 0.  1.
         13    1    6    6    0    0  0.21263526293E+02 -0.31616667040E+02 -0.28370765219E+02  0.47504226172E+02  0.00000000000E+00 0. -1.
        -14    1    6    6    0    0 -0.21860531294E+02  0.17522950034E+02  0.20417039706E+02  0.34666873478E+02  0.00000000000E+00 0.  1.
</event>
<event>
12    1  0.1066489E+000  0.1989369E+03  0.7818608E-02  0.1151176E+00
         21   -1    0    0  501  502  0.00000000000E+00  0.00000000000E+00  0.96290142587E+02  0.96290142587E+02  0.00000000000E+00 0. -1.
         21   -1    0    0  502  503 -0.00000000000E+00 -0.00000000000E+00 -0.45318778243E+03  0.45318778243E+03  0.00000000000E+00 0. -1.
         -6    2    1    2    0  503 -0.82737153940E+02 -0.53959027470E+02 -0.88632609336E+02  0.21549886926E+03  0.16978518760E+03 0.  0.
        -24    2    3    3    0    0 -0.95765516141E+02 -0.19026330588E+02 -0.87400332284E+01  0.12720988212E+03  0.81073612175E+02 0.  0.
          6    2    1    2  501    0  0.82737153940E+02  0.53959027470E+02 -0.26826503051E+03  0.33397905576E+03  0.17268141128E+03 0.  0.
         24    2    5    5    0    0  0.32173083962E+02 -0.61749416127E+01 -0.37539310135E+02  0.90197868107E+02  0.75187887123E+02 0.  0.
          5    1    5    5  501    0  0.50564069978E+02  0.60133969083E+02 -0.23072572038E+03  0.24378118765E+03  0.47000000000E+01 0. -1.
        -11    1    6    6    0    0  0.41826938291E+02  0.25384523692E+02 -0.24421918471E+02  0.54683607340E+02  0.00000000000E+00 0.  1.
         12    1    6    6    0    0 -0.96538543292E+01 -0.31559465305E+02 -0.13117391664E+02  0.35514260767E+02  0.00000000000E+00 0. -1.
         -5    1    3    3    0  503  0.13028362200E+02 -0.34932696882E+02 -0.79892576108E+02  0.88288987140E+02  0.47000000000E+01 0.  1.
         11    1    4    4    0    0  0.57156311485E+01 -0.24491273549E+02 -0.40512741073E+01  0.25473589095E+02  0.00000000000E+00 0. -1.
        -12    1    4    4    0    0 -0.10148114729E+03  0.54649429607E+01 -0.46887591211E+01  0.10173629303E+03  0.00000000000E+00 0.  1.
</event>
<event>
12    1  0.1066489E+000  0.2372708E+03  0.7818608E-02  0.1122047E+00
         21   -1    0    0  503  502  0.00000000000E+00  0.00000000000E+00  0.13631676031E+03  0.13631676031E+03  0.00000000000E+00 0. -1.
         21   -1    0    0  501  503 -0.00000000000E+00 -0.00000000000E+00 -0.62250045155E+03  0.62250045155E+03  0.00000000000E+00 0. -1.
          6    2    1    2  501    0  0.41267101605E+01  0.16039421484E+03 -0.21567045622E+02  0.23824893584E+03  0.17479726566E+03 0.  0.
         24    2    3    3    0    0 -0.23256273935E+02  0.28654566866E+02 -0.48206116601E+02  0.10100137568E+03  0.80718707453E+02 0.  0.
         -6    2    1    2    0  502 -0.41267101605E+01 -0.16039421484E+03 -0.46461664562E+03  0.52056827603E+03  0.17140410943E+03 0.  0.
        -24    2    5    5    0    0 -0.23979210022E+02 -0.17248027838E+03 -0.31264898165E+03  0.36676172358E+03  0.80251649301E+02 0.  0.
          5    1    3    3  501    0  0.27382984095E+02  0.13173964797E+03  0.26639070978E+02  0.13724756015E+03  0.47000000000E+01 0. -1.
        -13    1    4    4    0    0 -0.57695074150E+01  0.30495547118E+02  0.15656790767E+02  0.34762058440E+02  0.00000000000E+00 0.  1.
         14    1    4    4    0    0 -0.17486766520E+02 -0.18409802521E+01 -0.63862907368E+02  0.66239317245E+02  0.00000000000E+00 0. -1.
         -5    1    5    5    0  502  0.19852499862E+02  0.12086063541E+02 -0.15196766397E+03  0.15380655244E+03  0.47000000000E+01 0.  1.
         11    1    6    6    0    0 -0.36591913688E+02 -0.27997330879E+02 -0.88684233367E+02  0.99938540772E+02  0.00000000000E+00 0. -1.
        -12    1    6    6    0    0  0.12612703666E+02 -0.14448294750E+03 -0.22396474828E+03  0.26682318281E+03  0.00000000000E+00 0.  1.
</event>
<event>
12    1  0.1066489E+000  0.2647371E+03  0.7818608E-02  0.1104782E+00
         21   -1    0    0  501  502  0.00000000000E+00  0.00000000000E+00  0.31790915726E+03  0.31790915726E+03  0.00000000000E+00 0. -1.
         21   -1    0    0  502  503 -0.00000000000E+00 -0.00000000000E+00 -0.22632438812E+03  0.22632438812E+03  0.00000000000E+00 0. -1.
         -6    2    1    2    0  503 -0.17402660024E+02  0.19622454306E+03  0.97976642452E+02  0.27941925187E+03  0.17224625388E+03 0.  0.
        -24    2    3    3    0    0 -0.47231530438E+02  0.12208864817E+03  0.86681120295E-01  0.15296599193E+03  0.79133631872E+02 0.  0.
          6    2    1    2  501    0  0.17402660024E+02 -0.19622454306E+03 -0.63918733094E+01  0.26481429351E+03  0.17685822041E+03 0.  0.
         24    2    5    5    0    0  0.64508422128E+02 -0.16119841357E+03  0.32567164320E+02  0.19420495147E+03  0.80676377711E+02 0.  0.
          5    1    5    5  501    0 -0.47105762104E+02 -0.35026129489E+02 -0.38959037629E+02  0.70609342041E+02  0.47000000000E+01 0. -1.
        -11    1    6    6    0    0  0.30904802432E+02 -0.59895029391E+02  0.52744249446E+02  0.85583159610E+02  0.00000000000E+00 0.  1.
         12    1    6    6    0    0  0.33603619696E+02 -0.10130338418E+03 -0.20177085126E+02  0.10862179186E+03  0.00000000000E+00 0. -1.
         -5    1    3    3    0  503  0.29828870414E+02  0.74135894887E+02  0.97889961331E+02  0.12645325994E+03  0.47000000000E+01 0.  1.
         13    1    4    4    0    0 -0.10504764985E+02  0.13463945070E+02 -0.29910027147E+02  0.34441800594E+02  0.00000000000E+00 0. -1.
        -14    1    4    4    0    0 -0.36726765454E+02  0.10862470310E+03  0.29996708267E+02  0.11852419133E+03  0.00000000000E+00 0.  1.
</event>
<event>
12    1  0.1066489E+000  0.3359249E+03  0.7818608E-02  0.1068941E+00
         21   -1    0    0  503  502  0.00000000000E+00  0.00000000000E+00  0.32011570250E+03  0.32011570250E+03  0.00000000000E+00 0.  1.
         21   -1    0    0  501  503 -0.00000000000E+00 -0.00000000000E+00 -0.35799905488E+03  0.35799905488E+03  0.00000000000E+00 0.  1.
          6    2    1    2  501    0  0.44114244662E+02 -0.28571999874E+03  0.35579573127E+02  0.33780381897E+03  0.17106586400E+03 0.  0.
         24    2    3    3    0    0 -0.30293485489E+02 -0.80725532619E+02  0.85123849904E+01  0.11799944204E+03  0.80106808343E+02 0.  0.
         -6    2    1    2    0  502 -0.44114244662E+02  0.28571999874E+03 -0.73462925510E+02  0.34031093840E+03  0.16380704841E+03 0.  0.
        -24    2    5    5    0    0 -0.43355992339E+02  0.25314514534E+03 -0.11055629177E+03  0.29071553699E+03  0.79565212986E+02 0.  0.
          5    1    3    3  501    0  0.74407730151E+02 -0.20499446612E+03  0.27067188136E+02  0.21980437694E+03  0.47000000000E+01 0. -1.
        -13    1    4    4    0    0 -0.26701725277E+01  0.11520716499E+02 -0.14780046663E+02  0.18928985957E+02  0.00000000000E+00 0.  1.
         14    1    4    4    0    0 -0.27623312961E+02 -0.92246249118E+02  0.23292431654E+02  0.99070456079E+02  0.00000000000E+00 0. -1.
         -5    1    5    5    0  502 -0.75825232313E+00  0.32574853406E+02  0.37093366258E+02  0.49595401413E+02  0.47000000000E+01 0.  1.
         13    1    6    6    0    0 -0.19820616468E+02  0.19254500730E+03 -0.11569409065E+03  0.22550290306E+03  0.00000000000E+00 0. -1.
        -14    1    6    6    0    0 -0.23535375871E+02  0.60600138035E+02  0.51377988841E+01  0.65212633934E+02  0.00000000000E+00 0.  1.
</event>
<event>
12    1  0.1066489E+000  0.1806631E+03  0.7818608E-02  0.1167570E+00
         21   -1    0    0  501  502  0.00000000000E+00  0.00000000000E+00  0.28654788211E+03  0.28654788211E+03  0.00000000000E+00 0.  1.
         21   -1    0    0  502  503 -0.00000000000E+00 -0.00000000000E+00 -0.12345767074E+03  0.12345767074E+03  0.00000000000E+00 0.  1.
         -6    2    1    2    0  503 -0.54495544303E+02  0.62107979036E+01  0.21095601173E+02  0.18021951581E+03  0.17036933741E+03 0.  0.
        -24    2    3    3    0    0 -0.32943229043E+02  0.69918847847E+02  0.10538209364E+02  0.11197901140E+03  0.80338929002E+02 0.  0.
          6    2    1    2  501    0  0.54495544303E+02 -0.62107979036E+01  0.14199461020E+03  0.22978603704E+03  0.17213603670E+03 0.  0.
         24    2    5    5    0    0  0.75614901045E+02 -0.27251903880E+02  0.15795457769E+03  0.19564565138E+03  0.82869130355E+02 0.  0.
          5    1    5    5  501    0 -0.21119356742E+02  0.21041105976E+02 -0.15959967498E+02  0.34140385651E+02  0.47000000000E+01 0. -1.
        -11    1    6    6    0    0 -0.20933425417E+01 -0.60447550357E+01  0.90093307131E+02  0.90320125865E+02  0.00000000000E+00 0.  1.
         12    1    6    6    0    0  0.77708243587E+02 -0.21207148844E+02  0.67861270563E+02  0.10532552552E+03  0.00000000000E+00 0. -1.
         -5    1    3    3    0  503 -0.21552315260E+02 -0.63708049944E+02  0.10557391809E+02  0.68240504413E+02  0.47000000000E+01 0.  1.
         11    1    4    4    0    0 -0.54027565837E+02  0.46833399316E+02 -0.13218641005E+02  0.72712293540E+02  0.00000000000E+00 0. -1.
        -12    1    4    4    0    0  0.21084336794E+02  0.23085448531E+02  0.23756850369E+02  0.39266717859E+02  0.00000000000E+00 0.  1.
</event>
<event>
12    1  0.1066489E+000  0.1845982E+03  0.7818608E-02  0.1163888E+00
         21   -1    0    0  501  502  0.00000000000E+00  0.00000000000E+00  0.43115370014E+03  0.43115370014E+03  0.00000000000E+00 0.  1.
         21   -1    0    0  502  503 -0.00000000000E+00 -0.00000000000E+00 -0.14849166178E+03  0.14849166178E+03  0.00000000000E+00 0.  1.
         -6    2    1    2    0  503  0.54551020506E+02  0.35239330878E+02 -0.57677089029E+02  0.19339887535E+03  0.17279714728E+03 0.  0.
        -24    2    3    3    0    0  0.10014096389E+03  0.48538582604E+02 -0.44377802010E+02  0.14385824486E+03  0.79634155075E+02 0.  0.
          6    2    1    2  501    0 -0.54551020506E+02 -0.35239330878E+02  0.34033912738E+03  0.38624648657E+03  0.17069857199E+03 0.  0.
         24    2    5    5    0    0 -0.84772535756E+01  0.38951319503E+02  0.19179484095E+03  0.21386742857E+03  0.85819268645E+02 0.  0.
          5    1    5    5  501    0 -0.46073766930E+02 -0.74190650381E+02  0.14854428644E+03  0.17237905800E+03  0.47000000000E+01 0. -1.
        -11    1    6    6    0    0  0.35248809700E+02  0.30315011765E+02  0.12683296350E+03  0.13508545130E+03  0.00000000000E+00 0.  1.
         12    1    6    6    0    0 -0.43726063275E+02  0.86363077380E+01  0.64961877448E+02  0.78781977269E+02  0.00000000000E+00 0. -1.
         -5    1    3    3    0  503 -0.45589943381E+02 -0.13299251726E+02 -0.13299287019E+02  0.49540630488E+02  0.47000000000E+01 0.  1.
         13    1    4    4    0    0  0.78661146957E+02  0.44835729675E+02 -0.66853952147E+02  0.11254896541E+03  0.00000000000E+00 0. -1.
        -14    1    4    4    0    0  0.21479816930E+02  0.37028529283E+01  0.22476150137E+02  0.31309279458E+02  0.00000000000E+00 0.  1.
</event>
<event>
12    1  0.1066489E+000  0.2710707E+03  0.7818608E-02  0.1100741E+00
         21   -1    0    0  503  502  0.00000000000E+00  0.00000000000E+00  0.21999130495E+04  0.21999130495E+04  0.00000000000E+00 0.  1.
         21   -1    0    0  501  503 -0.00000000000E+00 -0.00000000000E+00 -0.34389887953E+02  0.34389887953E+02  0.00000000000E+00 0.  1.
          6    2    1    2  501    0 -0.14586787181E+03  0.15138782178E+03  0.12790956088E+04  0.13075033025E+04  0.17112451898E+03 0.  0.
         24    2    3    3    0    0 -0.14211935859E+03  0.14192496874E+03  0.12782838630E+04  0.12962629346E+04  0.77119078372E+02 0.  0.
         -6    2    1    2    0  502  0.14586787181E+03 -0.15138782178E+03  0.88642755283E+03  0.92679963503E+03  0.17031749314E+03 0.  0.
        -24    2    5    5    0    0  0.13645067503E+03 -0.13813878251E+03  0.88488046219E+03  0.90980833942E+03  0.83884874479E+02 0.  0.
          5    1    3    3  501    0 -0.37485132239E+01  0.94628530385E+01  0.81174573064E+00  0.11240367883E+02  0.47000000000E+01 0. -1.
        -11    1    4    4    0    0 -0.25091434294E+02  0.13785888655E+02  0.39851378159E+03  0.39954081759E+03  0.00000000000E+00 0.  1.
         12    1    4    4    0    0 -0.11702792429E+03  0.12813908009E+03  0.87977008145E+03  0.89672211700E+03  0.00000000000E+00 0. -1.
         -5    1    5    5    0  502  0.94171967816E+01 -0.13249039275E+02  0.15470906341E+01  0.16991295605E+02  0.47000000000E+01 0.  1.
         11    1    6    6    0    0  0.53090421425E+02 -0.11132886424E+03  0.55102377839E+03  0.56465911240E+03  0.00000000000E+00 0. -1.
        -12    1    6    6    0    0  0.83360253606E+02 -0.26809918267E+02  0.33385668380E+03  0.34514922703E+03  0.00000000000E+00 0.  1.
</event>
<event>
12    1  0.1066489E+000  0.2079684E+03  0.7818608E-02  0.1143189E+00
         21   -1    0    0  503  502  0.00000000000E+00  0.00000000000E+00  0.92620101316E+02  0.92620101316E+02  0.00000000000E+00 0.  1.
         21   -1    0    0  501  503 -0.00000000000E+00 -0.00000000000E+00 -0.50392114087E+03  0.50392114087E+03  0.00000000000E+00 0.  1.
          6    2    1    2  501    0 -0.10604413365E+03  0.48053924692E+02 -0.12482142430E+03  0.24253359238E+03  0.17230095040E+03 0.  0.
         24    2    3    3    0    0 -0.97562760657E+02  0.54612683184E+02 -0.22901228598E+02  0.13994330389E+03  0.80985335716E+02 0.  0.
         -6    2    1    2    0  502  0.10604413365E+03 -0.48053924692E+02 -0.28647961525E+03  0.35400764980E+03  0.17232616807E+03 0.  0.
        -24    2    5    5    0    0 -0.75221149837E+01 -0.15403984449E+02 -0.68372112747E+02  0.10590226075E+03  0.79035929043E+02 0.  0.
          5    1    3    3  501    0 -0.84813729937E+01 -0.65587584915E+01 -0.10192019570E+03  0.10259028849E+03  0.47000000000E+01 0. -1.
        -11    1    4    4    0    0 -0.17693060794E+02  0.36800601963E+02 -0.39087854152E+02  0.56526003284E+02  0.00000000000E+00 0.  1.
         12    1    4    4    0    0 -0.79869699863E+02  0.17812081221E+02  0.16186625554E+02  0.83417300607E+02  0.00000000000E+00 0. -1.
         -5    1    5    5    0  502  0.11356624863E+03 -0.32649940243E+02 -0.21810750250E+03  0.24810538905E+03  0.47000000000E+01 0.  1.
         11    1    6    6    0    0  0.15301105707E+02 -0.99334436589E+01 -0.78316194866E+02  0.80412831794E+02  0.00000000000E+00 0. -1.
        -12    1    6    6    0    0 -0.22823220691E+02 -0.54705407902E+01  0.99440821198E+01  0.25489428955E+02  0.00000000000E+00 0.  1.
</event>
<event>
12    1  0.1066489E+000  0.5942781E+03  0.7818608E-02  0.9917579E-01
         21   -1    0    0  501  502  0.00000000000E+00  0.00000000000E+00  0.44060162944E+03  0.44060162944E+03  0.00000000000E+00 0.  1.
         21   -1    0    0  502  503 -0.00000000000E+00 -0.00000000000E+00 -0.80985483529E+03  0.80985483529E+03  0.00000000000E+00 0.  1.
         -6    2    1    2    0  503  0.38400794741E+03 -0.42015988136E+03 -0.25020270797E+03  0.64480060025E+03  0.17079224052E+03 0.  0.
        -24    2    3    3    0    0  0.25693985186E+03 -0.30147645023E+03 -0.10389344438E+03  0.41751103088E+03  0.81335574020E+02 0.  0.
          6    2    1    2  501    0 -0.38400794741E+03  0.42015988136E+03 -0.11905049787E+03  0.60565586448E+03  0.16926185500E+03 0.  0.
         24    2    5    5    0    0 -0.39262748184E+03  0.40433171545E+03 -0.12994385265E+03  0.58407850625E+03  0.81374572241E+02 0.  0.
          5    1    5    5  501    0  0.86195344295E+01  0.15828165915E+02  0.10893354778E+02  0.21577358234E+02  0.47000000000E+01 0. -1.
        -11    1    6    6    0    0 -0.11322553188E+03  0.17035008917E+03 -0.57996586075E+02  0.21260944933E+03  0.00000000000E+00 0.  1.
         12    1    6    6    0    0 -0.27940194996E+03  0.23398162628E+03 -0.71947266570E+02  0.37146905691E+03  0.00000000000E+00 0. -1.
         -5    1    3    3    0  503  0.12706809555E+03 -0.11868343113E+03 -0.14630926359E+03  0.22728956937E+03  0.47000000000E+01 0.  1.
         13    1    4    4    0    0  0.55433638340E+02 -0.32218570729E+02 -0.38851370305E+02  0.74969017160E+02  0.00000000000E+00 0. -1.
        -14    1    4    4    0    0  0.20150621352E+03 -0.26925787950E+03 -0.65042074076E+02  0.34254201372E+03  0.00000000000E+00 0.  1.
</event>
<event>
12    1  0.1066489E+000  0.1771321E+03  0.7818608E-02  0.1170802E+00
         21   -1    0    0  503  502  0.00000000000E+00  0.00000000000E+00  0.65337261928E+03  0.65337261928E+03  0.00000000000E+00 0. -1.
         21   -1    0    0  501  503 -0.00000000000E+00 -0.00000000000E+00 -0.47824307151E+02  0.47824307151E+02  0.00000000000E+00 0. -1.
          6    2    1    2  501    0  0.24025361801E+02  0.33899972253E+02  0.30842923051E+03  0.35528430096E+03  0.17138237408E+03 0.  0.
         24    2    3    3    0    0 -0.49371177080E+01  0.31013157294E+02  0.31387333062E+03  0.32530285426E+03  0.79493951084E+02 0.  0.
         -6    2    1    2    0  502 -0.24025361801E+02 -0.33899972253E+02  0.29711908162E+03  0.34591262547E+03  0.17218992326E+03 0.  0.
        -24    2    5    5    0    0 -0.32667883665E+02  0.27771006238E+02  0.25392499065E+03  0.26997961377E+03  0.81072014677E+02 0.  0.
          5    1    3    3  501    0  0.28962479509E+02  0.28868149585E+01 -0.54441001102E+01  0.29981446695E+02  0.47000000000E+01 0. -1.
        -11    1    4    4    0    0 -0.29476363647E+00 -0.27136061141E+02  0.99329526685E+02  0.10296993528E+03  0.00000000000E+00 0.  1.
         12    1    4    4    0    0 -0.46423540715E+01  0.58149218436E+02  0.21454380394E+03  0.22233291898E+03  0.00000000000E+00 0. -1.
         -5    1    5    5    0  502  0.86425218638E+01 -0.61670978490E+02  0.43194090970E+02  0.75933011707E+02  0.47000000000E+01 0.  1.
         13    1    6    6    0    0 -0.50222142656E+02  0.36073566602E+02  0.12348187005E+03  0.13809901539E+03  0.00000000000E+00 0. -1.
        -14    1    6    6    0    0  0.17554258992E+02 -0.83025603646E+01  0.13044312060E+03  0.13188059838E+03  0.00000000000E+00 0.  1.
</event>
<event>
12    1  0.1066489E+000  0.2137637E+03  0.7818608E-02  0.1138742E+00
         21   -1    0    0  503  502  0.00000000000E+00  0.00000000000E+00  0.86125383019E+02  0.86125383019E+02  0.00000000000E+00 0. -1.
         21   -1    0    0  501  503 -0.00000000000E+00 -0.00000000000E+00 -0.63115558702E+03  0.63115558702E+03  0.00000000000E+00 0. -1.
          6    2    1    2  501    0 -0.12413309227E+03 -0.21694636983E+02 -0.41713710548E+03  0.46871984075E+03  0.17267090804E+03 0.  0.
         24    2    3    3    0    0 -0.98451829978E+02  0.19437527977E+02 -0.39516692602E+03  0.41527677748E+03  0.78913383972E+02 0.  0.
         -6    2    1    2    0  502  0.12413309227E+03  0.21694636983E+02 -0.12789309853E+03  0.24856112929E+03  0.17189039668E+03 0.  0.
        -24    2    5    5    0    0  0.13964342426E+03  0.26929475896E+02 -0.14723108029E+03  0.22279251513E+03  0.87943340749E+02 0.  0.
          5    1    3    3  501    0 -0.25681262291E+02 -0.41132164960E+02 -0.21970179452E+02  0.53443063276E+02  0.47000000000E+01 0. -1.
        -13    1    4    4    0    0 -0.47924660987E+02  0.11465327360E+02 -0.67124609255E+02  0.83270282994E+02  0.00000000000E+00 0.  1.
         14    1    4    4    0    0 -0.50527168991E+02  0.79722006165E+01 -0.32804231677E+03  0.33200649448E+03  0.00000000000E+00 0. -1.
         -5    1    5    5    0  502 -0.15510331995E+02 -0.52348389130E+01  0.19337981762E+02  0.25768614159E+02  0.47000000000E+01 0.  1.
         13    1    6    6    0    0  0.71943547614E+00 -0.19511022604E+02 -0.26816700001E+02  0.33171267528E+02  0.00000000000E+00 0. -1.
        -14    1    6    6    0    0  0.13892398879E+03  0.46440498500E+02 -0.12041438029E+03  0.18962124760E+03  0.00000000000E+00 0.  1.
</event>
<event>
12    1  0.1066489E+000  0.2356554E+03  0.7818608E-02  0.1122757E+00
         21   -1    0    0  501  502  0.00000000000E+00  0.00000000000E+00  0.39233316071E+03  0.39233316071E+03  0.00000000000E+00 0.  1.
         21   -1    0    0  502  503 -0.00000000000E+00 -0.00000000000E+00 -0.40275955466E+03  0.40275955466E+03  0.00000000000E+00 0.  1.
         -6    2    1    2    0  503  0.66605390108E+02 -0.14652013439E+03 -0.32544644885E+03  0.40180697346E+03  0.17213083711E+03 0.  0.
        -24    2    3    3    0    0  0.75618385145E+01 -0.14199853935E+02 -0.16728368625E+03  0.18725547131E+03  0.82595172957E+02 0.  0.
          6    2    1    2  501    0 -0.66605390108E+02  0.14652013439E+03  0.31502005490E+03  0.39328574191E+03  0.17184764190E+03 0.  0.
         24    2    5    5    0    0 -0.37304561771E+02  0.39092669433E+02  0.55170941758E+02  0.11054407471E+03  0.79096728803E+02 0.  0.
          5    1    5    5  501    0 -0.29300828337E+02  0.10742746496E+03  0.25984911314E+03  0.28274166720E+03  0.47000000000E+01 0. -1.
        -13    1    6    6    0    0  0.13188307735E+02  0.58167469568E+01  0.47438596546E+02  0.49580101335E+02  0.00000000000E+00 0.  1.
         14    1    6    6    0    0 -0.50492869506E+02  0.33275922476E+02  0.77323452111E+01  0.60963973378E+02  0.00000000000E+00 0. -1.
         -5    1    3    3    0  503  0.59043551594E+02 -0.13232028045E+03 -0.15816276260E+03  0.21455150215E+03  0.47000000000E+01 0.  1.
         11    1    4    4    0    0  0.31361038947E+02 -0.35940502317E+02 -0.69486424606E+02  0.84282843303E+02  0.00000000000E+00 0. -1.
        -12    1    4    4    0    0 -0.23799200432E+02  0.21740648382E+02 -0.97797261643E+02  0.10297262800E+03  0.00000000000E+00 0.  1.
</event>
<event>
12    1  0.1066489E+000  0.2027933E+03  0.7818608E-02  0.1149019E+00
         21   -1    0    0  501  502  0.00000000000E+00  0.00000000000E+00  0.72014641003E+03  0.72014641003E+03  0.00000000000E+00 0. -1.
         21   -1    0    0  502  503 -0.00000000000E+00 -0.00000000000E+00 -0.19395082829E+03  0.19395082829E+03  0.00000000000E+00 0. -1.
         -6    2    1    2    0  503 -0.88558022097E+02  0.27051502669E+02  0.64853413384E+03  0.67726010259E+03  0.17178596196E+03 0.  0.
        -24    2    3    3    0    0  0.13242450689E+02  0.21811995138E+02  0.18084149093E+03  0.19856470159E+03  0.77930547575E+02 0.  0.
          6    2    1    2  501    0  0.88558022097E+02 -0.27051502669E+02 -0.12233855210E+03  0.23683713573E+03  0.18041840388E+03 0.  0.
         24    2    5    5    0    0  0.10237580817E+03 -0.17841901062E+02 -0.15337730218E+03  0.20132316693E+03  0.78786300781E+02 0.  0.
          5    1    5    5  501    0 -0.13817786069E+02 -0.92096016061E+01  0.31038750075E+02  0.35513968798E+02  0.47000000000E+01 0. -1.
        -11    1    6    6    0    0  0.78594537525E+02 -0.21707148189E+02 -0.15704682276E+03  0.17695198826E+03  0.00000000000E+00 0.  1.
         12    1    6    6    0    0  0.23781270641E+02  0.38652471262E+01  0.36695205818E+01  0.24371178674E+02  0.00000000000E+00 0. -1.
         -5    1    3    3    0  503 -0.10180047279E+03  0.52395075306E+01  0.46769264291E+03  0.47869540100E+03  0.47000000000E+01 0.  1.
         13    1    4    4    0    0  0.10489696811E+02  0.46752842791E+02  0.69404995325E+02  0.84338101854E+02  0.00000000000E+00 0. -1.
        -14    1    4    4    0    0  0.27527538780E+01 -0.24940847653E+02  0.11143649560E+03  0.11422659974E+03  0.00000000000E+00 0.  1.
</event>
<event>
12    1  0.1066489E+000  0.4878794E+03  0.7818608E-02  0.1016994E+00
         21   -1    0    0  503  502  0.00000000000E+00  0.00000000000E+00  0.39290960480E+03  0.39290960480E+03  0.00000000000E+00 0.  1.
         21   -1    0    0  501  503 -0.00000000000E+00 -0.00000000000E+00 -0.67570646205E+03  0.67570646205E+03  0.00000000000E+00 0.  1.
          6    2    1    2  501    0 -0.45654646228E+03 -0.11269027522E+02 -0.31330681250E+03  0.57981671694E+03  0.17165256564E+03 0.  0.
         24    2    3    3    0    0 -0.22773470476E+03 -0.53812462711E+02 -0.13618708541E+03  0.28731329478E+03  0.96141199433E+02 0.  0.
         -6    2    1    2    0  502  0.45654646228E+03  0.11269027522E+02  0.30509955257E+02  0.48879934990E+03  0.17155839793E+03 0.  0.
        -24    2    5    5    0    0  0.23345716757E+03  0.46334523573E+02 -0.36123378743E+02  0.25329879019E+03  0.78779702051E+02 0.  0.
          5    1    3    3  501    0 -0.22881175752E+03  0.42543435189E+02 -0.17711972709E+03  0.29250342217E+03  0.47000000000E+01 0. -1.
        -13    1    4    4    0    0 -0.19553523192E+02  0.88671551586E+01  0.11622800637E+02  0.24414262317E+02  0.00000000000E+00 0.  1.
         14    1    4    4    0    0 -0.20818118157E+03 -0.62679617870E+02 -0.14780988605E+03  0.26289903246E+03  0.00000000000E+00 0. -1.
         -5    1    5    5    0  502  0.22308929470E+03 -0.35065496050E+02  0.66633334000E+02  0.23550055971E+03  0.47000000000E+01 0.  1.
         11    1    6    6    0    0  0.16807689626E+03  0.14408459690E+02 -0.56221041149E+02  0.17781521936E+03  0.00000000000E+00 0. -1.
        -12    1    6    6    0    0  0.65380271314E+02  0.31926063882E+02  0.20097662406E+02  0.75483570837E+02  0.00000000000E+00 0.  1.
</event>
<event>
12    1  0.1066489E+000  0.3691802E+03  0.7818608E-02  0.1055093E+00
         21   -1    0    0  503  502  0.00000000000E+00  0.00000000000E+00  0.56568506518E+03  0.56568506518E+03  0.00000000000E+00 0.  1.
         21   -1    0    0  501  503 -0.00000000000E+00 -0.00000000000E+00 -0.54348889264E+03  0.54348889264E+03  0.00000000000E+00 0. -1.
          6    2    1    2  501    0 -0.21956277648E+03 -0.24019569968E+03 -0.40309196695E+03  0.54600077337E+03  0.17242947471E+03 0.  0.
         24    2    3    3    0    0 -0.16054029821E+03 -0.24856244678E+03 -0.35472158894E+03  0.46908888309E+03  0.81611869729E+02 0.  0.
         -6    2    1    2    0  502  0.21956277648E+03  0.24019569968E+03  0.42528813949E+03  0.56317318445E+03  0.17433372345E+03 0.  0.
        -24    2    5    5    0    0  0.15218608843E+03  0.22585206167E+03  0.27092091660E+03  0.39406763296E+03  0.87871480116E+02 0.  0.
          5    1    3    3  501    0 -0.59022478272E+02  0.83667471008E+01 -0.48370378006E+02  0.76911890282E+02  0.47000000000E+01 0. -1.
        -13    1    4    4    0    0 -0.13970535077E+03 -0.18283294330E+03 -0.22309125253E+03  0.32049208593E+03  0.00000000000E+00 0.  1.
         14    1    4    4    0    0 -0.20834947438E+02 -0.65729503477E+02 -0.13163033641E+03  0.14859679715E+03  0.00000000000E+00 0. -1.
         -5    1    5    5    0  502  0.67376688046E+02  0.14343638003E+02  0.15436722288E+03  0.16910555149E+03  0.47000000000E+01 0.  1.
         13    1    6    6    0    0 -0.33236080578E+01  0.20926765055E+02  0.10279554860E+01  0.21213970837E+02  0.00000000000E+00 0. -1.
        -14    1    6    6    0    0  0.15550969649E+03  0.20492529662E+03  0.26989296112E+03  0.37285366212E+03  0.00000000000E+00 0.  1.
</event>
<event>
12    1  0.1066489E+000  0.4197990E+03  0.7818608E-02  0.1037416E+00
         21   -1    0    0  501  502  0.00000000000E+00  0.00000000000E+00  0.13382798624E+04  0.13382798624E+04  0.00000000000E+00 0. -1.
         21   -1    0    0  502  503 -0.00000000000E+00 -0.00000000000E+00 -0.22174765870E+03  0.22174765870E+03  0.00000000000E+00 0. -1.
         -6    2    1    2    0  503  0.23377266791E+03 -0.29836720512E+03  0.59540492495E+02  0.42400034596E+03  0.18043994507E+03 0.  0.
        -24    2    3    3    0    0  0.71231650564E+02 -0.17501742400E+03 -0.18888076332E+02  0.20535021166E+03  0.78146677825E+02 0.  0.
          6    2    1    2  501    0 -0.23377266791E+03  0.29836720512E+03  0.10569917112E+04  0.11360271751E+04  0.17220225246E+03 0.  0.
         24    2    5    5    0    0 -0.88112023556E+02  0.71826454872E+02  0.24612720887E+03  0.28159106520E+03  0.76106220089E+02 0.  0.
          5    1    5    5  501    0 -0.14566064436E+03  0.22654075024E+03  0.81086450232E+03  0.85443610993E+03  0.47000000000E+01 0. -1.
        -11    1    6    6    0    0  0.75488089584E+01  0.31759765136E+01 -0.59643918597E+00  0.82113995889E+01  0.00000000000E+00 0.  1.
         12    1    6    6    0    0 -0.95660832514E+02  0.68650478359E+02  0.24672364806E+03  0.27337966561E+03  0.00000000000E+00 0. -1.
         -5    1    3    3    0  503  0.16254101735E+03 -0.12334978111E+03  0.78428568827E+02  0.21865013430E+03  0.47000000000E+01 0.  1.
         13    1    4    4    0    0  0.81592089046E+02 -0.11044199579E+03 -0.13156963408E+00  0.13731249302E+03  0.00000000000E+00 0. -1.
        -14    1    4    4    0    0 -0.10360438482E+02 -0.64575428209E+02 -0.18756506698E+02  0.68037718638E+02  0.00000000000E+00 0.  1.
</event>
<event>
12    1  0.1066489E+000  0.1877733E+03  0.7818608E-02  0.1160656E+00
         21   -1    0    0  503  502  0.00000000000E+00  0.00000000000E+00  0.60625760032E+03  0.60625760032E+03  0.00000000000E+00 0. -1.
         21   -1    0    0  501  503 -0.00000000000E+00 -0.00000000000E+00 -0.59408402731E+02  0.59408402731E+02  0.00000000000E+00 0. -1.
          6    2    1    2  501    0 -0.93662143535E+01  0.74972966396E+02  0.32650713100E+03  0.37665063803E+03  0.17190149757E+03 0.  0.
         24    2    3    3    0    0  0.41659930182E+02  0.76104177132E+02  0.29067928701E+03  0.31411527628E+03  0.81526457882E+02 0.  0.
         -6    2    1    2    0  502  0.93662143535E+01 -0.74972966396E+02  0.22034206659E+03  0.28901536503E+03  0.17108647887E+03 0.  0.
        -24    2    5    5    0    0 -0.28015347081E+02 -0.30071638971E+02  0.21230665278E+03  0.22985314554E+03  0.77905009820E+02 0.  0.
          5    1    3    3  501    0 -0.51026144535E+02 -0.11312107365E+01  0.35827843995E+02  0.62535361750E+02  0.47000000000E+01 0. -1.
        -11    1    4    4    0    0 -0.20500230489E+02  0.13051560020E+02  0.28856680442E+02  0.37726789887E+02  0.00000000000E+00 0.  1.
         12    1    4    4    0    0  0.62160160671E+02  0.63052617112E+02  0.26182260657E+03  0.27638848639E+03  0.00000000000E+00 0. -1.
         -5    1    5    5    0  502  0.37381561434E+02 -0.44901327425E+02  0.80354138040E+01  0.59162219488E+02  0.47000000000E+01 0.  1.
         11    1    6    6    0    0 -0.97709881310E-01  0.54660303174E+01 -0.52934777195E+01  0.76097267374E+01  0.00000000000E+00 0. -1.
        -12    1    6    6    0    0 -0.27917637200E+02 -0.35537669289E+02  0.21760013050E+03  0.22224341880E+03  0.00000000000E+00 0.  1.
</event>
<event>
12    1  0.1066489E+000  0.3615836E+03  0.7818608E-02  0.1058024E+00
         21   -1    0    0  503  502  0.00000000000E+00  0.00000000000E+00  0.47111044398E+03  0.47111044398E+03  0.00000000000E+00 0.  1.
         21   -1    0    0  501  503 -0.00000000000E+00 -0.00000000000E+00 -0.34997134066E+03  0.34997134066E+03  0.00000000000E+00 0. -1.
          6    2    1    2  501    0  0.13121655932E+03  0.28943181764E+03 -0.12684003002E+03  0.38318544616E+03  0.17249385622E+03 0.  0.
         24    2    3    3    0    0  0.13948631225E+03  0.16499822614E+03 -0.47179872324E+02  0.23513161058E+03  0.79875453099E+02 0.  0.
         -6    2    1    2    0  502 -0.13121655932E+03 -0.28943181764E+03  0.24797913334E+03  0.43789633848E+03  0.17108766811E+03 0.  0.
        -24    2    5    5    0    0 -0.18561678719E+02 -0.19189304639E+03  0.11181369655E+03  0.23598534275E+03  0.77584161315E+02 0.  0.
          5    1    3    3  501    0 -0.82697529275E+01  0.12443359150E+03 -0.79660157692E+02  0.14805383558E+03  0.47000000000E+01 0. -1.
        -11    1    4    4    0    0  0.42019152256E+02  0.10327489567E+03 -0.28250547815E+01  0.11153158372E+03  0.00000000000E+00 0.  1.
         12    1    4    4    0    0  0.97467159989E+02  0.61723330468E+02 -0.44354817543E+02  0.12360002686E+03  0.00000000000E+00 0. -1.
         -5    1    5    5    0  502 -0.11265488060E+03 -0.97538771250E+02  0.13616543679E+03  0.20191099573E+03  0.47000000000E+01 0.  1.
         13    1    6    6    0    0 -0.39550154059E+02 -0.15772909004E+03  0.67059222256E+02  0.17589661685E+03  0.00000000000E+00 0. -1.
        -14    1    6    6    0    0  0.20988475340E+02 -0.34163956353E+02  0.44754474296E+02  0.60088725900E+02  0.00000000000E+00 0.  1.
</event>
<event>
12    1  0.1066489E+000  0.2316837E+03  0.7818608E-02  0.1128003E+00
         21   -1    0    0  503  502  0.00000000000E+00  0.00000000000E+00  0.83052842885E+03  0.83052842885E+03  0.00000000000E+00 0.  1.
         21   -1    0    0  501  503 -0.00000000000E+00 -0.00000000000E+00 -0.61534308793E+02  0.61534308793E+02  0.00000000000E+00 0.  1.
          6    2    1    2  501    0  0.86434594629E+02  0.10054486525E+03  0.34624948736E+03  0.41661255996E+03  0.18999239074E+03 0.  0.
         24    2    3    3    0    0  0.40266351991E+02  0.14298039034E+03  0.24108530557E+03  0.29408143922E+03  0.79353621265E+02 0.  0.
         -6    2    1    2    0  502 -0.86434594629E+02 -0.10054486525E+03  0.42274463270E+03  0.47545017768E+03  0.17250981975E+03 0.  0.
        -24    2    5    5    0    0 -0.11232005984E+03 -0.52552223720E+02  0.21426993689E+03  0.25991099391E+03  0.79149143007E+02 0.  0.
          5    1    3    3  501    0  0.46168242638E+02 -0.42435525089E+02  0.10516418178E+03  0.12253112073E+03  0.47000000000E+01 0. -1.
        -13    1    4    4    0    0  0.45482073896E+02  0.45456031332E+02  0.58093486804E+02  0.86658658190E+02  0.00000000000E+00 0.  1.
         14    1    4    4    0    0 -0.52157219050E+01  0.97524359006E+02  0.18299181877E+03  0.20742278103E+03  0.00000000000E+00 0. -1.
         -5    1    5    5    0  502  0.25885465216E+02 -0.47992641529E+02  0.20847469581E+03  0.21553918377E+03  0.47000000000E+01 0.  1.
         13    1    6    6    0    0 -0.10866597264E+03 -0.68758495794E+02  0.20115350205E+03  0.23874412190E+03  0.00000000000E+00 0. -1.
        -14    1    6    6    0    0 -0.36540872006E+01  0.16206272073E+02  0.13116434840E+02  0.21166872010E+02  0.00000000000E+00 0.  1.
</event>
<event>
12    1  0.1066489E+000  0.3849497E+03  0.7818608E-02  0.1049140E+00
         21   -1    0    0  503  502  0.00000000000E+00  0.00000000000E+00  0.30203034374E+03  0.30203034374E+03  0.00000000000E+00 0.  1.
         21   -1    0    0  501  503 -0.00000000000E+00 -0.00000000000E+00 -0.49120329853E+03  0.49120329853E+03  0.00000000000E+00 0.  1.
          6    2    1    2  501    0  0.25023406235E+03 -0.23655768059E+03 -0.77972019533E+02  0.39276703404E+03  0.17207464949E+03 0.  0.
         24    2    3    3    0    0  0.16508245684E+03 -0.79662965992E+02 -0.72139179380E+02  0.21409734043E+03  0.83876124576E+02 0.  0.
         -6    2    1    2    0  502 -0.25023406235E+03  0.23655768059E+03 -0.11120093526E+03  0.40046660822E+03  0.17155533829E+03 0.  0.
        -24    2    5    5    0    0 -0.25854435433E+03  0.20256930180E+03 -0.11721364046E+03  0.36465441101E+03  0.10655654260E+03 0.  0.
          5    1    3    3  501    0  0.85151605511E+02 -0.15689471460E+03 -0.58328401531E+01  0.17866969361E+03  0.47000000000E+01 0. -1.
        -11    1    4    4    0    0  0.11042962867E+03 -0.93865456828E+02 -0.55918018316E+02  0.15534558779E+03  0.00000000000E+00 0.  1.
         12    1    4    4    0    0  0.54652828163E+02  0.14202490837E+02 -0.16221161064E+02  0.58751752641E+02  0.00000000000E+00 0. -1.
         -5    1    5    5    0  502  0.83102919826E+01  0.33988378787E+02  0.60127051995E+01  0.35812197213E+02  0.47000000000E+01 0.  1.
         11    1    6    6    0    0 -0.58884969493E+02  0.10939233603E+03 -0.30894353999E+02  0.12801790470E+03  0.00000000000E+00 0. -1.
        -12    1    6    6    0    0 -0.19965938484E+03  0.93176965771E+02 -0.86319286460E+02  0.23663650631E+03  0.00000000000E+00 0.  1.
</event>
<event>
12    1  0.1066489E+000  0.2072120E+03  0.7818608E-02  0.1144508E+00
         21   -1    0    0  503  502  0.00000000000E+00  0.00000000000E+00  0.15709115539E+04  0.15709115539E+04  0.00000000000E+00 0. -1.
         21   -1    0    0  501  503 -0.00000000000E+00 -0.00000000000E+00 -0.31000526845E+02  0.31000526845E+02  0.00000000000E+00 0. -1.
          6    2    1    2  501    0  0.11238923423E+03 -0.11417547254E+02  0.10565844261E+04  0.10760400382E+04  0.16949871397E+03 0.  0.
         24    2    3    3    0    0  0.10253759009E+03  0.35765294855E+02  0.94361518645E+03  0.95312781512E+03  0.79056297403E+02 0.  0.
         -6    2    1    2    0  502 -0.11238923423E+03  0.11417547254E+02  0.48332660099E+03  0.52587204255E+03  0.17370981998E+03 0.  0.
        -24    2    5    5    0    0 -0.71102134483E+02  0.49882445268E+02  0.43750113427E+03  0.45302812459E+03  0.79268324710E+02 0.  0.
          5    1    3    3  501    0  0.98516441375E+01 -0.47182842109E+02  0.11296923962E+03  0.12291222307E+03  0.47000000000E+01 0. -1.
        -11    1    4    4    0    0  0.11051975413E+03  0.16381179845E+02  0.73210673296E+03  0.74058303218E+03  0.00000000000E+00 0.  1.
         12    1    4    4    0    0 -0.79821640434E+01  0.19384115010E+02  0.21150845349E+03  0.21254478294E+03  0.00000000000E+00 0. -1.
         -5    1    5    5    0  502 -0.41287099745E+02 -0.38464898014E+02  0.45825466718E+02  0.72843917965E+02  0.47000000000E+01 0.  1.
         13    1    6    6    0    0  0.80715876236E+01  0.10979787584E+02  0.18611534320E+03  0.18661357731E+03  0.00000000000E+00 0. -1.
        -14    1    6    6    0    0 -0.79173722106E+02  0.38902657684E+02  0.25138579108E+03  0.26641454728E+03  0.00000000000E+00 0.  1.
</event>
<event>
12    1  0.1066489E+000  0.1781102E+03  0.7818608E-02  0.1169714E+00
         21   -1    0    0  501  502  0.00000000000E+00  0.00000000000E+00  0.22121255379E+03  0.22121255379E+03  0.00000000000E+00 0. -1.
         21   -1    0    0  502  503 -0.00000000000E+00 -0.00000000000E+00 -0.14329797703E+03  0.14329797703E+03  0.00000000000E+00 0. -1.
         -6    2    1    2    0  503  0.17635349569E+02  0.42361631481E+02  0.33646855346E+02  0.18098159969E+03  0.17180429324E+03 0.  0.
        -24    2    3    3    0    0 -0.43960473623E+02 -0.14307427100E+02  0.79168889562E+01  0.93291527240E+02  0.80643699150E+02 0.  0.
          6    2    1    2  501    0 -0.17635349569E+02 -0.42361631481E+02  0.44267721410E+02  0.18352893114E+03  0.17209800705E+03 0.  0.
         24    2    5    5    0    0 -0.77596959322E+02 -0.44805651122E+02  0.12811789801E+02  0.11561035113E+03  0.71922019321E+02 0.  0.
          5    1    5    5  501    0  0.59961609752E+02  0.24440196409E+01  0.31455931609E+02  0.67918580002E+02  0.47000000000E+01 0. -1.
        -13    1    6    6    0    0 -0.33193180673E+02 -0.11163838004E+02  0.40382452899E+02  0.53452418320E+02  0.00000000000E+00 0.  1.
         14    1    6    6    0    0 -0.44403778649E+02 -0.33641813118E+02 -0.27570663098E+02  0.62157932814E+02  0.00000000000E+00 0. -1.
         -5    1    3    3    0  503  0.61595823192E+02  0.56669058581E+02  0.25729966390E+02  0.87690072446E+02  0.47000000000E+01 0.  1.
         13    1    4    4    0    0  0.13729314736E+02 -0.20901164958E+02  0.22261794933E+02  0.33480446433E+02  0.00000000000E+00 0. -1.
        -14    1    4    4    0    0 -0.57689788359E+02  0.65937378576E+01 -0.14344905976E+02  0.59811080807E+02  0.00000000000E+00 0.  1.
</event>
<event>
12    1  0.1066489E+000  0.5421958E+03  0.7818608E-02  0.1003351E+00
         21   -1    0    0  503  502  0.00000000000E+00  0.00000000000E+00  0.45382099880E+03  0.45382099880E+03  0.00000000000E+00 0.  1.
         21   -1    0    0  501  503 -0.00000000000E+00 -0.00000000000E+00 -0.66914368146E+03  0.66914368146E+03  0.00000000000E+00 0.  1.
          6    2    1    2  501    0  0.49919867846E+03 -0.12239538933E+03 -0.20968715130E+03  0.58133034953E+03  0.17261611153E+03 0.  0.
         24    2    3    3    0    0  0.13063308243E+03 -0.43300683071E+02 -0.96982447307E+02  0.18785733719E+03  0.83335662669E+02 0.  0.
         -6    2    1    2    0  502 -0.49919867846E+03  0.12239538933E+03 -0.56355313538E+01  0.54163433073E+03  0.17075138976E+03 0.  0.
        -24    2    5    5    0    0 -0.47356419882E+03  0.15040253139E+03 -0.91958195760E+01  0.50321178260E+03  0.79079473914E+02 0.  0.
          5    1    3    3  501    0  0.36856559603E+03 -0.79094706256E+02 -0.11270470399E+03  0.39347301234E+03  0.47000000000E+01 0. -1.
        -13    1    4    4    0    0  0.34577132320E+02 -0.49240247634E+02 -0.16470750881E+02  0.62381613486E+02  0.00000000000E+00 0.  1.
         14    1    4    4    0    0  0.96055950110E+02  0.59395645626E+01 -0.80511696426E+02  0.12547572371E+03  0.00000000000E+00 0. -1.
         -5    1    5    5    0  502 -0.25634479636E+02 -0.28007142058E+02  0.35602882221E+01  0.38422548129E+02  0.47000000000E+01 0.  1.
         13    1    6    6    0    0 -0.29705510474E+03  0.80763662123E+02  0.30527810596E+02  0.30934843072E+03  0.00000000000E+00 0. -1.
        -14    1    6    6    0    0 -0.17650909409E+03  0.69638869262E+02 -0.39723630172E+02  0.19386335188E+03  0.00000000000E+00 0.  1.
</event>
<event>
12    1  0.1066489E+000  0.2893561E+03  0.7818608E-02  0.1090795E+00
         21   -1    0    0  501  502  0.00000000000E+00  0.00000000000E+00  0.10598907586E+03  0.10598907586E+03  0.00000000000E+00 0.  1.
         21   -1    0    0  502  503 -0.00000000000E+00 -0.00000000000E+00 -0.80608729162E+03  0.80608729162E+03  0.00000000000E+00 0.  1.
         -6    2    1    2    0  503  0.21986543490E+03 -0.76927310965E+02 -0.28066553225E+03  0.40251699896E+03  0.17025913433E+03 0.  0.
        -24    2    3    3    0    0  0.15849330641E+03 -0.11539993194E+03 -0.24367630064E+03  0.32104937364E+03  0.72507160696E+02 0.  0.
          6    2    1    2  501    0 -0.21986543490E+03  0.76927310965E+02 -0.41943268352E+03  0.50955936852E+03  0.17166348885E+03 0.  0.
         24    2    5    5    0    0 -0.17378549884E+03  0.11340793767E+03 -0.27163950472E+03  0.35043956984E+03  0.77182327314E+02 0.  0.
          5    1    5    5  501    0 -0.46079936060E+02 -0.36480626709E+02 -0.14779317881E+03  0.15911979869E+03  0.47000000000E+01 0. -1.
        -11    1    6    6    0    0 -0.34987754536E+02  0.81385277179E+01 -0.98435565312E+02  0.10478520468E+03  0.00000000000E+00 0.  1.
         12    1    6    6    0    0 -0.13879774431E+03  0.10526940996E+03 -0.17320393941E+03  0.24565436516E+03  0.00000000000E+00 0. -1.
         -5    1    3    3    0  503  0.61372128490E+02  0.38472620974E+02 -0.36989231606E+02  0.81467625317E+02  0.47000000000E+01 0.  1.
         13    1    4    4    0    0  0.79158323840E+02 -0.14227788920E+02 -0.96730129071E+02  0.12579820381E+03  0.00000000000E+00 0. -1.
        -14    1    4    4    0    0  0.79334982571E+02 -0.10117214302E+03 -0.14694617157E+03  0.19525116983E+03  0.00000000000E+00 0.  1.
</event>
<event>
12    1  0.1066489E+000  0.1782908E+03  0.7818608E-02  0.1169852E+00
         21   -1    0    0  503  502  0.00000000000E+00  0.00000000000E+00  0.84295515047E+02  0.84295515047E+02  0.00000000000E+00 0.  1.
         21   -1    0    0  501  503 -0.00000000000E+00 -0.00000000000E+00 -0.44246773638E+03  0.44246773638E+03  0.00000000000E+00 0.  1.
          6    2    1    2  501    0 -0.97035397300E+01 -0.41772875260E+02 -0.75993980925E+02  0.19381093946E+03  0.17305624324E+03 0.  0.
         24    2    3    3    0    0 -0.37167129760E+02 -0.47343267424E+02  0.13695204155E+02  0.99728433290E+02  0.78328930062E+02 0.  0.
         -6    2    1    2    0  502  0.97035397300E+01  0.41772875260E+02 -0.28217824041E+03  0.33295231197E+03  0.17144547499E+03 0.  0.
        -24    2    5    5    0    0 -0.53294629023E+02  0.17786312273E+01 -0.19808939168E+03  0.22042972178E+03  0.80662098521E+02 0.  0.
          5    1    3    3  501    0  0.27463590030E+02  0.55703921641E+01 -0.89689185079E+02  0.94082506166E+02  0.47000000000E+01 0. -1.
        -11    1    4    4    0    0  0.23168194796E+02 -0.20509557688E+01  0.49490433996E+01  0.23779501682E+02  0.00000000000E+00 0.  1.
         12    1    4    4    0    0 -0.60335324557E+02 -0.45292311655E+02  0.87461607549E+01  0.75948931608E+02  0.00000000000E+00 0. -1.
         -5    1    5    5    0  502  0.62998168753E+02  0.39994244032E+02 -0.84088848732E+02  0.11252259019E+03  0.47000000000E+01 0.  1.
         13    1    6    6    0    0 -0.50953629093E+02 -0.30811726021E+02 -0.15713085375E+03  0.16803493678E+03  0.00000000000E+00 0. -1.
        -14    1    6    6    0    0 -0.23409999296E+01  0.32590357249E+02 -0.40958537927E+02  0.52394785002E+02  0.00000000000E+00 0.  1.
</event>
<event>
12    1  0.1066489E+000  0.2933869E+03  0.7818608E-02  0.1088621E+00
         21   -1    0    0  503  502  0.00000000000E+00  0.00000000000E+00  0.49099564096E+03  0.49099564096E+03  0.00000000000E+00 0. -1.
         21   -1    0    0  501  503 -0.00000000000E+00 -0.00000000000E+00 -0.22003190231E+03  0.22003190231E+03  0.00000000000E+00 0. -1.
          6    2    1    2  501    0  0.20561084014E+03  0.11887359832E+03 -0.25064338484E+02  0.29424402062E+03  0.17188534738E+03 0.  0.
         24    2    3    3    0    0  0.17457533701E+03  0.28549183946E+02  0.49946311662E+01  0.19400763030E+03  0.79513584234E+02 0.  0.
         -6    2    1    2    0  502 -0.20561084014E+03 -0.11887359832E+03  0.29602807714E+03  0.41678352265E+03  0.17224729994E+03 0.  0.
        -24    2    5    5    0    0 -0.97031448038E+02 -0.29947928030E+02  0.57160522040E+02  0.13969678875E+03  0.77044709127E+02 0.  0.
          5    1    3    3  501    0  0.31035503129E+02  0.90324414377E+02 -0.30058969650E+02  0.10023639032E+03  0.47000000000E+01 0. -1.
        -13    1    4    4    0    0  0.12955814711E+03  0.52466079850E+02  0.19195846205E+02  0.14109033818E+03  0.00000000000E+00 0.  1.
         14    1    4    4    0    0  0.45017189901E+02 -0.23916895904E+02 -0.14201215039E+02  0.52917292116E+02  0.00000000000E+00 0. -1.
         -5    1    5    5    0  502 -0.10857939210E+03 -0.88925670293E+02  0.23886755510E+03  0.27708673390E+03  0.47000000000E+01 0.  1.
         13    1    6    6    0    0 -0.23460243149E+01  0.18927928275E+02  0.17844636098E+02  0.26118984213E+02  0.00000000000E+00 0. -1.
        -14    1    6    6    0    0 -0.94685423723E+02 -0.48875856305E+02  0.39315885942E+02  0.11357780453E+03  0.00000000000E+00 0.  1.
</event>
<event>
12    1  0.1066489E+000  0.1895277E+03  0.7818608E-02  0.1159157E+00
         21   -1    0    0  503  502  0.00000000000E+00  0.00000000000E+00  0.14698364766E+03  0.14698364766E+03  0.00000000000E+00 0. -1.
         21   -1    0    0  501  503 -0.00000000000E+00 -0.00000000000E+00 -0.27713406343E+03  0.27713406343E+03  0.00000000000E+00 0. -1.
          6    2    1    2  501    0  0.63993813112E+02  0.52551909278E+02  0.93223284855E+01  0.18975687966E+03  0.17048124907E+03 0.  0.
         24    2    3    3    0    0 -0.20283104682E+02 -0.12594483022E+01 -0.23605526113E+02  0.84378538975E+02  0.78418916282E+02 0.  0.
         -6    2    1    2    0  502 -0.63993813112E+02 -0.52551909278E+02 -0.13947274426E+03  0.23436083143E+03  0.16916099323E+03 0.  0.
        -24    2    5    5    0    0 -0.35442319698E+02 -0.96750365755E+02 -0.72813693670E+02  0.14930667011E+03  0.79836435634E+02 0.  0.
          5    1    3    3  501    0  0.84276917794E+02  0.53811357580E+02  0.32927854599E+02  0.10537834069E+03  0.47000000000E+01 0. -1.
        -13    1    4    4    0    0  0.30244345336E+02  0.11253922105E+00 -0.11852267781E+02  0.32483985923E+02  0.00000000000E+00 0.  1.
         14    1    4    4    0    0 -0.50527450018E+02 -0.13719875232E+01 -0.11753258332E+02  0.51894553052E+02  0.00000000000E+00 0. -1.
         -5    1    5    5    0  502 -0.28551493414E+02  0.44198456477E+02 -0.66659050592E+02  0.85054161314E+02  0.47000000000E+01 0.  1.
         13    1    6    6    0    0 -0.55494072822E+01 -0.91370556058E+02 -0.75716023699E+02  0.11879516270E+03  0.00000000000E+00 0. -1.
        -14    1    6    6    0    0 -0.29892912416E+02 -0.53798096966E+01  0.29023300292E+01  0.30511507414E+02  0.00000000000E+00 0.  1.
</event>
<event>
12    1  0.1066489E+000  0.1992464E+03  0.7818608E-02  0.1150528E+00
         21   -1    0    0  501  502  0.00000000000E+00  0.00000000000E+00  0.11590473915E+03  0.11590473915E+03  0.00000000000E+00 0. -1.
         21   -1    0    0  502  503 -0.00000000000E+00 -0.00000000000E+00 -0.34187923250E+03  0.34187923250E+03  0.00000000000E+00 0. -1.
         -6    2    1    2    0  503  0.15964602508E+02 -0.98141746836E+02 -0.12227860597E+03  0.23316885595E+03  0.17184000379E+03 0.  0.
        -24    2    3    3    0    0  0.26841731633E+02  0.12714338740E+02 -0.60642392050E+02  0.10577773964E+03  0.81420498179E+02 0.  0.
          6    2    1    2  501    0 -0.15964602508E+02  0.98141746836E+02 -0.10369588739E+03  0.22461511571E+03  0.17266279894E+03 0.  0.
         24    2    5    5    0    0  0.18231107148E+02  0.83807067517E+02 -0.13236696978E+03  0.17750937768E+03  0.81440571227E+02 0.  0.
          5    1    5    5  501    0 -0.34195709656E+02  0.14334679319E+02  0.28671082389E+02  0.47105738031E+02  0.47000000000E+01 0. -1.
        -11    1    6    6    0    0  0.38960810557E+02  0.81864295589E+02 -0.79101826620E+02  0.12031960200E+03  0.00000000000E+00 0.  1.
         12    1    6    6    0    0 -0.20729703408E+02  0.19427719281E+01 -0.53265143156E+02  0.57189775673E+02  0.00000000000E+00 0. -1.
         -5    1    3    3    0  503 -0.10877129126E+02 -0.11085608558E+03 -0.61636213916E+02  0.12739111630E+03  0.47000000000E+01 0.  1.
         11    1    4    4    0    0  0.23276042846E+02  0.27867629139E+02  0.64718438535E+01  0.36881752768E+02  0.00000000000E+00 0. -1.
        -12    1    4    4    0    0  0.35656887878E+01 -0.15153290400E+02 -0.67114235904E+02  0.68895986875E+02  0.00000000000E+00 0.  1.
</event>
<event>
12    1  0.1066489E+000  0.4393452E+03  0.7818608E-02  0.1030961E+00
         21   -1    0    0  501  502  0.00000000000E+00  0.00000000000E+00  0.12723728714E+03  0.12723728714E+03  0.00000000000E+00 0. -1.
         21   -1    0    0  502  503 -0.00000000000E+00 -0.00000000000E+00 -0.26581355859E+04  0.26581355859E+04  0.00000000000E+00 0. -1.
         -6    2    1    2    0  503 -0.26663574204E+03  0.30332409690E+03 -0.21780318039E+04  0.22218668990E+04  0.17253941930E+03 0.  0.
        -24    2    3    3    0    0 -0.25084478962E+03  0.24527675019E+03 -0.15635800488E+04  0.16044594987E+04  0.80149367305E+02 0.  0.
          6    2    1    2  501    0  0.26663574204E+03 -0.30332409690E+03 -0.35286649486E+03  0.56350597408E+03  0.17298581716E+03 0.  0.
         24    2    5    5    0    0  0.15893997795E+03 -0.18131666727E+03 -0.29838531486E+03  0.39182464294E+03  0.79718907867E+02 0.  0.
          5    1    5    5  501    0  0.10769576409E+03 -0.12200742963E+03 -0.54481179999E+02  0.17168133114E+03  0.47000000000E+01 0. -1.
        -11    1    6    6    0    0  0.10128937727E+03 -0.15511237328E+03 -0.18414438822E+03  0.26120593792E+03  0.00000000000E+00 0.  1.
         12    1    6    6    0    0  0.57650600675E+02 -0.26204293995E+02 -0.11424092664E+03  0.13061870502E+03  0.00000000000E+00 0. -1.
         -5    1    3    3    0  503 -0.15790952420E+02  0.58047346713E+02 -0.61445175512E+03  0.61740740035E+03  0.47000000000E+01 0.  1.
         13    1    4    4    0    0 -0.48221896469E+02  0.83300200395E+02 -0.32240523848E+03  0.33646606438E+03  0.00000000000E+00 0. -1.
        -14    1    4    4    0    0 -0.20262289315E+03  0.16197654979E+03 -0.12411748104E+04  0.12679934343E+04  0.00000000000E+00 0.  1.
</event>
<event>
12    1  0.1066489E+000  0.1916002E+03  0.7818608E-02  0.1157406E+00
         21   -1    0    0  503  502  0.00000000000E+00  0.00000000000E+00  0.24626671979E+03  0.24626671979E+03  0.00000000000E+00 0. -1.
         21   -1    0    0  501  503 -0.00000000000E+00 -0.00000000000E+00 -0.15142005667E+03  0.15142005667E+03  0.00000000000E+00 0. -1.
          6    2    1    2  501    0  0.28930280976E+02  0.79283246324E+02  0.78573263424E+02  0.20708545307E+03  0.17201114162E+03 0.  0.
         24    2    3    3    0    0  0.37985293835E+02  0.53507607777E+02 -0.20235196276E+02  0.10446197374E+03  0.78720354118E+02 0.  0.
         -6    2    1    2    0  502 -0.28930280976E+02 -0.79283246324E+02  0.16273399695E+02  0.19060132340E+03  0.17012127039E+03 0.  0.
        -24    2    5    5    0    0  0.36384183670E+01 -0.10913448057E+03  0.38048141257E+02  0.14112359373E+03  0.80898916661E+02 0.  0.
          5    1    3    3  501    0 -0.90550128590E+01  0.25775638547E+02  0.98808459701E+02  0.10262347933E+03  0.47000000000E+01 0. -1.
        -13    1    4    4    0    0 -0.98019503411E+01  0.38238963813E+02  0.15981794626E+02  0.42587725268E+02  0.00000000000E+00 0.  1.
         14    1    4    4    0    0  0.47787244176E+02  0.15268643964E+02 -0.36216990903E+02  0.61874248476E+02  0.00000000000E+00 0. -1.
         -5    1    5    5    0  502 -0.32568699343E+02  0.29851234244E+02 -0.21774741562E+02  0.49477729666E+02  0.47000000000E+01 0.  1.
         11    1    6    6    0    0  0.12730814974E+02  0.99046931374E+01  0.11733265439E+01  0.16172609289E+02  0.00000000000E+00 0. -1.
        -12    1    6    6    0    0 -0.90923966067E+01 -0.11903917371E+03  0.36874814714E+02  0.12495098444E+03  0.00000000000E+00 0.  1.
</event>
<event>
12    1  0.1066489E+000  0.1857692E+03  0.7818608E-02  0.1162567E+00
         21   -1    0    0  503  502  0.00000000000E+00  0.00000000000E+00  0.60510343338E+03  0.60510343338E+03  0.00000000000E+00 0.  1.
         21   -1    0    0  501  503 -0.00000000000E+00 -0.00000000000E+00 -0.14465830426E+03  0.14465830426E+03  0.00000000000E+00 0.  1.
          6    2    1    2  501    0  0.21891653772E+02  0.65778436948E+02 -0.61813150625E+02  0.19578319525E+03  0.17234890972E+03 0.  0.
         24    2    3    3    0    0 -0.11449906858E+02  0.71048877055E+02 -0.98475154409E+02  0.14572692966E+03  0.79749223782E+02 0.  0.
         -6    2    1    2    0  502 -0.21891653772E+02 -0.65778436948E+02  0.52225827975E+03  0.55397854239E+03  0.17126723970E+03 0.  0.
        -24    2    5    5    0    0  0.28176268707E+02 -0.66320785773E+02  0.46445824222E+03  0.47736245177E+03  0.83433223913E+02 0.  0.
          5    1    3    3  501    0  0.33341560629E+02 -0.52704401070E+01  0.36662003784E+02  0.50056265597E+02  0.47000000000E+01 0. -1.
        -13    1    4    4    0    0 -0.31696239444E+02  0.65552098906E+02 -0.38872127810E+02  0.82539515302E+02  0.00000000000E+00 0.  1.
         14    1    4    4    0    0  0.20246332586E+02  0.54967781485E+01 -0.59603026599E+02  0.63187414356E+02  0.00000000000E+00 0. -1.
         -5    1    5    5    0  502 -0.50067922479E+02  0.54234882498E+00  0.57800037523E+02  0.76616090616E+02  0.47000000000E+01 0.  1.
         11    1    6    6    0    0 -0.19448435380E+02 -0.57758706277E+02  0.28885604785E+03  0.29521538945E+03  0.00000000000E+00 0. -1.
        -12    1    6    6    0    0  0.47624704087E+02 -0.85620794954E+01  0.17560219438E+03  0.18214706233E+03  0.00000000000E+00 0.  1.
</event>
<event>
12    1  0.1066489E+000  0.1764677E+03  0.7818608E-02  0.1171847E+00
         21   -1    0    0  503  502  0.00000000000E+00  0.00000000000E+00  0.48412204112E+03  0.48412204112E+03  0.00000000000E+00 0.  1.
         21   -1    0    0  501  503 -0.00000000000E+00 -0.00000000000E+00 -0.63563254028E+02  0.63563254028E+02  0.00000000000E+00 0.  1.
          6    2    1    2  501    0  0.21456350408E+02 -0.34259843249E+01  0.21880891512E+03  0.27964822594E+03  0.17278216514E+03 0.  0.
         24    2    3    3    0    0  0.73016969719E+02 -0.31933339272E+02  0.12314099374E+03  0.16719553397E+03  0.80246035513E+02 0.  0.
         -6    2    1    2    0  502 -0.21456350408E+02  0.34259843249E+01  0.20174987197E+03  0.26803706921E+03  0.17512494765E+03 0.  0.
        -24    2    5    5    0    0 -0.41596134737E+02 -0.40271282105E+02  0.19149717720E+03  0.21861774347E+03  0.88150634142E+02 0.  0.
          5    1    3    3  501    0 -0.51560619310E+02  0.28507354947E+02  0.95667921385E+02  0.11245269197E+03  0.47000000000E+01 0. -1.
        -11    1    4    4    0    0  0.38601855306E+02 -0.48554172009E+02  0.11089296122E+03  0.12706242442E+03  0.00000000000E+00 0.  1.
         12    1    4    4    0    0  0.34415114412E+02  0.16620832737E+02  0.12248032518E+02  0.40133109541E+02  0.00000000000E+00 0. -1.
         -5    1    5    5    0  502  0.20139784329E+02  0.43697266430E+02  0.10252694775E+02  0.49419325738E+02  0.47000000000E+01 0.  1.
         11    1    6    6    0    0 -0.51485300655E+02  0.11517715107E+01  0.15217649051E+03  0.16065412234E+03  0.00000000000E+00 0. -1.
        -12    1    6    6    0    0  0.98891659179E+01 -0.41423053616E+02  0.39320686691E+02  0.57963621136E+02  0.00000000000E+00 0.  1.
</event>
<event>
12    1  0.1066489E+000  0.1971617E+03  0.7818608E-02  0.1152243E+00
         21   -1    0    0  503  502  0.00000000000E+00  0.00000000000E+00  0.10339846745E+03  0.10339846745E+03  0.00000000000E+00 0.  1.
         21   -1    0    0  501  503 -0.00000000000E+00 -0.00000000000E+00 -0.39359698344E+03  0.39359698344E+03  0.00000000000E+00 0.  1.
          6    2    1    2  501    0  0.95681961868E+02  0.23405346088E+02 -0.91206255023E+02  0.21686929213E+03  0.17032574926E+03 0.  0.
         24    2    3    3    0    0  0.66531115783E+02  0.81701665722E+02 -0.56641381208E+02  0.14294329391E+03  0.78249521794E+02 0.  0.
         -6    2    1    2    0  502 -0.95681961868E+02 -0.23405346088E+02 -0.19899226096E+03  0.28012615876E+03  0.17079196951E+03 0.  0.
        -24    2    5    5    0    0 -0.11603826605E+03 -0.52638600316E+02 -0.13184623673E+03  0.20397078573E+03  0.89358546641E+02 0.  0.
          5    1    3    3  501    0  0.29150846085E+02 -0.58296319634E+02 -0.34564873815E+02  0.73925998216E+02  0.47000000000E+01 0. -1.
        -11    1    4    4    0    0  0.31415794211E+02 -0.38412898348E+01 -0.36489319420E+02  0.48302981950E+02  0.00000000000E+00 0.  1.
         12    1    4    4    0    0  0.35115321572E+02  0.85542955557E+02 -0.20152061788E+02  0.94640311965E+02  0.00000000000E+00 0. -1.
         -5    1    5    5    0  502  0.20356304182E+02  0.29233254228E+02 -0.67146024225E+02  0.76155373034E+02  0.47000000000E+01 0.  1.
         13    1    6    6    0    0 -0.12276995175E+03 -0.22639838565E+02 -0.10772449051E+03  0.16489265962E+03  0.00000000000E+00 0. -1.
        -14    1    6    6    0    0  0.67316856959E+01 -0.29998761750E+02 -0.24121746228E+02  0.39078126106E+02  0.00000000000E+00 0.  1.
</event>
<event>
12    1  0.1066489E+000  0.1790817E+03  0.7818608E-02  0.1168808E+00
         21   -1    0    0  501  502  0.00000000000E+00  0.00000000000E+00  0.75749069284E+03  0.75749069284E+03  0.00000000000E+00 0.  1.
         21   -1    0    0  502  503 -0.00000000000E+00 -0.00000000000E+00 -0.59136798941E+02  0.59136798941E+02  0.00000000000E+00 0.  1.
         -6    2    1    2    0  503 -0.50237372836E+02  0.37786376946E+01  0.13116536398E+03  0.22197885856E+03  0.17184932124E+03 0.  0.
        -24    2    3    3    0    0 -0.28306134141E+02  0.40729539071E+02  0.14819100992E+03  0.17552123311E+03  0.79918679105E+02 0.  0.
          6    2    1    2  501    0  0.50237372836E+02 -0.37786376946E+01  0.56718852992E+03  0.59464863321E+03  0.17136538968E+03 0.  0.
         24    2    5    5    0    0  0.71655361580E+02 -0.29011483802E+02  0.22107479395E+03  0.24692426681E+03  0.78239197241E+02 0.  0.
          5    1    5    5  501    0 -0.21417988744E+02  0.25232846107E+02  0.34611373597E+03  0.34772436641E+03  0.47000000000E+01 0. -1.
        -11    1    6    6    0    0  0.17220793573E+02 -0.49018652207E+02  0.10121852399E+03  0.11377422201E+03  0.00000000000E+00 0.  1.
         12    1    6    6    0    0  0.54434568007E+02  0.20007168406E+02  0.11985626996E+03  0.13315004480E+03  0.00000000000E+00 0. -1.
         -5    1    3    3    0  503 -0.21931238695E+02 -0.36950901377E+02 -0.17025645937E+02  0.46457625454E+02  0.47000000000E+01 0.  1.
         11    1    4    4    0    0 -0.21674716631E+02  0.93502274017E+00 -0.24930966584E+00  0.21696307609E+02  0.00000000000E+00 0. -1.
        -12    1    4    4    0    0 -0.66314175106E+01  0.39794516331E+02  0.14844031958E+03  0.15382492550E+03  0.00000000000E+00 0.  1.
</event>
<event>
12    1  0.1066489E+000  0.1937127E+03  0.7818608E-02  0.1156044E+00
         21   -1    0    0  501  502  0.00000000000E+00  0.00000000000E+00  0.21691689819E+03  0.21691689819E+03  0.00000000000E+00 0. -1.
         21   -1    0    0  502  503 -0.00000000000E+00 -0.00000000000E+00 -0.18125260498E+03  0.18125260498E+03  0.00000000000E+00 0. -1.
         -6    2    1    2    0  503 -0.82902322549E+02 -0.29912087150E+01  0.68834564448E+02  0.20557922858E+03  0.17505107697E+03 0.  0.
        -24    2    3    3    0    0  0.87446003168E+01  0.38534393652E+02  0.14615926273E+02  0.91188298660E+02  0.80872201546E+02 0.  0.
          6    2    1    2  501    0  0.82902322549E+02  0.29912087150E+01 -0.33170271240E+02  0.19259027459E+03  0.17061361188E+03 0.  0.
         24    2    5    5    0    0  0.10942860938E+03  0.55103535381E+01 -0.59003356008E+02  0.15518134180E+03  0.92708512412E+02 0.  0.
          5    1    5    5  501    0 -0.26526286835E+02 -0.25191448231E+01  0.25833084767E+02  0.37408932790E+02  0.47000000000E+01 0. -1.
        -13    1    6    6    0    0  0.57283657161E+02  0.17606021777E+02  0.16932733680E+02  0.62274447813E+02  0.00000000000E+00 0.  1.
         14    1    6    6    0    0  0.52144952222E+02 -0.12095668239E+02 -0.75936089688E+02  0.92906893982E+02  0.00000000000E+00 0. -1.
         -5    1    3    3    0  503 -0.91646922866E+02 -0.41525602367E+02  0.54218638175E+02  0.11439092992E+03  0.47000000000E+01 0.  1.
         11    1    4    4    0    0  0.27173039136E+02 -0.11669431904E+02 -0.11428572329E+02  0.31704289336E+02  0.00000000000E+00 0. -1.
        -12    1    4    4    0    0 -0.18428438819E+02  0.50203825557E+02  0.26044498602E+02  0.59484009324E+02  0.00000000000E+00 0.  1.
</event>
<event>
12    1  0.1066489E+000  0.2083990E+03  0.7818608E-02  0.1143158E+00
         21   -1    0    0  503  502  0.00000000000E+00  0.00000000000E+00  0.49063186743E+03  0.49063186743E+03  0.00000000000E+00 0.  1.
         21   -1    0    0  501  503 -0.00000000000E+00 -0.00000000000E+00 -0.10045734379E+03  0.10045734379E+03  0.00000000000E+00 0.  1.
          6    2    1    2  501    0 -0.21632769238E+02 -0.11452849187E+03  0.30044154872E+03  0.36564361740E+03  0.17275815060E+03 0.  0.
         24    2    3    3    0    0 -0.10959910561E+02 -0.10555602341E+03  0.10488599873E+03  0.16953528451E+03  0.80491901735E+02 0.  0.
         -6    2    1    2    0  502  0.21632769238E+02  0.11452849187E+03  0.89732974931E+02  0.22544559382E+03  0.17084775921E+03 0.  0.
        -24    2    5    5    0    0  0.64243935625E+00 -0.11574079451E+02  0.32664287362E+02  0.85369266260E+02  0.78016561764E+02 0.  0.
          5    1    3    3  501    0 -0.10672858676E+02 -0.89724684558E+01  0.19555554998E+03  0.19610833290E+03  0.47000000000E+01 0. -1.
        -11    1    4    4    0    0 -0.22875727934E+02 -0.41165940697E+02  0.14545270514E+01  0.47117398601E+02  0.00000000000E+00 0.  1.
         12    1    4    4    0    0  0.11915817372E+02 -0.64390082713E+02  0.10343147168E+03  0.12241788591E+03  0.00000000000E+00 0. -1.
         -5    1    5    5    0  502  0.20990329882E+02  0.12610257132E+03  0.57068687569E+02  0.14007632756E+03  0.47000000000E+01 0.  1.
         11    1    6    6    0    0  0.33284048998E+02  0.11133170857E+02  0.28834098376E+02  0.45422248296E+02  0.00000000000E+00 0. -1.
        -12    1    6    6    0    0 -0.32641609642E+02 -0.22707250308E+02  0.38301889855E+01  0.39947017964E+02  0.00000000000E+00 0.  1.
</event>
<event>
12    1  0.1066489E+000  0.1917562E+03  0.7818608E-02  0.1156973E+00
         21   -1    0    0  503  502  0.00000000000E+00  0.00000000000E+00  0.86123152797E+02  0.86123152797E+02  0.00000000000E+00 0. -1.
         21   -1    0    0  501  503 -0.00000000000E+00 -0.00000000000E+00 -0.46581354352E+03  0.46581354352E+03  0.00000000000E+00 0. -1.
          6    2    1    2  501    0  0.27972291709E+02 -0.79624910693E+02 -0.10908864407E+03  0.22028065242E+03  0.17175755605E+03 0.  0.
         24    2    3    3    0    0 -0.38864183498E+02 -0.67152709376E+02 -0.16171976801E+01  0.93021578040E+02  0.51288278555E+02 0.  0.
         -6    2    1    2    0  502 -0.27972291709E+02  0.79624910693E+02 -0.27060174665E+03  0.33165604389E+03  0.17218551232E+03 0.  0.
        -24    2    5    5    0    0 -0.38425763049E+02 -0.61620931080E+01 -0.20362896826E+03  0.22222054632E+03  0.80016897172E+02 0.  0.
          5    1    3    3  501    0  0.66836475207E+02 -0.12472201317E+02 -0.10747144639E+03  0.12725907438E+03  0.47000000000E+01 0. -1.
        -11    1    4    4    0    0 -0.14040641281E+02  0.62752869270E+01  0.14725940341E+01  0.15449510244E+02  0.00000000000E+00 0.  1.
         12    1    4    4    0    0 -0.24823542218E+02 -0.73427996303E+02 -0.30897917142E+01  0.77572067796E+02  0.00000000000E+00 0. -1.
         -5    1    5    5    0  502  0.10453471341E+02  0.85787003801E+02 -0.66972778388E+02  0.10943549757E+03  0.47000000000E+01 0.  1.
         11    1    6    6    0    0 -0.37825384486E+02  0.32416978477E+02 -0.12713824427E+03  0.13654945391E+03  0.00000000000E+00 0. -1.
        -12    1    6    6    0    0 -0.60037856323E+00 -0.38579071585E+02 -0.76490723987E+02  0.85671092411E+02  0.00000000000E+00 0.  1.
</event>
<event>
12    1  0.1066489E+000  0.3286157E+03  0.7818608E-02  0.1071759E+00
         21   -1    0    0  501  502  0.00000000000E+00  0.00000000000E+00  0.11275284134E+04  0.11275284134E+04  0.00000000000E+00 0. -1.
         21   -1    0    0  502  503 -0.00000000000E+00 -0.00000000000E+00 -0.12140587886E+03  0.12140587886E+03  0.00000000000E+00 0. -1.
         -6    2    1    2    0  503  0.21727939643E+03  0.17721915913E+03  0.79006157412E+03  0.85565243933E+03  0.17125080895E+03 0.  0.
        -24    2    3    3    0    0  0.70164878918E+02  0.14199797737E+03  0.43106752584E+03  0.46606030696E+03  0.79413236180E+02 0.  0.
          6    2    1    2  501    0 -0.21727939643E+03 -0.17721915913E+03  0.21606096044E+03  0.39328185294E+03  0.17138060201E+03 0.  0.
         24    2    5    5    0    0 -0.60633786622E+02 -0.70001469919E+02  0.14703032361E+03  0.19124027609E+03  0.79864042398E+02 0.  0.
          5    1    5    5  501    0 -0.15664560981E+03 -0.10721768921E+03  0.69030636831E+02  0.20204157684E+03  0.47000000000E+01 0. -1.
        -13    1    6    6    0    0 -0.25636955767E+02  0.98325431095E+00  0.90276590545E+02  0.93851388324E+02  0.00000000000E+00 0.  1.
         14    1    6    6    0    0 -0.34996830855E+02 -0.70984724230E+02  0.56753733067E+02  0.97388887770E+02  0.00000000000E+00 0. -1.
         -5    1    3    3    0  503  0.14711451751E+03  0.35221181759E+02  0.35899404828E+03  0.38959213238E+03  0.47000000000E+01 0.  1.
         13    1    4    4    0    0  0.71741016975E+02  0.11862162567E+03  0.41528187518E+03  0.43780920439E+03  0.00000000000E+00 0. -1.
        -14    1    4    4    0    0 -0.15761380572E+01  0.23376351696E+02  0.15785650658E+02  0.28251102571E+02  0.00000000000E+00 0.  1.
</event>
<event>
12    1  0.1066489E+000  0.2556646E+03  0.7818608E-02  0.1109992E+00
         21   -1    0    0  501  502  0.00000000000E+00  0.00000000000E+00  0.76617338790E+02  0.76617338790E+02  0.00000000000E+00 0. -1.
         21   -1    0    0  502  503 -0.00000000000E+00 -0.00000000000E+00 -0.87401799348E+03  0.87401799348E+03  0.00000000000E+00 0. -1.
         -6    2    1    2    0  503 -0.17384400863E+03 -0.72014004051E+02 -0.48102810304E+03  0.54474988111E+03  0.17307986867E+03 0.  0.
        -24    2    3    3    0    0 -0.19873546047E+02 -0.56930986686E+02 -0.17110045000E+03  0.19832291784E+03  0.80128151566E+02 0.  0.
          6    2    1    2  501    0  0.17384400863E+03  0.72014004051E+02 -0.31637255165E+03  0.40588545116E+03  0.17100775396E+03 0.  0.
         24    2    5    5    0    0  0.13247207780E+03 -0.90283847173E+01 -0.14869786206E+03  0.21505464399E+03  0.80666489896E+02 0.  0.
          5    1    5    5  501    0  0.41371930823E+02  0.81042388768E+02 -0.16767468959E+03  0.19083080717E+03  0.47000000000E+01 0. -1.
        -13    1    6    6    0    0  0.11462281093E+03  0.12032904808E+02 -0.14781036706E+03  0.18743287918E+03  0.00000000000E+00 0.  1.
         14    1    6    6    0    0  0.17849266869E+02 -0.21061289526E+02 -0.88749500103E+00  0.27621764817E+02  0.00000000000E+00 0. -1.
         -5    1    3    3    0  503 -0.15397046258E+03 -0.15083017365E+02 -0.30992765304E+03  0.34642696327E+03  0.47000000000E+01 0.  1.
         11    1    4    4    0    0 -0.77884801576E+01 -0.37398397170E+02 -0.17114237866E+03  0.17535396861E+03  0.00000000000E+00 0. -1.
        -12    1    4    4    0    0 -0.12085065889E+02 -0.19532589516E+02  0.41928660231E-01  0.22968949231E+02  0.00000000000E+00 0.  1.
</event>
<event>
12    1  0.1066489E+000  0.7316087E+03  0.7818608E-02  0.9664738E-01
         21   -1    0    0  501  502  0.00000000000E+00  0.00000000000E+00  0.10719816714E+04  0.10719816714E+04  0.00000000000E+00 0.  1.
         21   -1    0    0  502  503 -0.00000000000E+00 -0.00000000000E+00 -0.69573421143E+03  0.69573421143E+03  0.00000000000E+00 0.  1.
         -6    2    1    2    0  503  0.39004218991E+03  0.59456060965E+03  0.65794678585E+03  0.98394375271E+03  0.17209330912E+03 0.  0.
        -24    2    3    3    0    0  0.29959145732E+03  0.43674272361E+03  0.40140665067E+03  0.66942387872E+03  0.80633629927E+02 0.  0.
          6    2    1    2  501    0 -0.39004218991E+03 -0.59456060965E+03 -0.28169932589E+03  0.78377213010E+03  0.17119875367E+03 0.  0.
         24    2    5    5    0    0 -0.27811639823E+03 -0.40518442415E+03 -0.26254432424E+03  0.56291080129E+03  0.80099310082E+02 0.  0.
          5    1    5    5  501    0 -0.11192579168E+03 -0.18937618549E+03 -0.19155001650E+02  0.22086132881E+03  0.47000000000E+01 0. -1.
        -11    1    6    6    0    0 -0.27888480498E+03 -0.40825962176E+03 -0.25898632788E+03  0.55814565414E+03  0.00000000000E+00 0.  1.
         12    1    6    6    0    0  0.76840675012E+00  0.30751976062E+01 -0.35579963542E+01  0.47651471444E+01  0.00000000000E+00 0. -1.
         -5    1    3    3    0  503  0.90450732588E+02  0.15781788604E+03  0.25654013518E+03  0.31451987399E+03  0.47000000000E+01 0.  1.
         11    1    4    4    0    0  0.67482178174E+02  0.14447910882E+03  0.15374524872E+03  0.22150769459E+03  0.00000000000E+00 0. -1.
        -12    1    4    4    0    0  0.23210927915E+03  0.29226361479E+03  0.24766140195E+03  0.44791618414E+03  0.00000000000E+00 0.  1.
</event>
<event>
12    1  0.1066489E+000  0.3188755E+03  0.7818608E-02  0.1076502E+00
         21   -1    0    0  503  502  0.00000000000E+00  0.00000000000E+00  0.99954363633E+03  0.99954363633E+03  0.00000000000E+00 0.  1.
         21   -1    0    0  501  503 -0.00000000000E+00 -0.00000000000E+00 -0.27131031682E+03  0.27131031682E+03  0.00000000000E+00 0.  1.
          6    2    1    2  501    0 -0.15477500701E+03  0.21464198349E+03  0.86844840140E+03  0.92514011085E+03  0.17791884367E+03 0.  0.
         24    2    3    3    0    0 -0.83468356161E+02  0.20503793707E+03  0.75227957133E+03  0.78841351050E+03  0.81632027900E+02 0.  0.
         -6    2    1    2    0  502  0.15477500701E+03 -0.21464198349E+03 -0.14021508189E+03  0.34571384230E+03  0.17271742153E+03 0.  0.
        -24    2    5    5    0    0  0.10734727490E+03 -0.22235616025E+03 -0.87441031641E+02  0.27418700345E+03  0.81036284560E+02 0.  0.
          5    1    3    3  501    0 -0.71306650847E+02  0.96040464187E+01  0.11616883007E+03  0.13672660035E+03  0.47000000000E+01 0. -1.
        -11    1    4    4    0    0 -0.37404455702E+01  0.94805430445E+02  0.23223026805E+03  0.25086442150E+03  0.00000000000E+00 0.  1.
         12    1    4    4    0    0 -0.79727910591E+02  0.11023250662E+03  0.52004930328E+03  0.53754908900E+03  0.00000000000E+00 0. -1.
         -5    1    5    5    0  502  0.47427732110E+02  0.77141767657E+01 -0.52774050250E+02  0.71526838852E+02  0.47000000000E+01 0.  1.
         11    1    6    6    0    0  0.24545126855E+02 -0.10262779087E+03 -0.72116061593E+02  0.12781100521E+03  0.00000000000E+00 0. -1.
        -12    1    6    6    0    0  0.82802148043E+02 -0.11972836938E+03 -0.15324970048E+02  0.14637599824E+03  0.00000000000E+00 0.  1.
</event>
<event>
12    1  0.1066489E+000  0.3014042E+03  0.7818608E-02  0.1084690E+00
         21   -1    0    0  501  502  0.00000000000E+00  0.00000000000E+00  0.65833965573E+03  0.65833965573E+03  0.00000000000E+00 0.  1.
         21   -1    0    0  502  503 -0.00000000000E+00 -0.00000000000E+00 -0.33012209776E+03  0.33012209776E+03  0.00000000000E+00 0.  1.
         -6    2    1    2    0  503  0.33459916844E+01 -0.24727210437E+03  0.54182612909E+03  0.62001616400E+03  0.17230728423E+03 0.  0.
        -24    2    3    3    0    0 -0.24243454618E+02 -0.25363719898E+03  0.44068730676E+03  0.51488366018E+03  0.77332447184E+02 0.  0.
          6    2    1    2  501    0 -0.33459916844E+01  0.24727210437E+03 -0.21360857113E+03  0.36844558949E+03  0.17020235457E+03 0.  0.
         24    2    5    5    0    0  0.58472597974E+02  0.10581264437E+03 -0.96350053855E+02  0.17452816706E+03  0.81002393778E+02 0.  0.
          5    1    5    5  501    0 -0.61818589658E+02  0.14145946000E+03 -0.11725851727E+03  0.19391742243E+03  0.47000000000E+01 0. -1.
        -13    1    6    6    0    0  0.20363966245E+02  0.22535333961E+02 -0.74386737782E+02  0.80348734625E+02  0.00000000000E+00 0.  1.
         14    1    6    6    0    0  0.38108631728E+02  0.83277310411E+02 -0.21963316073E+02  0.94179432438E+02  0.00000000000E+00 0. -1.
         -5    1    3    3    0  503  0.27589446302E+02  0.63650946111E+01  0.10113882233E+03  0.10513250382E+03  0.47000000000E+01 0.  1.
         13    1    4    4    0    0 -0.44980585110E+02 -0.19488507924E+03  0.37044969311E+03  0.42099456324E+03  0.00000000000E+00 0. -1.
        -14    1    4    4    0    0  0.20737130492E+02 -0.58752119734E+02  0.70237613645E+02  0.93889096944E+02  0.00000000000E+00 0.  1.
</event>
<event>
12    1  0.1066489E+000  0.2791661E+03  0.7818608E-02  0.1096532E+00
         21   -1    0    0  503  502  0.00000000000E+00  0.00000000000E+00  0.15326673403E+04  0.15326673403E+04  0.00000000000E+00 0. -1.
         21   -1    0    0  501  503 -0.00000000000E+00 -0.00000000000E+00 -0.67943532267E+02  0.67943532267E+02  0.00000000000E+00 0. -1.
          6    2    1    2  501    0  0.21148853719E+03  0.51066167197E+02  0.11424816437E+04  0.11760944012E+04  0.17492449624E+03 0.  0.
         24    2    3    3    0    0  0.10776193013E+03  0.43482690952E+02  0.91636863529E+03  0.92716489164E+03  0.79999265922E+02 0.  0.
         -6    2    1    2    0  502 -0.21148853719E+03 -0.51066167197E+02  0.32224216433E+03  0.42451647143E+03  0.17040853045E+03 0.  0.
        -24    2    5    5    0    0 -0.12197385951E+03  0.37397434730E+02  0.18552728201E+03  0.23863550029E+03  0.79059086126E+02 0.  0.
          5    1    3    3  501    0  0.10372660706E+03  0.75834762448E+01  0.22611300844E+03  0.24892950952E+03  0.47000000000E+01 0. -1.
        -11    1    4    4    0    0  0.10523440043E+03  0.46305234389E+02  0.60811427235E+03  0.61888724498E+03  0.00000000000E+00 0.  1.
         12    1    4    4    0    0  0.25275297066E+01 -0.28225434370E+01  0.30825436293E+03  0.30827764665E+03  0.00000000000E+00 0. -1.
         -5    1    5    5    0  502 -0.89514677678E+02 -0.88463601926E+02  0.13671488231E+03  0.18588097114E+03  0.47000000000E+01 0.  1.
         13    1    6    6    0    0 -0.56773851617E+02  0.16132459368E+02  0.15043396202E+03  0.16159796843E+03  0.00000000000E+00 0. -1.
        -14    1    6    6    0    0 -0.65200007898E+02  0.21264975362E+02  0.35093319997E+02  0.77037531862E+02  0.00000000000E+00 0.  1.
</event>
<event>
12    1  0.1066489E+000  0.1791537E+03  0.7818608E-02  0.1168836E+00
         21   -1    0    0  503  502  0.00000000000E+00  0.00000000000E+00  0.98548661544E+03  0.98548661544E+03  0.00000000000E+00 0. -1.
         21   -1    0    0  501  503 -0.00000000000E+00 -0.00000000000E+00 -0.34439994576E+02  0.34439994576E+02  0.00000000000E+00 0. -1.
          6    2    1    2  501    0  0.50519308073E+02  0.71536448145E+01  0.60037391860E+03  0.62653401846E+03  0.17173426866E+03 0.  0.
         24    2    3    3    0    0 -0.75369126650E+01 -0.50018448206E+02  0.25324415791E+03  0.26993854213E+03  0.78584749128E+02 0.  0.
         -6    2    1    2    0  502 -0.50519308073E+02 -0.71536448145E+01  0.35067270227E+03  0.39339259156E+03  0.17083035988E+03 0.  0.
        -24    2    5    5    0    0  0.37444911046E+02  0.59494495643E+00  0.19821254600E+03  0.21714295684E+03  0.80376457943E+02 0.  0.
          5    1    3    3  501    0  0.58056220738E+02  0.57172093020E+02  0.34712976069E+03  0.35659547634E+03  0.47000000000E+01 0. -1.
        -13    1    4    4    0    0 -0.24623289130E+01 -0.33510382468E+02  0.27185312427E+02  0.43220944097E+02  0.00000000000E+00 0.  1.
         14    1    4    4    0    0 -0.50745837520E+01 -0.16508065738E+02  0.22605884548E+03  0.22671759803E+03  0.00000000000E+00 0. -1.
         -5    1    5    5    0  502 -0.87964219119E+02 -0.77485897710E+01  0.15246015626E+03  0.17624963471E+03  0.47000000000E+01 0.  1.
         11    1    6    6    0    0 -0.15761045474E+01  0.35928435167E+02  0.84671662775E+02  0.91992537937E+02  0.00000000000E+00 0. -1.
        -12    1    6    6    0    0  0.39021015594E+02 -0.35333490211E+02  0.11354088323E+03  0.12515041891E+03  0.00000000000E+00 0.  1.
</event>
<event>
12    1  0.1066489E+000  0.2293388E+03  0.7818608E-02  0.1128203E+00
         21   -1    0    0  503  502  0.00000000000E+00  0.00000000000E+00  0.51727204396E+03  0.51727204396E+03  0.00000000000E+00 0.  1.
         21   -1    0    0  501  503 -0.00000000000E+00 -0.00000000000E+00 -0.11423362899E+03  0.11423362899E+03  0.00000000000E+00 0.  1.
          6    2    1    2  501    0 -0.11476485739E+03 -0.92825605601E+02  0.88521858574E+02  0.24583003901E+03  0.17552413819E+03 0.  0.
         24    2    3    3    0    0 -0.62926458879E+02 -0.81073783156E+02 -0.13322093317E+02  0.13085349607E+03  0.80077847876E+02 0.  0.
         -6    2    1    2    0  502  0.11476485739E+03  0.92825605601E+02  0.31451655640E+03  0.38567563394E+03  0.16744391544E+03 0.  0.
        -24    2    5    5    0    0  0.14041812991E+03  0.85117518911E+02  0.30831884509E+03  0.35778286395E+03  0.77368108858E+02 0.  0.
          5    1    3    3  501    0 -0.51838398508E+02 -0.11751822445E+02  0.10184395189E+03  0.11497654294E+03  0.47000000000E+01 0. -1.
        -11    1    4    4    0    0  0.17107117141E+02 -0.14505803928E+02 -0.14570969978E+02  0.26746681487E+02  0.00000000000E+00 0.  1.
         12    1    4    4    0    0 -0.80033576020E+02 -0.66567979228E+02  0.12488766610E+01  0.10410681458E+03  0.00000000000E+00 0. -1.
         -5    1    5    5    0  502 -0.25653272529E+02  0.77080866896E+01  0.61977113103E+01  0.27892769983E+02  0.47000000000E+01 0.  1.
         13    1    6    6    0    0  0.67955778171E+02  0.26204548431E+02  0.66763055115E+02  0.98802690619E+02  0.00000000000E+00 0. -1.
        -14    1    6    6    0    0  0.72462351744E+02  0.58912970480E+02  0.24155578997E+03  0.25898017333E+03  0.00000000000E+00 0.  1.
</event>
<event>
12    1  0.1066489E+000  0.2165482E+03  0.7818608E-02  0.1136484E+00
         21   -1    0    0  501  502  0.00000000000E+00  0.00000000000E+00  0.36480240774E+02  0.36480240774E+02  0.00000000000E+00 0.  1.
         21   -1    0    0  502  503 -0.00000000000E+00 -0.00000000000E+00 -0.13059759344E+04  0.13059759344E+04  0.00000000000E+00 0.  1.
         -6    2    1    2    0  503 -0.13088108221E+03 -0.22127523048E+02 -0.71900077329E+03  0.75090077684E+03  0.17108588404E+03 0.  0.
        -24    2    3    3    0    0 -0.10459798152E+03 -0.59115887764E+02 -0.66422526528E+03  0.67961693026E+03  0.79047725679E+02 0.  0.
          6    2    1    2  501    0  0.13088108221E+03  0.22127523048E+02 -0.55049492034E+03  0.59155539833E+03  0.17109543248E+03 0.  0.
         24    2    5    5    0    0  0.21828924061E+02 -0.16397490586E+02 -0.12864944572E+03  0.15411712345E+03  0.80349413397E+02 0.  0.
          5    1    5    5  501    0  0.10905215815E+03  0.38525013634E+02 -0.42184547462E+03  0.43743827488E+03  0.47000000000E+01 0. -1.
        -11    1    6    6    0    0  0.31493820524E+02  0.26297498910E+02 -0.59438070806E+02  0.72223981068E+02  0.00000000000E+00 0.  1.
         12    1    6    6    0    0 -0.96648964635E+01 -0.42694989496E+02 -0.69211374913E+02  0.81893142382E+02  0.00000000000E+00 0. -1.
         -5    1    3    3    0  503 -0.26283100694E+02  0.36988364716E+02 -0.54775508009E+02  0.71283846586E+02  0.47000000000E+01 0.  1.
         11    1    4    4    0    0 -0.97965911129E+01 -0.45206343282E+02 -0.16948373755E+03  0.17568245207E+03  0.00000000000E+00 0. -1.
        -12    1    4    4    0    0 -0.94801390405E+02 -0.13909544483E+02 -0.49474152773E+03  0.50393447819E+03  0.00000000000E+00 0.  1.
</event>
<event>
12    1  0.1066489E+000  0.3937600E+03  0.7818608E-02  0.1046019E+00
         21   -1    0    0  503  502  0.00000000000E+00  0.00000000000E+00  0.17529088421E+04  0.17529088421E+04  0.00000000000E+00 0.  1.
         21   -1    0    0  501  503 -0.00000000000E+00 -0.00000000000E+00 -0.88309988275E+02  0.88309988275E+02  0.00000000000E+00 0.  1.
          6    2    1    2  501    0 -0.22344880368E+03  0.27460758318E+03  0.83774044822E+03  0.92539036036E+03  0.17087881041E+03 0.  0.
         24    2    3    3    0    0 -0.10679680187E+03  0.66923242289E+02  0.39850364420E+03  0.42569892058E+03  0.80809277278E+02 0.  0.
         -6    2    1    2    0  502  0.22344880368E+03 -0.27460758318E+03  0.82685840563E+03  0.91582847005E+03  0.17236087428E+03 0.  0.
        -24    2    5    5    0    0  0.68724049621E+02 -0.57748490915E+02  0.18351993629E+03  0.21949945906E+03  0.80265573632E+02 0.  0.
          5    1    3    3  501    0 -0.11665200181E+03  0.20768434089E+03  0.43923680402E+03  0.49969143977E+03  0.47000000000E+01 0. -1.
        -11    1    4    4    0    0  0.23868432246E+01  0.40097331708E+01  0.11912415936E+03  0.11921552049E+03  0.00000000000E+00 0.  1.
         12    1    4    4    0    0 -0.10918364510E+03  0.62913509118E+02  0.27937948484E+03  0.30648340010E+03  0.00000000000E+00 0. -1.
         -5    1    5    5    0  502  0.15472475406E+03 -0.21685909226E+03  0.64333846934E+03  0.69632901099E+03  0.47000000000E+01 0.  1.
         13    1    6    6    0    0  0.69445669638E+02 -0.39308660917E+02  0.18450184644E+03  0.20101941000E+03  0.00000000000E+00 0. -1.
        -14    1    6    6    0    0 -0.72162001719E+00 -0.18439829998E+02 -0.98191014892E+00  0.18480049062E+02  0.00000000000E+00 0.  1.
</event>
<event>
12    1  0.1477420E+000  0.2489140E+03  0.7818608E-02  0.1114200E+00
         21   -1    0    0  501  502  0.00000000000E+00  0.00000000000E+00  0.47790024150E+03  0.47790024150E+03  0.00000000000E+00 0. -1.
         21   -1    0    0  502  503 -0.00000000000E+00 -0.00000000000E+00 -0.50250083729E+03  0.50250083729E+03  0.00000000000E+00 0.  1.
         -6    2    1    2    0  503 -0.31558200415E+02 -0.17573517745E+03  0.41032908681E+03  0.47992514172E+03  0.17343416494E+03 0.  0.
        -24    2    3    3    0    0 -0.72298602309E+02 -0.67555689216E+02  0.16608727969E+03  0.20966835204E+03  0.81147854772E+02 0.  0.
          6    2    1    2  501    0  0.31558200415E+02  0.17573517745E+03 -0.43492968259E+03  0.50047593706E+03  0.17156212336E+03 0.  0.
         24    2    5    5    0    0  0.86879513820E+02  0.10746207160E+03 -0.25192321425E+03  0.29741160697E+03  0.76760740821E+02 0.  0.
          5    1    5    5  501    0 -0.55321313405E+02  0.68273105854E+02 -0.18300646834E+03  0.20306433009E+03  0.47000000000E+01 0. -1.
        -13    1    6    6    0    0  0.72280766936E+02  0.87901666075E+02 -0.24776640005E+03  0.27265252825E+03  0.00000000000E+00 0.  1.
         14    1    6    6    0    0  0.14598746884E+02  0.19560405521E+02 -0.41568141939E+01  0.24759078718E+02  0.00000000000E+00 0. -1.
         -5    1    3    3    0  503  0.40740401893E+02 -0.10817948823E+03  0.24424180712E+03  0.27025678967E+03  0.47000000000E+01 0.  1.
         13    1    4    4    0    0 -0.52044618075E+00  0.74776242113E+01 -0.53691879354E+01  0.92202986480E+01  0.00000000000E+00 0. -1.
        -14    1    4    4    0    0 -0.71778156128E+02 -0.75033313427E+02  0.17145646762E+03  0.20044805340E+03  0.00000000000E+00 0.  1.
</event>
<event>
12    1  0.1066489E+000  0.1836391E+03  0.7818608E-02  0.1164805E+00
         21   -1    0    0  501  502  0.00000000000E+00  0.00000000000E+00  0.56138810758E+02  0.56138810758E+02  0.00000000000E+00 0.  1.
         21   -1    0    0  502  503 -0.00000000000E+00 -0.00000000000E+00 -0.59506481923E+03  0.59506481923E+03  0.00000000000E+00 0.  1.
         -6    2    1    2    0  503 -0.42216900692E+02 -0.18565263722E+02 -0.28379235521E+03  0.33802578567E+03  0.17775374872E+03 0.  0.
        -24    2    3    3    0    0 -0.84234399753E+02 -0.39396771605E+02 -0.14113681401E+03  0.18778559337E+03  0.81830856616E+02 0.  0.
          6    2    1    2  501    0  0.42216900692E+02  0.18565263722E+02 -0.25513365327E+03  0.31317784432E+03  0.17567084397E+03 0.  0.
         24    2    5    5    0    0  0.11011761293E+02 -0.47398301861E+02 -0.74509177666E+02  0.11831316333E+03  0.77964922596E+02 0.  0.
          5    1    5    5  501    0  0.31205139400E+02  0.65963565583E+02 -0.18062447560E+03  0.19486468098E+03  0.47000000000E+01 0. -1.
        -11    1    6    6    0    0 -0.20771620748E+02  0.11221291357E+02 -0.29850895243E+02  0.38058554295E+02  0.00000000000E+00 0.  1.
         12    1    6    6    0    0  0.31783382040E+02 -0.58619593218E+02 -0.44658282422E+02  0.80254609038E+02  0.00000000000E+00 0. -1.
         -5    1    3    3    0  503  0.42017499061E+02  0.20831507883E+02 -0.14265554120E+03  0.15024019230E+03  0.47000000000E+01 0.  1.
         11    1    4    4    0    0 -0.22597807789E+02  0.19610915367E+02 -0.71979705613E+02  0.77950798191E+02  0.00000000000E+00 0. -1.
        -12    1    4    4    0    0 -0.61636591964E+02 -0.59007686972E+02 -0.69157108396E+02  0.10983479518E+03  0.00000000000E+00 0.  1.
</event>
<event>
12    1  0.1066489E+000  0.2211800E+03  0.7818608E-02  0.1133387E+00
         21   -1    0    0  503  502  0.00000000000E+00  0.00000000000E+00  0.69012528329E+02  0.69012528329E+02  0.00000000000E+00 0.  1.
         21   -1    0    0  501  503 -0.00000000000E+00 -0.00000000000E+00 -0.96194482071E+03  0.96194482071E+03  0.00000000000E+00 0. -1.
          6    2    1    2  501    0  0.10796875093E+02 -0.13432302759E+03 -0.17715393497E+03  0.28178497355E+03  0.17280048146E+03 0.  0.
         24    2    3    3    0    0  0.28519599282E+02 -0.96897047013E+02 -0.35136703862E+02  0.13377895034E+03  0.80372970163E+02 0.  0.
         -6    2    1    2    0  502 -0.10796875093E+02  0.13432302759E+03 -0.71577835741E+03  0.74917237548E+03  0.17538911884E+03 0.  0.
        -24    2    5    5    0    0 -0.67047526549E+02  0.46363244154E+02 -0.41939912352E+03  0.43490529231E+03  0.81253106047E+02 0.  0.
          5    1    3    3  501    0 -0.17722724189E+02 -0.37425980572E+02 -0.14201723111E+03  0.14800602321E+03  0.47000000000E+01 0. -1.
        -11    1    4    4    0    0 -0.12671878299E+02  0.73030939584E+00  0.12308131747E+02  0.17680496558E+02  0.00000000000E+00 0.  1.
         12    1    4    4    0    0  0.41191477582E+02 -0.97627356409E+02 -0.47444835608E+02  0.11609845378E+03  0.00000000000E+00 0. -1.
         -5    1    5    5    0  502  0.56250651455E+02  0.87959783432E+02 -0.29637923388E+03  0.31426708318E+03  0.47000000000E+01 0.  1.
         11    1    6    6    0    0  0.17803135373E+02  0.18038267676E+02 -0.10617920716E+03  0.10916205734E+03  0.00000000000E+00 0. -1.
        -12    1    6    6    0    0 -0.84850661922E+02  0.28324976477E+02 -0.31321991637E+03  0.32574323497E+03  0.00000000000E+00 0.  1.
</event>
<event>
12    1  0.1066489E+000  0.2431164E+03  0.7818608E-02  0.1117887E+00
         21   -1    0    0  501  502  0.00000000000E+00  0.00000000000E+00  0.31920355124E+02  0.31920355124E+02  0.00000000000E+00 0.  1.
         21   -1    0    0  502  503 -0.00000000000E+00 -0.00000000000E+00 -0.26388207997E+04  0.26388207997E+04  0.00000000000E+00 0.  1.
         -6    2    1    2    0  503 -0.16051185038E+02  0.16984921179E+03 -0.56909932725E+03  0.61848897899E+03  0.17189583349E+03 0.  0.
        -24    2    3    3    0    0  0.46294601677E+01  0.15570314612E+03 -0.29206669189E+03  0.34028586737E+03  0.78908918441E+02 0.  0.
          6    2    1    2  501    0  0.16051185038E+02 -0.16984921179E+03 -0.20378011173E+04  0.20522521758E+04  0.17320278332E+03 0.  0.
         24    2    5    5    0    0 -0.47714779913E+02 -0.76448060276E+02 -0.75871250080E+03  0.76816508676E+03  0.79447690396E+02 0.  0.
          5    1    5    5  501    0  0.63765964951E+02 -0.93401151512E+02 -0.12790886165E+04  0.12840870891E+04  0.47000000000E+01 0. -1.
        -13    1    6    6    0    0 -0.35414827032E+02 -0.70044987379E+01 -0.45242857371E+03  0.45386659636E+03  0.00000000000E+00 0.  1.
         14    1    6    6    0    0 -0.12299952882E+02 -0.69443561538E+02 -0.30628392709E+03  0.31429849041E+03  0.00000000000E+00 0. -1.
         -5    1    3    3    0  503 -0.20680645205E+02  0.14146065671E+02 -0.27703263536E+03  0.27820311161E+03  0.47000000000E+01 0.  1.
         13    1    4    4    0    0  0.40151579346E+02  0.10707035629E+03 -0.19486273121E+03  0.22593736861E+03  0.00000000000E+00 0. -1.
        -14    1    4    4    0    0 -0.35522119178E+02  0.48632789829E+02 -0.97203960685E+02  0.11434849877E+03  0.00000000000E+00 0.  1.
</event>
<event>
12    1  0.1066489E+000  0.1729382E+03  0.7818608E-02  0.1175903E+00
         21   -1    0    0  501  502  0.00000000000E+00  0.00000000000E+00  0.15289834812E+04  0.15289834812E+04  0.00000000000E+00 0.  1.
         21   -1    0    0  502  503 -0.00000000000E+00 -0.00000000000E+00 -0.19345445608E+02  0.19345445608E+02  0.00000000000E+00 0.  1.
         -6    2    1    2    0  503 -0.16211669864E+02  0.17337020720E+02  0.67472749665E+03  0.69653773404E+03  0.17130157524E+03 0.  0.
        -24    2    3    3    0    0 -0.67087370741E+02  0.30924716136E+02  0.55678213921E+03  0.56728542362E+03  0.79682795708E+02 0.  0.
          6    2    1    2  501    0  0.16211669864E+02 -0.17337020720E+02  0.83491053889E+03  0.85179119272E+03  0.16706058037E+03 0.  0.
         24    2    5    5    0    0 -0.33559871553E+02 -0.55587181158E+02  0.43664868014E+03  0.44858543973E+03  0.79690822430E+02 0.  0.
          5    1    5    5  501    0  0.49771541417E+02  0.38250160438E+02  0.39826185875E+03  0.40320575299E+03  0.47000000000E+01 0. -1.
        -11    1    6    6    0    0 -0.34999591062E+02  0.14828138723E+01  0.27355766740E+03  0.27579152906E+03  0.00000000000E+00 0.  1.
         12    1    6    6    0    0  0.14397195090E+01 -0.57069995030E+02  0.16309101275E+03  0.17279391067E+03  0.00000000000E+00 0. -1.
         -5    1    3    3    0  503  0.50875700877E+02 -0.13587695416E+02  0.11794535745E+03  0.12925231042E+03  0.47000000000E+01 0.  1.
         11    1    4    4    0    0  0.51643651208E+01  0.85427074579E+01  0.28498143703E+03  0.28515621678E+03  0.00000000000E+00 0. -1.
        -12    1    4    4    0    0 -0.72251735862E+02  0.22382008678E+02  0.27180070217E+03  0.28212920683E+03  0.00000000000E+00 0.  1.
</event>
<event>
12    1  0.1066489E+000  0.2194476E+03  0.7818608E-02  0.1134486E+00
         21   -1    0    0  503  502  0.00000000000E+00  0.00000000000E+00  0.78791184413E+02  0.78791184413E+02  0.00000000000E+00 0. -1.
         21   -1    0    0  501  503 -0.00000000000E+00 -0.00000000000E+00 -0.76813777478E+03  0.76813777478E+03  0.00000000000E+00 0. -1.
          6    2    1    2  501    0 -0.66749164672E+02  0.11686310459E+03 -0.15218275567E+03  0.26705211617E+03  0.17333437464E+03 0.  0.
         24    2    3    3    0    0 -0.84858648038E+02  0.11733670738E+03 -0.47173392766E+02  0.16038799857E+03  0.50299980640E+02 0.  0.
         -6    2    1    2    0  502  0.66749164672E+02 -0.11686310459E+03 -0.53716383470E+03  0.57987684302E+03  0.17204572522E+03 0.  0.
        -24    2    5    5    0    0  0.48276101855E+01 -0.41157642704E+02 -0.10944154885E+03  0.14108983355E+03  0.78813901965E+02 0.  0.
          5    1    3    3  501    0  0.18109483366E+02 -0.47360279476E+00 -0.10500936290E+03  0.10666411761E+03  0.47000000000E+01 0. -1.
        -11    1    4    4    0    0 -0.31684355893E+02  0.11985724906E+02 -0.19826045661E+02  0.39250835614E+02  0.00000000000E+00 0.  1.
         12    1    4    4    0    0 -0.53174292145E+02  0.10535098248E+03 -0.27347347106E+02  0.12113716295E+03  0.00000000000E+00 0. -1.
         -5    1    5    5    0  502  0.61921554486E+02 -0.75705461886E+02 -0.42772228586E+03  0.43878700948E+03  0.47000000000E+01 0.  1.
         13    1    6    6    0    0 -0.29411328924E+02 -0.90760460607E+01 -0.79950842616E+02  0.85671104325E+02  0.00000000000E+00 0. -1.
        -14    1    6    6    0    0  0.34238939109E+02 -0.32081596643E+02 -0.29490706230E+02  0.55418729221E+02  0.00000000000E+00 0.  1.
</event>
<event>
12    1  0.1066489E+000  0.4183380E+03  0.7818608E-02  0.1037638E+00
         21   -1    0    0  501  502  0.00000000000E+00  0.00000000000E+00  0.17233836467E+04  0.17233836467E+04  0.00000000000E+00 0. -1.
         21   -1    0    0  502  503 -0.00000000000E+00 -0.00000000000E+00 -0.10286371776E+03  0.10286371776E+03  0.00000000000E+00 0.  1.
         -6    2    1    2    0  503 -0.37299599014E+03 -0.78130524725E+02  0.91727108331E+03  0.10081631369E+04  0.17255805624E+03 0.  0.
        -24    2    3    3    0    0 -0.19346837485E+03 -0.10893830538E+03  0.54229863535E+03  0.59126301609E+03  0.78781837042E+02 0.  0.
          6    2    1    2  501    0  0.37299599014E+03  0.78130524725E+02  0.70324884559E+03  0.81808422751E+03  0.17167549891E+03 0.  0.
         24    2    5    5    0    0  0.36114486049E+03  0.63383805340E+02  0.70481355946E+03  0.79852781332E+03  0.80258320446E+02 0.  0.
          5    1    5    5  501    0  0.11851129649E+02  0.14746719385E+02 -0.15647138755E+01  0.19556414193E+02  0.47000000000E+01 0. -1.
        -13    1    6    6    0    0  0.33412345341E+03  0.36214558643E+02  0.61401048718E+03  0.69997060991E+03  0.00000000000E+00 0.  1.
         14    1    6    6    0    0  0.27021407082E+02  0.27169246697E+02  0.90803072287E+02  0.98557203408E+02  0.00000000000E+00 0. -1.
         -5    1    3    3    0  503 -0.17952761530E+03  0.30807780657E+02  0.37497244796E+03  0.41690012081E+03  0.47000000000E+01 0.  1.
         13    1    4    4    0    0  0.13572745587E+01 -0.78640731915E+01  0.22104989076E+01  0.82808300797E+01  0.00000000000E+00 0. -1.
        -14    1    4    4    0    0 -0.19482564941E+03 -0.10107423219E+03  0.54008813644E+03  0.58298218601E+03  0.00000000000E+00 0.  1.
</event>
<event>
12    1  0.1066489E+000  0.2880313E+03  0.7818608E-02  0.1091427E+00
         21   -1    0    0  503  502  0.00000000000E+00  0.00000000000E+00  0.41130576769E+03  0.41130576769E+03  0.00000000000E+00 0.  1.
         21   -1    0    0  501  503 -0.00000000000E+00 -0.00000000000E+00 -0.61700004985E+03  0.61700004985E+03  0.00000000000E+00 0.  1.
          6    2    1    2  501    0 -0.56945549763E+02  0.22400398124E+03  0.31911815378E+03  0.42964886832E+03  0.17129265811E+03 0.  0.
         24    2    3    3    0    0  0.10514601161E+02  0.57663604940E+02  0.16438040122E+03  0.19261331229E+03  0.81506586203E+02 0.  0.
         -6    2    1    2    0  502  0.56945549763E+02 -0.22400398124E+03 -0.52481243594E+03  0.59865694923E+03  0.17187632382E+03 0.  0.
        -24    2    5    5    0    0  0.53790573140E+02 -0.14692982132E+03 -0.47563205180E+03  0.50705356397E+03  0.79972932203E+02 0.  0.
          5    1    3    3  501    0 -0.67460150924E+02  0.16634037630E+03  0.15473775256E+03  0.23703555602E+03  0.47000000000E+01 0. -1.
        -13    1    4    4    0    0  0.36012838145E+02  0.59630329249E+02  0.14380773927E+03  0.15979163480E+03  0.00000000000E+00 0.  1.
         14    1    4    4    0    0 -0.25498236984E+02 -0.19667243087E+01  0.20572661952E+02  0.32821677495E+02  0.00000000000E+00 0. -1.
         -5    1    5    5    0  502  0.31549766230E+01 -0.77074159929E+02 -0.49180384138E+02  0.91603385255E+02  0.47000000000E+01 0.  1.
         11    1    6    6    0    0  0.28621157414E+02 -0.11919502370E+03 -0.25115492425E+03  0.27947346976E+03  0.00000000000E+00 0. -1.
        -12    1    6    6    0    0  0.25169415726E+02 -0.27734797620E+02 -0.22447712755E+03  0.22758009421E+03  0.00000000000E+00 0.  1.
</event>
<event>
12    1  0.1066489E+000  0.2708643E+03  0.7818608E-02  0.1100882E+00
         21   -1    0    0  501  502  0.00000000000E+00  0.00000000000E+00  0.11261765536E+03  0.11261765536E+03  0.00000000000E+00 0.  1.
         21   -1    0    0  502  503 -0.00000000000E+00 -0.00000000000E+00 -0.65295863947E+03  0.65295863947E+03  0.00000000000E+00 0.  1.
         -6    2    1    2    0  503  0.18307026459E+03 -0.10024286844E+03 -0.29686015891E+03  0.40186241949E+03  0.17263862779E+03 0.  0.
        -24    2    3    3    0    0  0.11431174992E+03 -0.11544854392E+03 -0.27618390203E+03  0.32831961900E+03  0.71558940864E+02 0.  0.
          6    2    1    2  501    0 -0.18307026459E+03  0.10024286844E+03 -0.24348082520E+03  0.36371387534E+03  0.17158530363E+03 0.  0.
         24    2    5    5    0    0 -0.77966697107E+02 -0.35302616937E+01 -0.16126475341E+03  0.19460682375E+03  0.75988331696E+02 0.  0.
          5    1    5    5  501    0 -0.10510356748E+03  0.10377313013E+03 -0.82216071797E+02  0.16910705159E+03  0.47000000000E+01 0. -1.
        -13    1    6    6    0    0 -0.32100234854E+02 -0.30555998813E+02 -0.31575208621E+02  0.54415879489E+02  0.00000000000E+00 0.  1.
         14    1    6    6    0    0 -0.45866462254E+02  0.27025737119E+02 -0.12968954479E+03  0.14019094426E+03  0.00000000000E+00 0. -1.
         -5    1    3    3    0  503  0.68758514670E+02  0.15205675476E+02 -0.20676256876E+02  0.73542800495E+02  0.47000000000E+01 0.  1.
         11    1    4    4    0    0  0.56183081546E+02 -0.28344463466E+02 -0.54908184163E+02  0.83515603029E+02  0.00000000000E+00 0. -1.
        -12    1    4    4    0    0  0.58128668373E+02 -0.87104080449E+02 -0.22127571787E+03  0.24480401597E+03  0.00000000000E+00 0.  1.
</event>
<event>
12    1  0.1066489E+000  0.2790060E+03  0.7818608E-02  0.1096391E+00
         21   -1    0    0  501  502  0.00000000000E+00  0.00000000000E+00  0.26834551998E+03  0.26834551998E+03  0.00000000000E+00 0. -1.
         21   -1    0    0  502  503 -0.00000000000E+00 -0.00000000000E+00 -0.30027161653E+03  0.30027161653E+03  0.00000000000E+00 0. -1.
         -6    2    1    2    0  503 -0.52799904867E+02  0.21323557494E+03  0.39408165363E+02  0.28063639705E+03  0.17013683751E+03 0.  0.
        -24    2    3    3    0    0 -0.16386413257E+02  0.76422926610E+02 -0.35201209446E+02  0.12053551659E+03  0.84739054526E+02 0.  0.
          6    2    1    2  501    0  0.52799904867E+02 -0.21323557494E+03 -0.71334261908E+02  0.28798073946E+03  0.17200897942E+03 0.  0.
         24    2    5    5    0    0 -0.32878074119E+01 -0.13901238381E+03 -0.10106691028E+03  0.19020019973E+03  0.81402353126E+02 0.  0.
          5    1    5    5  501    0  0.56087712279E+02 -0.74223191133E+02  0.29732648369E+02  0.97780539729E+02  0.47000000000E+01 0. -1.
        -11    1    6    6    0    0 -0.13394625676E+02 -0.13175616626E+03 -0.56595920671E+02  0.14402153166E+03  0.00000000000E+00 0.  1.
         12    1    6    6    0    0  0.10106818264E+02 -0.72562175525E+01 -0.44470989606E+02  0.46178668075E+02  0.00000000000E+00 0. -1.
         -5    1    3    3    0  503 -0.36413491610E+02  0.13681264833E+03  0.74609374810E+02  0.16010088046E+03  0.47000000000E+01 0.  1.
         11    1    4    4    0    0 -0.44515712253E+02  0.70395571413E+02 -0.38161187581E+02  0.91615835692E+02  0.00000000000E+00 0. -1.
        -12    1    4    4    0    0  0.28129298996E+02  0.60273551970E+01  0.29599781343E+01  0.28919680898E+02  0.00000000000E+00 0.  1.
</event>
<event>
12    1  0.1066489E+000  0.2206340E+03  0.7818608E-02  0.1133484E+00
         21   -1    0    0  503  502  0.00000000000E+00  0.00000000000E+00  0.59352587311E+02  0.59352587311E+02  0.00000000000E+00 0. -1.
         21   -1    0    0  501  503 -0.00000000000E+00 -0.00000000000E+00 -0.82404402803E+03  0.82404402803E+03  0.00000000000E+00 0. -1.
          6    2    1    2  501    0  0.40691293941E+02  0.13194910544E+03 -0.41754123662E+03  0.47206628375E+03  0.17157955632E+03 0.  0.
         24    2    3    3    0    0  0.62193410387E+02  0.15783667511E+03 -0.36354664062E+03  0.40826962497E+03  0.75746224039E+02 0.  0.
         -6    2    1    2    0  502 -0.40691293941E+02 -0.13194910544E+03 -0.34715020410E+03  0.41133033159E+03  0.17208436783E+03 0.  0.
        -24    2    5    5    0    0 -0.18002261587E+02 -0.16263664088E+03 -0.28332248728E+03  0.33681466575E+03  0.79985804284E+02 0.  0.
          5    1    3    3  501    0 -0.21502116446E+02 -0.25887569673E+02 -0.53994595994E+02  0.63796658782E+02  0.47000000000E+01 0. -1.
        -13    1    4    4    0    0  0.26489676384E+02  0.91597593246E+02 -0.28020082710E+03  0.29598027899E+03  0.00000000000E+00 0.  1.
         14    1    4    4    0    0  0.35703734003E+02  0.66239081867E+02 -0.83345813527E+02  0.11228934598E+03  0.00000000000E+00 0. -1.
         -5    1    5    5    0  502 -0.22689032354E+02  0.30687535445E+02 -0.63827716823E+02  0.74515665841E+02  0.47000000000E+01 0.  1.
         11    1    6    6    0    0  0.24995108964E+02 -0.68550369088E+02 -0.77406875994E+02  0.10637543431E+03  0.00000000000E+00 0. -1.
        -12    1    6    6    0    0 -0.42997370551E+02 -0.94086271795E+02 -0.20591561129E+03  0.23043923144E+03  0.00000000000E+00 0.  1.
</event>
<event>
12    1  0.1066489E+000  0.1897126E+03  0.7818608E-02  0.1158756E+00
         21   -1    0    0  503  502  0.00000000000E+00  0.00000000000E+00  0.78231515779E+03  0.78231515779E+03  0.00000000000E+00 0.  1.
         21   -1    0    0  501  503 -0.00000000000E+00 -0.00000000000E+00 -0.66798189250E+02  0.66798189250E+02  0.00000000000E+00 0.  1.
          6    2    1    2  501    0  0.35824939402E+02  0.71446547213E+02  0.12077514733E+03  0.22489440075E+03  0.17205470027E+03 0.  0.
         24    2    3    3    0    0  0.67998206793E+02  0.64362664771E+02  0.14126748991E+03  0.18581337429E+03  0.76182659554E+02 0.  0.
         -6    2    1    2    0  502 -0.35824939402E+02 -0.71446547213E+02  0.59474182121E+03  0.62421894628E+03  0.17188200492E+03 0.  0.
        -24    2    5    5    0    0 -0.17953805146E+02  0.25473102221E+02  0.35363285596E+03  0.36370326728E+03  0.79073710905E+02 0.  0.
          5    1    3    3  501    0 -0.32173267392E+02  0.70838824427E+01 -0.20492342578E+02  0.39081026464E+02  0.47000000000E+01 0. -1.
        -13    1    4    4    0    0  0.51146541117E+02 -0.68767155323E+00  0.79538735265E+02  0.94566653573E+02  0.00000000000E+00 0.  1.
         14    1    4    4    0    0  0.16851665676E+02  0.65050336324E+02  0.61728754644E+02  0.91246720718E+02  0.00000000000E+00 0. -1.
         -5    1    5    5    0  502 -0.17871134255E+02 -0.96919649434E+02  0.24110896524E+03  0.26051567900E+03  0.47000000000E+01 0.  1.
         13    1    6    6    0    0 -0.93440780062E-01 -0.25187436503E+02  0.18538795165E+03  0.18709117645E+03  0.00000000000E+00 0. -1.
        -14    1    6    6    0    0 -0.17860364366E+02  0.50660538724E+02  0.16824490431E+03  0.17661209083E+03  0.00000000000E+00 0.  1.
</event>
<event>
12    1  0.1066489E+000  0.2628634E+03  0.7818608E-02  0.1105852E+00
         21   -1    0    0  503  502  0.00000000000E+00  0.00000000000E+00  0.11699674675E+04  0.11699674675E+04  0.00000000000E+00 0. -1.
         21   -1    0    0  501  503 -0.00000000000E+00 -0.00000000000E+00 -0.10078674657E+03  0.10078674657E+03  0.00000000000E+00 0. -1.
          6    2    1    2  501    0  0.46097265711E+02 -0.19302463367E+03  0.94481886348E+03  0.97995697099E+03  0.16807591470E+03 0.  0.
         24    2    3    3    0    0  0.71899279554E+02 -0.84770966522E+02  0.66617996334E+03  0.67987976919E+03  0.78007267847E+02 0.  0.
         -6    2    1    2    0  502 -0.46097265711E+02  0.19302463367E+03  0.12436185747E+03  0.29079724310E+03  0.17237661644E+03 0.  0.
        -24    2    5    5    0    0 -0.77830204378E+02  0.16309511748E+03  0.48894219969E+02  0.20350343092E+03  0.79783730120E+02 0.  0.
          5    1    3    3  501    0 -0.25802013844E+02 -0.10825366714E+03  0.27863890014E+03  0.30007720180E+03  0.47000000000E+01 0. -1.
        -11    1    4    4    0    0  0.62426076320E+01  0.42453213501E+01  0.40356646065E+01  0.85603441654E+01  0.00000000000E+00 0.  1.
         12    1    4    4    0    0  0.65656671922E+02 -0.89016287873E+02  0.66214429873E+03  0.67131942502E+03  0.00000000000E+00 0. -1.
         -5    1    5    5    0  502  0.31732938667E+02  0.29929516187E+02  0.75467637498E+02  0.87293812181E+02  0.47000000000E+01 0.  1.
         11    1    6    6    0    0  0.76216643703E+01  0.15149632003E+02 -0.13438075240E+02  0.21637536453E+02  0.00000000000E+00 0. -1.
        -12    1    6    6    0    0 -0.85451868748E+02  0.14794548547E+03  0.62332295209E+02  0.18186589447E+03  0.00000000000E+00 0.  1.
</event>
<event>
12    1  0.1066489E+000  0.2388384E+03  0.7818608E-02  0.1121006E+00
         21   -1    0    0  501  502  0.00000000000E+00  0.00000000000E+00  0.12666538233E+03  0.12666538233E+03  0.00000000000E+00 0.  1.
         21   -1    0    0  502  503 -0.00000000000E+00 -0.00000000000E+00 -0.45483989389E+03  0.45483989389E+03  0.00000000000E+00 0.  1.
         -6    2    1    2    0  503 -0.20712033246E+02 -0.16220587257E+03 -0.20493255291E+03  0.31274448209E+03  0.17050520937E+03 0.  0.
        -24    2    3    3    0    0  0.65169381020E+01 -0.13659517392E+03 -0.69676538292E+02  0.17233933883E+03  0.78392064007E+02 0.  0.
          6    2    1    2  501    0  0.20712033246E+02  0.16220587257E+03 -0.12324195866E+03  0.26876079412E+03  0.17408058670E+03 0.  0.
         24    2    5    5    0    0 -0.44745487628E+02  0.13192651675E+03 -0.55556764406E+02  0.16974108927E+03  0.79490369416E+02 0.  0.
          5    1    5    5  501    0  0.65457520874E+02  0.30279355816E+02 -0.67685194250E+02  0.99019704848E+02  0.47000000000E+01 0. -1.
        -13    1    6    6    0    0 -0.13123155891E+02  0.75015604191E+02 -0.69565108857E+02  0.10314486154E+03  0.00000000000E+00 0.  1.
         14    1    6    6    0    0 -0.31622331737E+02  0.56910912564E+02  0.14008344451E+02  0.66596227728E+02  0.00000000000E+00 0. -1.
         -5    1    3    3    0  503 -0.27228971348E+02 -0.25610698652E+02 -0.13525601461E+03  0.14040514327E+03  0.47000000000E+01 0.  1.
         11    1    4    4    0    0  0.20526716958E+02 -0.11183523016E+03 -0.83148384681E+02  0.14086205553E+03  0.00000000000E+00 0. -1.
        -12    1    4    4    0    0 -0.14009778856E+02 -0.24759943758E+02  0.13471846388E+02  0.31477283295E+02  0.00000000000E+00 0.  1.
</event>
<event>
12    1  0.1066489E+000  0.2754790E+03  0.7818608E-02  0.1098201E+00
         21   -1    0    0  501  502  0.00000000000E+00  0.00000000000E+00  0.43741869284E+03  0.43741869284E+03  0.00000000000E+00 0.  1.
         21   -1    0    0  502  503 -0.00000000000E+00 -0.00000000000E+00 -0.17421376109E+03  0.17421376109E+03  0.00000000000E+00 0.  1.
         -6    2    1    2    0  503 -0.81384086289E+02  0.19872397171E+03  0.11096486712E+03  0.29698801821E+03  0.17255171628E+03 0.  0.
        -24    2    3    3    0    0  0.10996397640E+02  0.15109456824E+03  0.62061530657E+02  0.18202567567E+03  0.79568987053E+02 0.  0.
          6    2    1    2  501    0  0.81384086289E+02 -0.19872397171E+03  0.15224006462E+03  0.31464443571E+03  0.17236443140E+03 0.  0.
         24    2    5    5    0    0  0.20507085180E+01 -0.14899127158E+03  0.49978781206E+02  0.17591236884E+03  0.79023278398E+02 0.  0.
          5    1    5    5  501    0  0.79333377771E+02 -0.49732700134E+02  0.10226128342E+03  0.13873206687E+03  0.47000000000E+01 0. -1.
        -13    1    6    6    0    0  0.31300088571E+02 -0.24886805494E+02  0.20955323884E+02  0.45146143039E+02  0.00000000000E+00 0.  1.
         14    1    6    6    0    0 -0.29249380053E+02 -0.12410446609E+03  0.29023457322E+02  0.13076622580E+03  0.00000000000E+00 0. -1.
         -5    1    3    3    0  503 -0.92380483929E+02  0.47629403471E+02  0.48903336467E+02  0.11496234255E+03  0.47000000000E+01 0.  1.
         13    1    4    4    0    0 -0.29102796605E+01  0.12547438517E+03  0.79009006643E+02  0.14830615021E+03  0.00000000000E+00 0. -1.
        -14    1    4    4    0    0  0.13906677301E+02  0.25620183076E+02 -0.16947475986E+02  0.33719525452E+02  0.00000000000E+00 0.  1.
</event>
<event>
12    1  0.1066489E+000  0.1734994E+03  0.7818608E-02  0.1175040E+00
         21   -1    0    0  501  502  0.00000000000E+00  0.00000000000E+00  0.33020558887E+03  0.33020558887E+03  0.00000000000E+00 0.  1.
         21   -1    0    0  502  503 -0.00000000000E+00 -0.00000000000E+00 -0.11118151000E+03  0.11118151000E+03  0.00000000000E+00 0.  1.
         -6    2    1    2    0  503  0.13858641935E+02  0.77954506725E+01  0.11359469018E+02  0.17078291720E+03  0.16966123972E+03 0.  0.
        -24    2    3    3    0    0 -0.44449490015E+01  0.68755956503E+02 -0.23544980759E+01  0.10550376581E+03  0.79864646825E+02 0.  0.
          6    2    1    2  501    0 -0.13858641935E+02 -0.77954506725E+01  0.20766460986E+03  0.27060418168E+03  0.17276921585E+03 0.  0.
         24    2    5    5    0    0  0.34218049892E+02 -0.54087778175E+02  0.94971217427E+02  0.13954603206E+03  0.79732052770E+02 0.  0.
          5    1    5    5  501    0 -0.48076691827E+02  0.46292327503E+02  0.11269339243E+03  0.13105814961E+03  0.47000000000E+01 0. -1.
        -13    1    6    6    0    0  0.17679500992E+02  0.18815668472E+02  0.36149734408E+02  0.44422938142E+02  0.00000000000E+00 0.  1.
         14    1    6    6    0    0  0.16538548900E+02 -0.72903446647E+02  0.58821483019E+02  0.95123093922E+02  0.00000000000E+00 0. -1.
         -5    1    3    3    0  503  0.18303590937E+02 -0.60960505831E+02  0.13713967094E+02  0.65279151387E+02  0.47000000000E+01 0.  1.
         11    1    4    4    0    0  0.24034408124E+02  0.16132076413E+02 -0.28119891024E+02  0.40356225474E+02  0.00000000000E+00 0. -1.
        -12    1    4    4    0    0 -0.28479357126E+02  0.52623880090E+02  0.25765392948E+02  0.65147540336E+02  0.00000000000E+00 0.  1.
</event>
<event>
12    1  0.1066489E+000  0.2103345E+03  0.7818608E-02  0.1141434E+00
         21   -1    0    0  501  502  0.00000000000E+00  0.00000000000E+00  0.19757881919E+04  0.19757881919E+04  0.00000000000E+00 0.  1.
         21   -1    0    0  502  503 -0.00000000000E+00 -0.00000000000E+00 -0.35811865207E+02  0.35811865207E+02  0.00000000000E+00 0.  1.
         -6    2    1    2    0  503 -0.11686475492E+03  0.34309897296E+02  0.15883053253E+04  0.16021717748E+04  0.17148192172E+03 0.  0.
        -24    2    3    3    0    0 -0.13405458787E+03  0.69608834747E+02  0.12907934565E+04  0.13020436231E+04  0.79710894577E+02 0.  0.
          6    2    1    2  501    0  0.11686475492E+03 -0.34309897296E+02  0.35167100138E+03  0.40942828233E+03  0.17065897330E+03 0.  0.
         24    2    5    5    0    0  0.12293838874E+03 -0.45986792329E+02  0.18690064086E+03  0.24406625341E+03  0.86068891029E+02 0.  0.
          5    1    5    5  501    0 -0.60736338218E+01  0.11676895033E+02  0.16477036051E+03  0.16536202892E+03  0.47000000000E+01 0. -1.
        -13    1    6    6    0    0  0.44238292416E+02 -0.59089877147E+02  0.11507629276E+03  0.13671573886E+03  0.00000000000E+00 0.  1.
         14    1    6    6    0    0  0.78700096321E+02  0.13103084818E+02  0.71824348106E+02  0.10735051455E+03  0.00000000000E+00 0. -1.
         -5    1    3    3    0  503  0.17189832955E+02 -0.35298937451E+02  0.29751186880E+03  0.30012815166E+03  0.47000000000E+01 0.  1.
         13    1    4    4    0    0 -0.45062837112E+02  0.68213113949E+02  0.60478492107E+03  0.61028557984E+03  0.00000000000E+00 0. -1.
        -14    1    4    4    0    0 -0.88991750759E+02  0.13957207978E+01  0.68600853545E+03  0.69175804329E+03  0.00000000000E+00 0.  1.
</event>
<event>
12    1  0.1066489E+000  0.1982104E+03  0.7818608E-02  0.1151282E+00
         21   -1    0    0  501  502  0.00000000000E+00  0.00000000000E+00  0.33964832356E+02  0.33964832356E+02  0.00000000000E+00 0. -1.
         21   -1    0    0  502  503 -0.00000000000E+00 -0.00000000000E+00 -0.13283080129E+04  0.13283080129E+04  0.00000000000E+00 0. -1.
         -6    2    1    2    0  503  0.50587767846E+02 -0.83104254995E+02 -0.40171901651E+03  0.44790680706E+03  0.17255984506E+03 0.  0.
        -24    2    3    3    0    0  0.90132902050E+02 -0.42799937786E+02 -0.18961033233E+03  0.22836082205E+03  0.78998811495E+02 0.  0.
          6    2    1    2  501    0 -0.50587767846E+02  0.83104254995E+02 -0.89262416404E+03  0.91436603821E+03  0.17269022596E+03 0.  0.
         24    2    5    5    0    0  0.35695419769E+02  0.50281695060E+02 -0.41915767902E+03  0.43196090625E+03  0.84229761910E+02 0.  0.
          5    1    5    5  501    0 -0.86283187616E+02  0.32822559935E+02 -0.47346648502E+03  0.48240513196E+03  0.47000000000E+01 0. -1.
        -11    1    6    6    0    0 -0.15983302474E+02  0.84677150901E+01 -0.18675128371E+02  0.25998626435E+02  0.00000000000E+00 0.  1.
         12    1    6    6    0    0  0.51678722244E+02  0.41813979970E+02 -0.40048255065E+03  0.40596227981E+03  0.00000000000E+00 0. -1.
         -5    1    3    3    0  503 -0.39545134203E+02 -0.40304317209E+02 -0.21210868418E+03  0.21954598500E+03  0.47000000000E+01 0.  1.
         13    1    4    4    0    0  0.42860333633E+01 -0.41132147571E+02 -0.64596188572E+02  0.76700007977E+02  0.00000000000E+00 0. -1.
        -14    1    4    4    0    0  0.85846868686E+02 -0.16677902150E+01 -0.12501414376E+03  0.15166081408E+03  0.00000000000E+00 0.  1.
</event>
<event>
12    1  0.1066489E+000  0.2078778E+03  0.7818608E-02  0.1143328E+00
         21   -1    0    0  503  502  0.00000000000E+00  0.00000000000E+00  0.14129583243E+04  0.14129583243E+04  0.00000000000E+00 0.  1.
         21   -1    0    0  501  503 -0.00000000000E+00 -0.00000000000E+00 -0.31611883844E+02  0.31611883844E+02  0.00000000000E+00 0.  1.
          6    2    1    2  501    0 -0.92071778142E+02  0.71428247049E+02  0.82473400137E+03  0.85052886586E+03  0.17214520569E+03 0.  0.
         24    2    3    3    0    0 -0.10465359614E+03 -0.69641366067E+00  0.59997340227E+03  0.61409772211E+03  0.78708758699E+02 0.  0.
         -6    2    1    2    0  502  0.92071778142E+02 -0.71428247049E+02  0.55661243907E+03  0.59404134226E+03  0.17172216568E+03 0.  0.
        -24    2    5    5    0    0 -0.55750199857E+01  0.11419400728E+02  0.22317264612E+03  0.23682597942E+03  0.78224235332E+02 0.  0.
          5    1    3    3  501    0  0.12581817998E+02  0.72124660710E+02  0.22476059910E+03  0.23643114375E+03  0.47000000000E+01 0. -1.
        -11    1    4    4    0    0  0.10207648564E+02 -0.11012136467E+02  0.52221453735E+02  0.54337311941E+02  0.00000000000E+00 0.  1.
         12    1    4    4    0    0 -0.11486124470E+03  0.10315722807E+02  0.54775194854E+03  0.55976041017E+03  0.00000000000E+00 0. -1.
         -5    1    5    5    0  502  0.97646798128E+02 -0.82847647777E+02  0.33343979295E+03  0.35721536284E+03  0.47000000000E+01 0.  1.
         13    1    6    6    0    0 -0.80846660485E+01 -0.30444139806E+02  0.53843438481E+02  0.62380472434E+02  0.00000000000E+00 0. -1.
        -14    1    6    6    0    0  0.25096460628E+01  0.41863540535E+02  0.16932920763E+03  0.17444550699E+03  0.00000000000E+00 0.  1.
</event>
<event>
12    1  0.1066489E+000  0.2962172E+03  0.7818608E-02  0.1088152E+00
         21   -1    0    0  501  502  0.00000000000E+00  0.00000000000E+00  0.14061924638E+04  0.14061924638E+04  0.00000000000E+00 0.  1.
         21   -1    0    0  502  503 -0.00000000000E+00 -0.00000000000E+00 -0.69545699670E+02  0.69545699670E+02  0.00000000000E+00 0.  1.
         -6    2    1    2    0  503  0.18225435853E+03 -0.14345869508E+03  0.41396358019E+03  0.50902897939E+03  0.18424876591E+03 0.  0.
        -24    2    3    3    0    0  0.19072640168E+03 -0.11178586191E+03  0.25821976705E+03  0.34980219393E+03  0.82531736708E+02 0.  0.
          6    2    1    2  501    0 -0.18225435853E+03  0.14345869508E+03  0.92268318394E+03  0.96670918408E+03  0.17142152800E+03 0.  0.
         24    2    5    5    0    0 -0.16153233068E+03  0.37170503530E+02  0.62457380777E+03  0.64950598066E+03  0.65507536750E+02 0.  0.
          5    1    5    5  501    0 -0.20722027853E+02  0.10628819155E+03  0.29810937616E+03  0.31720320341E+03  0.47000000000E+01 0. -1.
        -11    1    6    6    0    0 -0.98585724573E+02  0.11817211039E+02  0.47487241651E+03  0.48514183856E+03  0.00000000000E+00 0.  1.
         12    1    6    6    0    0 -0.62946606102E+02  0.25353292491E+02  0.14970139127E+03  0.16436414210E+03  0.00000000000E+00 0. -1.
         -5    1    3    3    0  503 -0.84720431473E+01 -0.31672833166E+02  0.15574381314E+03  0.15922678546E+03  0.47000000000E+01 0.  1.
         11    1    4    4    0    0  0.10641840973E+03 -0.41713478831E+02  0.18669497516E+03  0.21890615797E+03  0.00000000000E+00 0. -1.
        -12    1    4    4    0    0  0.84307991941E+02 -0.70072383080E+02  0.71524791888E+02  0.13089603596E+03  0.00000000000E+00 0.  1.
</event>
<event>
12    1  0.1066489E+000  0.2308225E+03  0.7818608E-02  0.1126190E+00
         21   -1    0    0  503  502  0.00000000000E+00  0.00000000000E+00  0.71728190981E+02  0.71728190981E+02  0.00000000000E+00 0. -1.
         21   -1    0    0  501  503 -0.00000000000E+00 -0.00000000000E+00 -0.81302145028E+03  0.81302145028E+03  0.00000000000E+00 0. -1.
          6    2    1    2  501    0  0.81184163321E+02 -0.13044061371E+03 -0.50335548778E+03  0.55375604892E+03  0.17225966609E+03 0.  0.
         24    2    3    3    0    0  0.21984741050E+01 -0.10850928664E+03 -0.21384743065E+03  0.25282960051E+03  0.80081113405E+02 0.  0.
         -6    2    1    2    0  502 -0.81184163321E+02  0.13044061371E+03 -0.23793777152E+03  0.33099359234E+03  0.17127975063E+03 0.  0.
        -24    2    5    5    0    0 -0.10829673907E+03  0.60924108542E+02 -0.20039734204E+03  0.24733350568E+03  0.74664835362E+02 0.  0.
          5    1    3    3  501    0  0.78985689216E+02 -0.21931327066E+02 -0.28950805713E+03  0.30092644841E+03  0.47000000000E+01 0. -1.
        -11    1    4    4    0    0  0.34844158935E+02 -0.54590392359E+02 -0.67798719026E+02  0.93759760300E+02  0.00000000000E+00 0.  1.
         12    1    4    4    0    0 -0.32645684830E+02 -0.53918894285E+02 -0.14604871162E+03  0.15906984021E+03  0.00000000000E+00 0. -1.
         -5    1    5    5    0  502  0.27112575747E+02  0.69516505168E+02 -0.37540429472E+02  0.83660086656E+02  0.47000000000E+01 0.  1.
         11    1    6    6    0    0 -0.63032371669E+02 -0.44636391515E+01 -0.11063979252E+03  0.12741337309E+03  0.00000000000E+00 0. -1.
        -12    1    6    6    0    0 -0.45264367399E+02  0.65387747694E+02 -0.89757549520E+02  0.11992013259E+03  0.00000000000E+00 0.  1.
</event>
<event>
12    1  0.1066489E+000  0.1742697E+03  0.7818608E-02  0.1179360E+00
         21   -1    0    0  501  502  0.00000000000E+00  0.00000000000E+00  0.67450503771E+02  0.67450503771E+02  0.00000000000E+00 0.  1.
         21   -1    0    0  502  503 -0.00000000000E+00 -0.00000000000E+00 -0.55842627706E+03  0.55842627706E+03  0.00000000000E+00 0.  1.
         -6    2    1    2    0  503  0.17437684124E+02  0.14093659281E+02 -0.88464317642E+02  0.19543761749E+03  0.17282136088E+03 0.  0.
        -24    2    3    3    0    0  0.14380571861E+02 -0.15711318822E+02  0.20926072074E+02  0.81920966652E+02  0.76285633632E+02 0.  0.
          6    2    1    2  501    0 -0.17437684124E+02 -0.14093659281E+02 -0.40251145565E+03  0.43043916334E+03  0.15086317427E+03 0.  0.
         24    2    5    5    0    0  0.28621721864E+02 -0.35101914453E+02 -0.17871996979E+03  0.20094507887E+03  0.79917143087E+02 0.  0.
          5    1    5    5  501    0 -0.46059405988E+02  0.21008255172E+02 -0.22379148586E+03  0.22949408447E+03  0.47000000000E+01 0. -1.
        -11    1    6    6    0    0 -0.26072217787E+02 -0.24852010232E+02 -0.76680086177E+02  0.84718466517E+02  0.00000000000E+00 0.  1.
         12    1    6    6    0    0  0.54693939651E+02 -0.10249904221E+02 -0.10203988361E+03  0.11622661235E+03  0.00000000000E+00 0. -1.
         -5    1    3    3    0  503  0.30571122638E+01  0.29804978103E+02 -0.10939038972E+03  0.11351665084E+03  0.47000000000E+01 0.  1.
         13    1    4    4    0    0  0.26658895446E+02  0.20932339588E+02 -0.65255965641E+01  0.34517284910E+02  0.00000000000E+00 0. -1.
        -14    1    4    4    0    0 -0.12278323585E+02 -0.36643658410E+02  0.27451668639E+02  0.47403681743E+02  0.00000000000E+00 0.  1.
</event>
<event>
12    1  0.1066489E+000  0.7130658E+03  0.7818608E-02  0.9695295E-01
         21   -1    0    0  501  502  0.00000000000E+00  0.00000000000E+00  0.43073650150E+03  0.43073650150E+03  0.00000000000E+00 0.  1.
         21   -1    0    0  502  503 -0.00000000000E+00 -0.00000000000E+00 -0.12729170069E+04  0.12729170069E+04  0.00000000000E+00 0.  1.
         -6    2    1    2    0  503  0.63425754243E+03 -0.27691711733E+03 -0.19067162485E+03  0.73777224408E+03  0.17025420880E+03 0.  0.
        -24    2    3    3    0    0  0.48165344069E+03 -0.19026890528E+03 -0.20856797394E+03  0.56131178440E+03  0.58120790648E+02 0.  0.
          6    2    1    2  501    0 -0.63425754243E+03  0.27691711733E+03 -0.65150888059E+03  0.96588126435E+03  0.17174712612E+03 0.  0.
         24    2    5    5    0    0 -0.51698877118E+03  0.16825275260E+03 -0.54333708038E+03  0.77279284617E+03  0.80045124104E+02 0.  0.
          5    1    5    5  501    0 -0.11726877126E+03  0.10866436474E+03 -0.10817180020E+03  0.19308841818E+03  0.47000000000E+01 0. -1.
        -13    1    6    6    0    0 -0.22455899412E+03  0.33008009097E+02 -0.23873437515E+03  0.32940912614E+03  0.00000000000E+00 0.  1.
         14    1    6    6    0    0 -0.29242977706E+03  0.13524474350E+03 -0.30460270523E+03  0.44338372003E+03  0.00000000000E+00 0. -1.
         -5    1    3    3    0  503  0.15260410175E+03 -0.86648212052E+02  0.17896349098E+02  0.17646045969E+03  0.47000000000E+01 0.  1.
         13    1    4    4    0    0  0.47986247047E+03 -0.18887842497E+03 -0.20112138272E+03  0.55352765113E+03  0.00000000000E+00 0. -1.
        -14    1    4    4    0    0  0.17909702195E+01 -0.13904803157E+01 -0.74465912237E+01  0.77841332650E+01  0.00000000000E+00 0.  1.
</event>
<event>
12    1  0.1066489E+000  0.2667357E+03  0.7818608E-02  0.1103260E+00
         21   -1    0    0  501  502  0.00000000000E+00  0.00000000000E+00  0.35087812186E+03  0.35087812186E+03  0.00000000000E+00 0.  1.
         21   -1    0    0  502  503 -0.00000000000E+00 -0.00000000000E+00 -0.23630380274E+03  0.23630380274E+03  0.00000000000E+00 0.  1.
         -6    2    1    2    0  503  0.10572529094E+03  0.17410035886E+03  0.16865755839E+03  0.31501848561E+03  0.17117973646E+03 0.  0.
        -24    2    3    3    0    0  0.93841081941E+02  0.39444165133E+02  0.70376787660E+02  0.14782182049E+03  0.80848052220E+02 0.  0.
          6    2    1    2  501    0 -0.10572529094E+03 -0.17410035886E+03 -0.54083239271E+02  0.27216343899E+03  0.17221837490E+03 0.  0.
         24    2    5    5    0    0 -0.19409243996E+02 -0.13900441101E+03  0.45851174740E+01  0.16195340497E+03  0.80677983651E+02 0.  0.
          5    1    5    5  501    0 -0.86316046947E+02 -0.35095947854E+02 -0.58668356745E+02  0.11021003402E+03  0.47000000000E+01 0. -1.
        -13    1    6    6    0    0 -0.94228219895E+01 -0.82581729998E+02  0.42393085807E+02  0.93304369822E+02  0.00000000000E+00 0.  1.
         14    1    6    6    0    0 -0.99864220063E+01 -0.56422681009E+02 -0.37807968333E+02  0.68649035144E+02  0.00000000000E+00 0. -1.
         -5    1    3    3    0  503  0.11884209002E+02  0.13465619373E+03  0.98280770734E+02  0.16719666513E+03  0.47000000000E+01 0.  1.
         13    1    4    4    0    0  0.11931483146E+02  0.95641539967E+01  0.57728848671E+02  0.59719789858E+02  0.00000000000E+00 0. -1.
        -14    1    4    4    0    0  0.81909598795E+02  0.29880011136E+02  0.12647938989E+02  0.88102030629E+02  0.00000000000E+00 0.  1.
</event>
<event>
12    1  0.1066489E+000  0.1970274E+03  0.7818608E-02  0.1152425E+00
         21   -1    0    0  503  502  0.00000000000E+00  0.00000000000E+00  0.88277435644E+03  0.88277435644E+03  0.00000000000E+00 0. -1.
         21   -1    0    0  501  503 -0.00000000000E+00 -0.00000000000E+00 -0.43851338126E+02  0.43851338126E+02  0.00000000000E+00 0. -1.
          6    2    1    2  501    0  0.38140953779E+02 -0.86892612130E+02  0.40559767429E+03  0.45061031978E+03  0.17185787298E+03 0.  0.
         24    2    3    3    0    0  0.55119835997E+02 -0.93185491500E+02  0.40992513753E+03  0.43140876489E+03  0.79706787057E+02 0.  0.
         -6    2    1    2    0  502 -0.38140953779E+02  0.86892612130E+02  0.43332534402E+03  0.47601537478E+03  0.17266940916E+03 0.  0.
        -24    2    5    5    0    0 -0.68045234824E+02  0.82582872792E+02  0.42003929047E+03  0.44267697205E+03  0.89887769914E+02 0.  0.
          5    1    3    3  501    0 -0.16978882218E+02  0.62928793698E+01 -0.43274632357E+01  0.19201554890E+02  0.47000000000E+01 0. -1.
        -11    1    4    4    0    0  0.79475497210E+01 -0.86002008102E+02  0.24865731084E+03  0.26322987516E+03  0.00000000000E+00 0.  1.
         12    1    4    4    0    0  0.47172286276E+02 -0.71834833978E+01  0.16126782669E+03  0.16817888973E+03  0.00000000000E+00 0. -1.
         -5    1    5    5    0  502  0.29904281045E+02  0.43097393383E+01  0.13286053550E+02  0.33338402735E+02  0.47000000000E+01 0.  1.
         11    1    6    6    0    0 -0.87160670334E+01 -0.57727331714E+01  0.17758712199E+03  0.17789457600E+03  0.00000000000E+00 0. -1.
        -12    1    6    6    0    0 -0.59329167791E+02  0.88355605963E+02  0.24245216848E+03  0.26478239604E+03  0.00000000000E+00 0.  1.
</event>
<event>
12    1  0.1066489E+000  0.1914188E+03  0.7818608E-02  0.1157230E+00
         21   -1    0    0  501  502  0.00000000000E+00  0.00000000000E+00  0.41182756505E+03  0.41182756505E+03  0.00000000000E+00 0.  1.
         21   -1    0    0  502  503 -0.00000000000E+00 -0.00000000000E+00 -0.89293010084E+02  0.89293010084E+02  0.00000000000E+00 0.  1.
         -6    2    1    2    0  503  0.68767382823E+02  0.46151696086E+02  0.14424805738E+03  0.23953454785E+03  0.17236695032E+03 0.  0.
        -24    2    3    3    0    0  0.38333665875E+02  0.89655750273E+01  0.17557722393E+01  0.89084688920E+02  0.79894603002E+02 0.  0.
          6    2    1    2  501    0 -0.68767382823E+02 -0.46151696086E+02  0.17828649758E+03  0.26158602728E+03  0.17257532401E+03 0.  0.
         24    2    5    5    0    0 -0.52645940514E+02  0.42023949157E+02  0.10174056614E+03  0.14361901945E+03  0.75747426321E+02 0.  0.
          5    1    5    5  501    0 -0.16121442309E+02 -0.88175645243E+02  0.76545931438E+02  0.11796700783E+03  0.47000000000E+01 0. -1.
        -13    1    6    6    0    0  0.15572516776E+02  0.20392221165E+02  0.10657172484E+02  0.27783471492E+02  0.00000000000E+00 0.  1.
         14    1    6    6    0    0 -0.68218457290E+02  0.21631727992E+02  0.91083393658E+02  0.11583554796E+03  0.00000000000E+00 0. -1.
         -5    1    3    3    0  503  0.30433716947E+02  0.37186121058E+02  0.14249228514E+03  0.15044985893E+03  0.47000000000E+01 0.  1.
         11    1    4    4    0    0  0.43972686399E+02  0.17734957716E+02  0.31927771085E+02  0.57162124181E+02  0.00000000000E+00 0. -1.
        -12    1    4    4    0    0 -0.56390205237E+01 -0.87693826889E+01 -0.30171998846E+02  0.31922564740E+02  0.00000000000E+00 0.  1.
</event>
<event>
12    1  0.1066489E+000  0.1980578E+03  0.7818608E-02  0.1151463E+00
         21   -1    0    0  501  502  0.00000000000E+00  0.00000000000E+00  0.55124025311E+02  0.55124025311E+02  0.00000000000E+00 0.  1.
         21   -1    0    0  502  503 -0.00000000000E+00 -0.00000000000E+00 -0.11460606764E+04  0.11460606764E+04  0.00000000000E+00 0.  1.
         -6    2    1    2    0  503  0.76038678029E+02  0.61221680273E+02 -0.91608277935E+03  0.93724838772E+03  0.17232790542E+03 0.  0.
        -24    2    3    3    0    0  0.21660486180E+02  0.48273605235E+02 -0.82619304343E+03  0.83129134445E+03  0.75172047498E+02 0.  0.
          6    2    1    2  501    0 -0.76038678029E+02 -0.61221680273E+02 -0.17485387171E+03  0.26393631396E+03  0.17192593371E+03 0.  0.
         24    2    5    5    0    0 -0.13300861108E+02 -0.87713243290E+02 -0.14904368949E+03  0.19095623387E+03  0.79873249108E+02 0.  0.
          5    1    5    5  501    0 -0.62737816921E+02  0.26491563018E+02 -0.25810182228E+02  0.72980080089E+02  0.47000000000E+01 0. -1.
        -11    1    6    6    0    0  0.97968154003E+01 -0.56278336805E+00 -0.71106049366E+02  0.71779973346E+02  0.00000000000E+00 0.  1.
         12    1    6    6    0    0 -0.23097676508E+02 -0.87150459922E+02 -0.77937640119E+02  0.11917626052E+03  0.00000000000E+00 0. -1.
         -5    1    3    3    0  503  0.54378191849E+02  0.12948075038E+02 -0.89889735919E+02  0.10595704327E+03  0.47000000000E+01 0.  1.
         11    1    4    4    0    0  0.31472707973E+02 -0.23774102613E+01 -0.15874620104E+03  0.16185345153E+03  0.00000000000E+00 0. -1.
        -12    1    4    4    0    0 -0.98122217921E+01  0.50651015496E+02 -0.66744684239E+03  0.66943789292E+03  0.00000000000E+00 0.  1.
</event>
<event>
12    1  0.1066489E+000  0.2832866E+03  0.7818608E-02  0.1094082E+00
         21   -1    0    0  501  502  0.00000000000E+00  0.00000000000E+00  0.17776934957E+03  0.17776934957E+03  0.00000000000E+00 0.  1.
         21   -1    0    0  502  503 -0.00000000000E+00 -0.00000000000E+00 -0.10817013529E+04  0.10817013529E+04  0.00000000000E+00 0. -1.
         -6    2    1    2    0  503 -0.22447902985E+03  0.17959084702E+02  0.29942229710E+02  0.28357502935E+03  0.16972005357E+03 0.  0.
        -24    2    3    3    0    0 -0.17810484052E+03  0.33591092815E+02 -0.36021280526E+02  0.20130595985E+03  0.79855250842E+02 0.  0.
          6    2    1    2  501    0  0.22447902985E+03 -0.17959084702E+02 -0.93387423305E+03  0.97589567312E+03  0.17186598877E+03 0.  0.
         24    2    5    5    0    0  0.38551918438E+02 -0.43358710297E+02 -0.29123711763E+03  0.30640438576E+03  0.75487487395E+02 0.  0.
          5    1    5    5  501    0  0.18592711141E+03  0.25399625595E+02 -0.64263711542E+03  0.66949128736E+03  0.47000000000E+01 0. -1.
        -13    1    6    6    0    0 -0.11821494068E+02  0.12872232072E+02 -0.85143184012E+02  0.86918374722E+02  0.00000000000E+00 0.  1.
         14    1    6    6    0    0  0.50373412506E+02 -0.56230942369E+02 -0.20609393362E+03  0.21948601104E+03  0.00000000000E+00 0. -1.
         -5    1    3    3    0  503 -0.46374189324E+02 -0.15632008113E+02  0.65963510236E+02  0.82269069496E+02  0.47000000000E+01 0.  1.
         13    1    4    4    0    0 -0.15742435133E+03  0.52311441731E+02 -0.15370586558E+02  0.16659882430E+03  0.00000000000E+00 0. -1.
        -14    1    4    4    0    0 -0.20680489197E+02 -0.18720348916E+02 -0.20650693968E+02  0.34707135554E+02  0.00000000000E+00 0.  1.
</event>
<event>
12    1  0.1066489E+000  0.2049915E+03  0.7818608E-02  0.1145639E+00
         21   -1    0    0  501  502  0.00000000000E+00  0.00000000000E+00  0.11493429985E+04  0.11493429985E+04  0.00000000000E+00 0. -1.
         21   -1    0    0  502  503 -0.00000000000E+00 -0.00000000000E+00 -0.40183860623E+02  0.40183860623E+02  0.00000000000E+00 0. -1.
         -6    2    1    2    0  503 -0.99919926078E+02 -0.49623613681E+02  0.73383865648E+03  0.76187399207E+03  0.17171578667E+03 0.  0.
        -24    2    3    3    0    0 -0.49981666780E+02 -0.92118834729E+02  0.38350602560E+03  0.40542663858E+03  0.79434506808E+02 0.  0.
          6    2    1    2  501    0  0.99919926078E+02  0.49623613681E+02  0.37532048143E+03  0.42765286708E+03  0.17197388255E+03 0.  0.
         24    2    5    5    0    0  0.10833449401E+03  0.72108770939E+02  0.37296241236E+03  0.40307568783E+03  0.80206057397E+02 0.  0.
          5    1    5    5  501    0 -0.84145679266E+01 -0.22485157258E+02  0.23580690626E+01  0.24577179252E+02  0.47000000000E+01 0. -1.
        -11    1    6    6    0    0  0.65554923411E+02  0.20215122935E+00  0.12147533518E+03  0.13803530673E+03  0.00000000000E+00 0.  1.
         12    1    6    6    0    0  0.42779570594E+02  0.71906619709E+02  0.25148707719E+03  0.26504038109E+03  0.00000000000E+00 0. -1.
         -5    1    3    3    0  503 -0.49938259298E+02  0.42495221048E+02  0.35033263088E+03  0.35644735349E+03  0.47000000000E+01 0.  1.
         11    1    4    4    0    0 -0.37449492640E+01  0.13726099171E+02  0.67249551951E+02  0.68738145749E+02  0.00000000000E+00 0. -1.
        -12    1    4    4    0    0 -0.46236717516E+02 -0.10584493390E+03  0.31625647365E+03  0.33668849283E+03  0.00000000000E+00 0.  1.
</event>
<event>
12    1  0.1066489E+000  0.1808766E+03  0.7818608E-02  0.1168852E+00
         21   -1    0    0  503  502  0.00000000000E+00  0.00000000000E+00  0.92424462834E+02  0.92424462834E+02  0.00000000000E+00 0.  1.
         21   -1    0    0  501  503 -0.00000000000E+00 -0.00000000000E+00 -0.33938873078E+03  0.33938873078E+03  0.00000000000E+00 0.  1.
          6    2    1    2  501    0  0.56543279033E+02  0.12848125942E+01 -0.12738145367E+03  0.21498059176E+03  0.16368209110E+03 0.  0.
         24    2    3    3    0    0  0.10700520769E+02 -0.20092582933E+02 -0.13918162467E+03  0.16282806967E+03  0.81383306600E+02 0.  0.
         -6    2    1    2    0  502 -0.56543279033E+02 -0.12848125942E+01 -0.11958281427E+03  0.21683260185E+03  0.17180667801E+03 0.  0.
        -24    2    5    5    0    0 -0.68562908146E+02 -0.35687126493E+02 -0.13739138239E+03  0.17600092562E+03  0.78265512793E+02 0.  0.
          5    1    3    3  501    0  0.45842758264E+02  0.21377395527E+02  0.11800170996E+02  0.52152522090E+02  0.47000000000E+01 0. -1.
        -11    1    4    4    0    0 -0.57298363034E+01  0.55747398329E+01 -0.13103995306E+03  0.13128357874E+03  0.00000000000E+00 0.  1.
         12    1    4    4    0    0  0.16430357072E+02 -0.25667322766E+02 -0.81416716079E+01  0.31544490930E+02  0.00000000000E+00 0. -1.
         -5    1    5    5    0  502  0.12019629113E+02  0.34402313899E+02  0.17808568119E+02  0.40831676234E+02  0.47000000000E+01 0.  1.
         13    1    6    6    0    0  0.68204030809E+01 -0.33861169306E+02 -0.40650946031E+02  0.53344128994E+02  0.00000000000E+00 0. -1.
        -14    1    6    6    0    0 -0.75383311227E+02 -0.18259571876E+01 -0.96740436359E+02  0.12265679662E+03  0.00000000000E+00 0.  1.
</event>
<event>
12    1  0.1066489E+000  0.3136518E+03  0.7818608E-02  0.1078622E+00
         21   -1    0    0  503  502  0.00000000000E+00  0.00000000000E+00  0.37670792856E+03  0.37670792856E+03  0.00000000000E+00 0. -1.
         21   -1    0    0  501  503 -0.00000000000E+00 -0.00000000000E+00 -0.26507386909E+03  0.26507386909E+03  0.00000000000E+00 0. -1.
          6    2    1    2  501    0 -0.24245994700E+03  0.99922360976E+02  0.95324353313E+02  0.32770624892E+03  0.17185269601E+03 0.  0.
         24    2    3    3    0    0 -0.24389621477E+03  0.12709262300E+03  0.90350261813E+02  0.29965063290E+03  0.77391430994E+02 0.  0.
         -6    2    1    2    0  502  0.24245994700E+03 -0.99922360976E+02  0.16309706155E+02  0.31407554873E+03  0.17206434748E+03 0.  0.
        -24    2    5    5    0    0  0.61186975584E+02  0.12523016132E+02 -0.26598919426E+00  0.10006457547E+03  0.78180410592E+02 0.  0.
          5    1    3    3  501    0  0.14362677706E+01 -0.27170262027E+02  0.49740915000E+01  0.28055616015E+02  0.47000000000E+01 0. -1.
        -11    1    4    4    0    0 -0.12552944476E+03  0.22055098050E+02  0.39885150424E+02  0.13354734770E+03  0.00000000000E+00 0.  1.
         12    1    4    4    0    0 -0.11836677000E+03  0.10503752495E+03  0.50465111389E+02  0.16610328521E+03  0.00000000000E+00 0. -1.
         -5    1    5    5    0  502  0.18127297141E+03 -0.11244537711E+03  0.16575695349E+02  0.21401097326E+03  0.47000000000E+01 0.  1.
         13    1    6    6    0    0  0.75488936253E+02  0.26559618213E+02 -0.22142915161E+00  0.80025257557E+02  0.00000000000E+00 0. -1.
        -14    1    6    6    0    0 -0.14301960669E+02 -0.14036602081E+02 -0.44560042646E-01  0.20039317917E+02  0.00000000000E+00 0.  1.
</event>
<event>
12    1  0.1066489E+000  0.1988457E+03  0.7818608E-02  0.1150935E+00
         21   -1    0    0  501  502  0.00000000000E+00  0.00000000000E+00  0.44461185270E+02  0.44461185270E+02  0.00000000000E+00 0.  1.
         21   -1    0    0  502  503 -0.00000000000E+00 -0.00000000000E+00 -0.10404038752E+04  0.10404038752E+04  0.00000000000E+00 0.  1.
         -6    2    1    2    0  503 -0.26598672243E+01 -0.97939238265E+02 -0.70670022609E+03  0.73386534060E+03  0.17185447130E+03 0.  0.
        -24    2    3    3    0    0 -0.61640478279E+02 -0.35147893785E+02 -0.30661228891E+03  0.32458070505E+03  0.79414201405E+02 0.  0.
          6    2    1    2  501    0  0.26598672243E+01  0.97939238265E+02 -0.28924246387E+03  0.35099971989E+03  0.17303303492E+03 0.  0.
         24    2    5    5    0    0  0.41529121868E+02  0.14963446925E+01 -0.97389752352E+02  0.13273015354E+03  0.80035134696E+02 0.  0.
          5    1    5    5  501    0 -0.38869254644E+02  0.96442893572E+02 -0.19185271152E+03  0.21826956635E+03  0.47000000000E+01 0. -1.
        -11    1    6    6    0    0  0.35895542413E+02 -0.17954897413E+02 -0.10396144307E+03  0.11143989390E+03  0.00000000000E+00 0.  1.
         12    1    6    6    0    0  0.56335794549E+01  0.19451242106E+02  0.65716907185E+01  0.21290259647E+02  0.00000000000E+00 0. -1.
         -5    1    3    3    0  503  0.58980611054E+02 -0.62791344480E+02 -0.40008793718E+03  0.40928463555E+03  0.47000000000E+01 0.  1.
         11    1    4    4    0    0 -0.61471118906E+02 -0.52268862245E+02 -0.28885557860E+03  0.29991378380E+03  0.00000000000E+00 0. -1.
        -12    1    4    4    0    0 -0.16935937313E+00  0.17120968460E+02 -0.17756710304E+02  0.24666921260E+02  0.00000000000E+00 0.  1.
</event>
<event>
12    1  0.1066489E+000  0.1888698E+03  0.7818608E-02  0.1159609E+00
         21   -1    0    0  501  502  0.00000000000E+00  0.00000000000E+00  0.15993604988E+03  0.15993604988E+03  0.00000000000E+00 0. -1.
         21   -1    0    0  502  503 -0.00000000000E+00 -0.00000000000E+00 -0.25713424564E+03  0.25713424564E+03  0.00000000000E+00 0. -1.
         -6    2    1    2    0  503  0.60348432680E+02  0.45454973307E+02  0.27991818996E+02  0.19093279470E+03  0.17310026642E+03 0.  0.
        -24    2    3    3    0    0  0.10407187288E+02 -0.49229839736E+01 -0.44020241179E+02  0.89740436384E+02  0.77349977185E+02 0.  0.
          6    2    1    2  501    0 -0.60348432680E+02 -0.45454973307E+02 -0.12519001476E+03  0.22613750082E+03  0.17250374360E+03 0.  0.
         24    2    5    5    0    0 -0.91219706250E+02 -0.37263247729E+02 -0.14529756136E+03  0.18810405067E+03  0.67543823572E+02 0.  0.
          5    1    5    5  501    0  0.30871273570E+02 -0.81917255782E+01  0.20107546598E+02  0.38033450145E+02  0.47000000000E+01 0. -1.
        -11    1    6    6    0    0 -0.68932813284E+01 -0.27748220978E+02 -0.66137955077E+02  0.72053523139E+02  0.00000000000E+00 0.  1.
         12    1    6    6    0    0 -0.84326424921E+02 -0.95150267506E+01 -0.79159606284E+02  0.11605052754E+03  0.00000000000E+00 0. -1.
         -5    1    3    3    0  503  0.49941245392E+02  0.50377957281E+02  0.72012060174E+02  0.10119235832E+03  0.47000000000E+01 0.  1.
         11    1    4    4    0    0 -0.20535710787E+02 -0.18131897034E+02  0.73221481762E+01  0.28356568225E+02  0.00000000000E+00 0. -1.
        -12    1    4    4    0    0  0.30942898075E+02  0.13208913060E+02 -0.51342389355E+02  0.61383868159E+02  0.00000000000E+00 0.  1.
</event>
<event>
12    1  0.1066489E+000  0.2037723E+03  0.7818608E-02  0.1146597E+00
         21   -1    0    0  503  502  0.00000000000E+00  0.00000000000E+00  0.15419533930E+03  0.15419533930E+03  0.00000000000E+00 0. -1.
         21   -1    0    0  501  503 -0.00000000000E+00 -0.00000000000E+00 -0.28426189629E+03  0.28426189629E+03  0.00000000000E+00 0. -1.
          6    2    1    2  501    0  0.10968589444E+03 -0.22302279389E+01 -0.11536535843E+03  0.23415529771E+03  0.17170779878E+03 0.  0.
         24    2    3    3    0    0  0.88645186929E+02  0.31928466514E+02 -0.11636565164E+02  0.12283916980E+03  0.77952907893E+02 0.  0.
         -6    2    1    2    0  502 -0.10968589444E+03  0.22302279389E+01 -0.14701198558E+02  0.20430193788E+03  0.17171833690E+03 0.  0.
        -24    2    5    5    0    0 -0.33985713566E+02  0.57851978135E+02  0.17174678271E+02  0.10499202900E+03  0.78908025439E+02 0.  0.
          5    1    3    3  501    0  0.21040707511E+02 -0.34158694452E+02 -0.10372879327E+03  0.11131612791E+03  0.47000000000E+01 0. -1.
        -13    1    4    4    0    0  0.14076284371E+02 -0.23673935869E+02  0.59407066051E+01  0.28176036204E+02  0.00000000000E+00 0.  1.
         14    1    4    4    0    0  0.74568902559E+02  0.55602402383E+02 -0.17577271769E+02  0.94663133597E+02  0.00000000000E+00 0. -1.
         -5    1    5    5    0  502 -0.75700180874E+02 -0.55621750197E+02 -0.31875876828E+02  0.99309908885E+02  0.47000000000E+01 0.  1.
         11    1    6    6    0    0 -0.28373499620E+00  0.66968123320E+02  0.22052011094E+01  0.67005021890E+02  0.00000000000E+00 0. -1.
        -12    1    6    6    0    0 -0.33701978570E+02 -0.91161451846E+01  0.14969477161E+02  0.37987007108E+02  0.00000000000E+00 0.  1.
</event>
<event>
12    1  0.1066489E+000  0.1824136E+03  0.7818608E-02  0.1166258E+00
         21   -1    0    0  501  502  0.00000000000E+00  0.00000000000E+00  0.45455916101E+03  0.45455916101E+03  0.00000000000E+00 0.  1.
         21   -1    0    0  502  503 -0.00000000000E+00 -0.00000000000E+00 -0.72667521723E+02  0.72667521723E+02  0.00000000000E+00 0.  1.
         -6    2    1    2    0  503  0.22407581089E+02  0.48535587008E+02  0.21937326653E+03  0.28530570576E+03  0.17440445171E+03 0.  0.
        -24    2    3    3    0    0  0.23594094908E+02  0.75014202682E+02  0.23048126400E+03  0.25618522309E+03  0.79532657188E+02 0.  0.
          6    2    1    2  501    0 -0.22407581089E+02 -0.48535587008E+02  0.16251837276E+03  0.24192097697E+03  0.17104307855E+03 0.  0.
         24    2    5    5    0    0  0.17960815369E+02 -0.69964244205E+02  0.48110327853E+02  0.11863235008E+03  0.80879196854E+02 0.  0.
          5    1    5    5  501    0 -0.40368396458E+02  0.21428657197E+02  0.11440804490E+03  0.12328862689E+03  0.47000000000E+01 0. -1.
        -13    1    6    6    0    0  0.49207756813E+02 -0.54230128805E+02  0.28935310278E+02  0.78737299811E+02  0.00000000000E+00 0.  1.
         14    1    6    6    0    0 -0.31246941444E+02 -0.15734115400E+02  0.19175017575E+02  0.39895050270E+02  0.00000000000E+00 0. -1.
         -5    1    3    3    0  503 -0.11865138191E+01 -0.26478615674E+02 -0.11107997466E+02  0.29120482667E+02  0.47000000000E+01 0.  1.
         13    1    4    4    0    0 -0.24078457233E+02  0.39521003045E+02  0.60887459127E+02  0.76478522889E+02  0.00000000000E+00 0. -1.
        -14    1    4    4    0    0  0.47672552141E+02  0.35493199637E+02  0.16959380487E+03  0.17970670020E+03  0.00000000000E+00 0.  1.
</event>
<event>
12    1  0.1066489E+000  0.2083551E+03  0.7818608E-02  0.1145953E+00
         21   -1    0    0  503  502  0.00000000000E+00  0.00000000000E+00  0.23773190195E+02  0.23773190195E+02  0.00000000000E+00 0. -1.
         21   -1    0    0  501  503 -0.00000000000E+00 -0.00000000000E+00 -0.17564999191E+04  0.17564999191E+04  0.00000000000E+00 0. -1.
          6    2    1    2  501    0  0.81325054214E+02 -0.33291463633E+02 -0.10585657784E+04  0.10788759761E+04  0.18891738591E+03 0.  0.
         24    2    3    3    0    0  0.89986083069E+02 -0.84778353859E+02 -0.89601117592E+03  0.90807784361E+03  0.80526258227E+02 0.  0.
         -6    2    1    2    0  502 -0.81325054214E+02  0.33291463633E+02 -0.67416095059E+03  0.70139713324E+03  0.17246119917E+03 0.  0.
        -24    2    5    5    0    0 -0.19321483491E+02  0.80162265885E+02 -0.35812093197E+03  0.37590566137E+03  0.79089542560E+02 0.  0.
          5    1    3    3  501    0 -0.86610288553E+01  0.51486890227E+02 -0.16255460244E+03  0.17079813249E+03  0.47000000000E+01 0. -1.
        -13    1    4    4    0    0  0.44246713070E+02 -0.90489638520E+02 -0.65474985970E+03  0.66245265874E+03  0.00000000000E+00 0.  1.
         14    1    4    4    0    0  0.45739369999E+02  0.57112846608E+01 -0.24126131622E+03  0.24562518487E+03  0.00000000000E+00 0. -1.
         -5    1    5    5    0  502 -0.62003570723E+02 -0.46870802253E+02 -0.31604001862E+03  0.32549147187E+03  0.47000000000E+01 0.  1.
         13    1    6    6    0    0 -0.67552278234E+01  0.58118356535E+02 -0.33931429475E+03  0.34432189459E+03  0.00000000000E+00 0. -1.
        -14    1    6    6    0    0 -0.12566255667E+02  0.22043909351E+02 -0.18806637215E+02  0.31583766785E+02  0.00000000000E+00 0.  1.
</event>
<event>
12    1  0.1066489E+000  0.2004236E+03  0.7818608E-02  0.1149717E+00
         21   -1    0    0  501  502  0.00000000000E+00  0.00000000000E+00  0.53156657229E+03  0.53156657229E+03  0.00000000000E+00 0. -1.
         21   -1    0    0  502  503 -0.00000000000E+00 -0.00000000000E+00 -0.10178905034E+03  0.10178905034E+03  0.00000000000E+00 0. -1.
         -6    2    1    2    0  503  0.52536941100E+02 -0.88228961369E+02  0.52972104465E+02  0.20730572942E+03  0.17211955668E+03 0.  0.
        -24    2    3    3    0    0 -0.38114306804E+02 -0.26368667207E+02  0.28089630755E+02  0.94675483751E+02  0.77629974071E+02 0.  0.
          6    2    1    2  501    0 -0.52536941100E+02  0.88228961369E+02  0.37680541748E+03  0.42604989322E+03  0.17026951889E+03 0.  0.
         24    2    5    5    0    0 -0.94117369478E+02  0.30580290898E+02  0.26782090128E+03  0.29584998538E+03  0.77498033873E+02 0.  0.
          5    1    5    5  501    0  0.41580428378E+02  0.57648670471E+02  0.10898451619E+03  0.13019990784E+03  0.47000000000E+01 0. -1.
        -11    1    6    6    0    0 -0.16445994306E+02  0.10203660662E+02  0.35866314105E+01  0.19683732992E+02  0.00000000000E+00 0.  1.
         12    1    6    6    0    0 -0.77671375172E+02  0.20376630236E+02  0.26423426987E+03  0.27616625239E+03  0.00000000000E+00 0. -1.
         -5    1    3    3    0  503  0.90651247904E+02 -0.61860294163E+02  0.24882473710E+02  0.11263024566E+03  0.47000000000E+01 0.  1.
         11    1    4    4    0    0 -0.43946574517E+02 -0.35615573654E+02 -0.78511256854E+01  0.57108761788E+02  0.00000000000E+00 0. -1.
        -12    1    4    4    0    0  0.58322677128E+01  0.92469064477E+01  0.35940756440E+02  0.37566721963E+02  0.00000000000E+00 0.  1.
</event>
<event>
12    1  0.1066489E+000  0.6838214E+03  0.7818608E-02  0.9745474E-01
         21   -1    0    0  501  502  0.00000000000E+00  0.00000000000E+00  0.61383122516E+03  0.61383122516E+03  0.00000000000E+00 0. -1.
         21   -1    0    0  502  503 -0.00000000000E+00 -0.00000000000E+00 -0.77181503438E+03  0.77181503438E+03  0.00000000000E+00 0. -1.
         -6    2    1    2    0  503  0.19654346294E+03  0.63201669773E+03 -0.15961324787E+03  0.70220236092E+03  0.17186427128E+03 0.  0.
        -24    2    3    3    0    0  0.12697413365E+03  0.39067512755E+03 -0.16575872732E+03  0.45091467321E+03  0.84253195368E+02 0.  0.
          6    2    1    2  501    0 -0.19654346294E+03 -0.63201669773E+03  0.16294386515E+01  0.68344389862E+03  0.17034808027E+03 0.  0.
         24    2    5    5    0    0 -0.11840288566E+03 -0.52810387015E+03 -0.35228033003E+02  0.54822411912E+03  0.79973304709E+02 0.  0.
          5    1    5    5  501    0 -0.78140577274E+02 -0.10391282758E+03  0.36857471655E+02  0.13521977950E+03  0.47000000000E+01 0. -1.
        -11    1    6    6    0    0 -0.12495622249E+03 -0.51142999430E+03 -0.23876204856E+02  0.52701496162E+03  0.00000000000E+00 0.  1.
         12    1    6    6    0    0  0.65533368268E+01 -0.16673875851E+02 -0.11351828147E+02  0.21209157497E+02  0.00000000000E+00 0. -1.
         -5    1    3    3    0  503  0.69569329285E+02  0.24134157019E+03  0.61454794481E+01  0.25128768771E+03  0.47000000000E+01 0.  1.
         13    1    4    4    0    0  0.52289965336E+02  0.27706178060E+03 -0.94211815271E+02  0.29727653268E+03  0.00000000000E+00 0. -1.
        -14    1    4    4    0    0  0.74684168316E+02  0.11361334695E+03 -0.71546912051E+02  0.15363814053E+03  0.00000000000E+00 0.  1.
</event>
<event>
12    1  0.1066489E+000  0.2022830E+03  0.7818608E-02  0.1148575E+00
         21   -1    0    0  501  502  0.00000000000E+00  0.00000000000E+00  0.72469297242E+03  0.72469297242E+03  0.00000000000E+00 0. -1.
         21   -1    0    0  502  503 -0.00000000000E+00 -0.00000000000E+00 -0.27321069910E+03  0.27321069910E+03  0.00000000000E+00 0. -1.
         -6    2    1    2    0  503 -0.64336045517E+02 -0.80311403376E+02  0.67075777137E+03  0.69957474512E+03  0.16999937615E+03 0.  0.
        -24    2    3    3    0    0 -0.10161128175E+03 -0.54055826449E+02  0.37962199661E+03  0.40485296462E+03  0.80908452583E+02 0.  0.
          6    2    1    2  501    0  0.64336045517E+02  0.80311403376E+02 -0.21927549804E+03  0.29832892640E+03  0.17415325442E+03 0.  0.
         24    2    5    5    0    0 -0.64009578444E+01  0.99688734871E+02 -0.12514040310E+03  0.17890233506E+03  0.79794165708E+02 0.  0.
          5    1    5    5  501    0  0.70737003361E+02 -0.19377331495E+02 -0.94135094942E+02  0.11942659134E+03  0.47000000000E+01 0. -1.
        -11    1    6    6    0    0  0.81279135124E+01  0.98160408955E+02 -0.67417234997E+02  0.11935917409E+03  0.00000000000E+00 0.  1.
         12    1    6    6    0    0 -0.14528871357E+02  0.15283259153E+01 -0.57723168100E+02  0.59543160972E+02  0.00000000000E+00 0. -1.
         -5    1    3    3    0  503  0.37275236235E+02 -0.26255576927E+02  0.29113577476E+03  0.29472178050E+03  0.47000000000E+01 0.  1.
         11    1    4    4    0    0 -0.14552410023E+02  0.14651881994E+02  0.20913592242E+02  0.29390961602E+02  0.00000000000E+00 0. -1.
        -12    1    4    4    0    0 -0.87058871729E+02 -0.68707708443E+02  0.35870840437E+03  0.37546200302E+03  0.00000000000E+00 0.  1.
</event>
<event>
12    1  0.1066489E+000  0.2031316E+03  0.7818608E-02  0.1147134E+00
         21   -1    0    0  501  502  0.00000000000E+00  0.00000000000E+00  0.21157342607E+03  0.21157342607E+03  0.00000000000E+00 0. -1.
         21   -1    0    0  502  503 -0.00000000000E+00 -0.00000000000E+00 -0.23663603318E+03  0.23663603318E+03  0.00000000000E+00 0. -1.
         -6    2    1    2    0  503  0.54104719066E+02 -0.94538854506E+02  0.81497808764E+02  0.21882428645E+03  0.17139795760E+03 0.  0.
        -24    2    3    3    0    0  0.94034783118E+01 -0.12528549072E+03  0.68251903366E+02  0.16277876412E+03  0.77805681961E+02 0.  0.
          6    2    1    2  501    0 -0.54104719066E+02  0.94538854506E+02 -0.10656041588E+03  0.22938517280E+03  0.17145704895E+03 0.  0.
         24    2    5    5    0    0  0.26649243044E+02  0.40596099214E+02 -0.11351266887E+02  0.93304699198E+02  0.78858672360E+02 0.  0.
          5    1    5    5  501    0 -0.80753962110E+02  0.53942755292E+02 -0.95209148988E+02  0.13608047360E+03  0.47000000000E+01 0. -1.
        -13    1    6    6    0    0  0.13025653978E+02  0.55828513270E+01 -0.42311276993E+02  0.44621520046E+02  0.00000000000E+00 0.  1.
         14    1    6    6    0    0  0.13623589066E+02  0.35013247887E+02  0.30960010105E+02  0.48683179152E+02  0.00000000000E+00 0. -1.
         -5    1    3    3    0  503  0.44701240754E+02  0.30746636213E+02  0.13245905399E+02  0.56045522330E+02  0.47000000000E+01 0.  1.
         11    1    4    4    0    0  0.13251963778E+02 -0.12848690213E+03  0.41661081489E+02  0.13572083213E+03  0.00000000000E+00 0. -1.
        -12    1    4    4    0    0 -0.38484854663E+01  0.32014114108E+01  0.26590821877E+02  0.27057931988E+02  0.00000000000E+00 0.  1.
</event>
<event>
12    1  0.1066489E+000  0.2567415E+03  0.7818608E-02  0.1109124E+00
         21   -1    0    0  503  502  0.00000000000E+00  0.00000000000E+00  0.79518289655E+02  0.79518289655E+02  0.00000000000E+00 0. -1.
         21   -1    0    0  501  503 -0.00000000000E+00 -0.00000000000E+00 -0.10106313976E+04  0.10106313976E+04  0.00000000000E+00 0. -1.
          6    2    1    2  501    0  0.18982190287E+03  0.69730139464E+01 -0.69679047895E+03  0.74258546933E+03  0.17272877574E+03 0.  0.
         24    2    3    3    0    0  0.99766935737E+02 -0.15189292380E+02 -0.20683359338E+03  0.24390630930E+03  0.80783638799E+02 0.  0.
         -6    2    1    2    0  502 -0.18982190287E+03 -0.69730139464E+01 -0.23432262896E+03  0.34756421789E+03  0.17266387399E+03 0.  0.
        -24    2    5    5    0    0 -0.26996819345E+02  0.27332838856E+02 -0.98589899914E+02  0.13277510481E+03  0.80208152696E+02 0.  0.
          5    1    3    3  501    0  0.90054967135E+02  0.22162306326E+02 -0.48995688557E+03  0.49867916002E+03  0.47000000000E+01 0. -1.
        -11    1    4    4    0    0 -0.46479689971E+01 -0.15947219605E+01  0.52076706352E+01  0.71600689504E+01  0.00000000000E+00 0.  1.
         12    1    4    4    0    0  0.10441490473E+03 -0.13594570420E+02 -0.21204126402E+03  0.23674624035E+03  0.00000000000E+00 0. -1.
         -5    1    5    5    0  502 -0.16282508353E+03 -0.34305852802E+02 -0.13573272904E+03  0.21478911308E+03  0.47000000000E+01 0.  1.
         11    1    6    6    0    0 -0.20408615536E+02  0.14981133017E+02 -0.11113218075E+03  0.11397941714E+03  0.00000000000E+00 0. -1.
        -12    1    6    6    0    0 -0.65882038093E+01  0.12351705839E+02  0.12542280833E+02  0.18795687672E+02  0.00000000000E+00 0.  1.
</event>
<event>
12    1  0.1066489E+000  0.1769966E+03  0.7818608E-02  0.1170955E+00
         21   -1    0    0  501  502  0.00000000000E+00  0.00000000000E+00  0.25572074625E+02  0.25572074625E+02  0.00000000000E+00 0.  1.
         21   -1    0    0  502  503 -0.00000000000E+00 -0.00000000000E+00 -0.12225277799E+04  0.12225277799E+04  0.00000000000E+00 0.  1.
         -6    2    1    2    0  503 -0.65234962941E+01 -0.38763407013E+02 -0.56703948595E+03  0.59402152184E+03  0.17257645278E+03 0.  0.
        -24    2    3    3    0    0 -0.42175719892E+02  0.26123791514E+02 -0.40259415260E+03  0.41361701180E+03  0.80843904622E+02 0.  0.
          6    2    1    2  501    0  0.65234962941E+01  0.38763407013E+02 -0.62991621933E+03  0.65407833269E+03  0.17169410064E+03 0.  0.
         24    2    5    5    0    0 -0.17315908249E+02  0.98708136049E+01 -0.13962328410E+03  0.16233413954E+03  0.80376848391E+02 0.  0.
          5    1    5    5  501    0  0.23839404543E+02  0.28892593408E+02 -0.49029293523E+03  0.49174419315E+03  0.47000000000E+01 0. -1.
        -11    1    6    6    0    0  0.91709658515E+01 -0.31940621133E+02 -0.52506068267E+02  0.62138531507E+02  0.00000000000E+00 0.  1.
         12    1    6    6    0    0 -0.26486874100E+02  0.41811434737E+02 -0.87117215836E+02  0.10019560803E+03  0.00000000000E+00 0. -1.
         -5    1    3    3    0  503  0.35652223598E+02 -0.64887198527E+02 -0.16444533335E+03  0.18040451003E+03  0.47000000000E+01 0.  1.
         11    1    4    4    0    0 -0.52014971632E+01 -0.26938807951E+02 -0.16995820726E+03  0.17215849430E+03  0.00000000000E+00 0. -1.
        -12    1    4    4    0    0 -0.36974222728E+02  0.53062599465E+02 -0.23263594534E+03  0.24145851750E+03  0.00000000000E+00 0.  1.
</event>
<event>
12    1  0.1066489E+000  0.2850223E+03  0.7818608E-02  0.1093045E+00
         21   -1    0    0  501  502  0.00000000000E+00  0.00000000000E+00  0.22777936714E+03  0.22777936714E+03  0.00000000000E+00 0.  1.
         21   -1    0    0  502  503 -0.00000000000E+00 -0.00000000000E+00 -0.55845887415E+03  0.55845887415E+03  0.00000000000E+00 0. -1.
         -6    2    1    2    0  503 -0.31910640836E+02  0.22485462599E+03  0.71257566099E+02  0.29379473718E+03  0.17222025154E+03 0.  0.
        -24    2    3    3    0    0 -0.89454726268E+01  0.21372013722E+03  0.10517381199E+03  0.25108902882E+03  0.78916735458E+02 0.  0.
          6    2    1    2  501    0  0.31910640836E+02 -0.22485462599E+03 -0.40193707311E+03  0.49244350411E+03  0.17137474191E+03 0.  0.
         24    2    5    5    0    0 -0.15818559860E+02 -0.22112017465E+03 -0.34239811348E+03  0.41589939630E+03  0.81187937874E+02 0.  0.
          5    1    5    5  501    0  0.47729200696E+02 -0.37344513460E+01 -0.59538959639E+02  0.76544107812E+02  0.47000000000E+01 0. -1.
        -11    1    6    6    0    0  0.16367417588E+01 -0.98034145111E+02 -0.83834931015E+02  0.12900258986E+03  0.00000000000E+00 0.  1.
         12    1    6    6    0    0 -0.17455301619E+02 -0.12308602953E+03 -0.25856318246E+03  0.28689680644E+03  0.00000000000E+00 0. -1.
         -5    1    3    3    0  503 -0.22965168209E+02  0.11134488776E+02 -0.33916245890E+02  0.42705708359E+02  0.47000000000E+01 0.  1.
         13    1    4    4    0    0 -0.83039841664E+01  0.40692576909E+02 -0.10646967378E+02  0.42874233321E+02  0.00000000000E+00 0. -1.
        -14    1    4    4    0    0 -0.64148846038E+00  0.17302756031E+03  0.11582077937E+03  0.20821479550E+03  0.00000000000E+00 0.  1.
</event>
<event>
12    1  0.1066489E+000  0.2042368E+03  0.7818608E-02  0.1146618E+00
         21   -1    0    0  503  502  0.00000000000E+00  0.00000000000E+00  0.92774274766E+03  0.92774274766E+03  0.00000000000E+00 0.  1.
         21   -1    0    0  501  503 -0.00000000000E+00 -0.00000000000E+00 -0.44678788834E+02  0.44678788834E+02  0.00000000000E+00 0.  1.
          6    2    1    2  501    0  0.49588135186E+02  0.95212606604E+02  0.41141781187E+03  0.45845389067E+03  0.17143783226E+03 0.  0.
         24    2    3    3    0    0  0.23438136466E+02  0.83635285997E+01  0.31925633942E+03  0.32906141875E+03  0.75746367566E+02 0.  0.
         -6    2    1    2    0  502 -0.49588135186E+02 -0.95212606604E+02  0.47164614696E+03  0.51396764583E+03  0.17374760262E+03 0.  0.
        -24    2    5    5    0    0 -0.82045539906E+02 -0.83313911941E+02  0.23243749156E+03  0.27222825543E+03  0.80052214401E+02 0.  0.
          5    1    3    3  501    0  0.26149998721E+02  0.86849078004E+02  0.92161472457E+02  0.12939247192E+03  0.47000000000E+01 0. -1.
        -13    1    4    4    0    0 -0.26936083630E+02  0.18638730590E+01  0.78745734795E+02  0.83246125270E+02  0.00000000000E+00 0.  1.
         14    1    4    4    0    0  0.50374220095E+02  0.64996555406E+01  0.24051060462E+03  0.24581529348E+03  0.00000000000E+00 0. -1.
         -5    1    5    5    0  502  0.32457404719E+02 -0.11898694663E+02  0.23920865540E+03  0.24173939041E+03  0.47000000000E+01 0.  1.
         11    1    6    6    0    0 -0.41575131466E+02 -0.77430628485E+02  0.97660469592E+02  0.13138326037E+03  0.00000000000E+00 0. -1.
        -12    1    6    6    0    0 -0.40470408439E+02 -0.58832834556E+01  0.13477702197E+03  0.14084499506E+03  0.00000000000E+00 0.  1.
</event>
<event>
12    1  0.1066489E+000  0.1938988E+03  0.7818608E-02  0.1155070E+00
         21   -1    0    0  501  502  0.00000000000E+00  0.00000000000E+00  0.43293329543E+03  0.43293329543E+03  0.00000000000E+00 0.  1.
         21   -1    0    0  502  503 -0.00000000000E+00 -0.00000000000E+00 -0.17169221501E+03  0.17169221501E+03  0.00000000000E+00 0.  1.
         -6    2    1    2    0  503 -0.60054922688E+02 -0.65090328790E+02 -0.82042804022E+02  0.21054161759E+03  0.17249175750E+03 0.  0.
        -24    2    3    3    0    0  0.21778792267E+02 -0.71192557736E+02 -0.60281959387E+02  0.12551445452E+03  0.81100355091E+02 0.  0.
          6    2    1    2  501    0  0.60054922688E+02  0.65090328790E+02  0.34328388445E+03  0.39408389285E+03  0.17208993183E+03 0.  0.
         24    2    5    5    0    0  0.10118709937E+03  0.57427773181E+02  0.20005137321E+03  0.24479151865E+03  0.79784443778E+02 0.  0.
          5    1    5    5  501    0 -0.41132176679E+02  0.76625556093E+01  0.14323251124E+03  0.14929237419E+03  0.47000000000E+01 0. -1.
        -13    1    6    6    0    0  0.59845766009E+02  0.24431893176E+02  0.17442227382E+03  0.18601495294E+03  0.00000000000E+00 0.  1.
         14    1    6    6    0    0  0.41341333357E+02  0.32995880005E+02  0.25629099394E+02  0.58776565711E+02  0.00000000000E+00 0. -1.
         -5    1    3    3    0  503 -0.81833714955E+02  0.61022289458E+01 -0.21760844635E+02  0.85027163075E+02  0.47000000000E+01 0.  1.
         13    1    4    4    0    0  0.31328439310E+02 -0.76488258896E+02 -0.21755843848E+02  0.85470706094E+02  0.00000000000E+00 0. -1.
        -14    1    4    4    0    0 -0.95496470428E+01  0.52957011602E+01 -0.38526115538E+02  0.40043748425E+02  0.00000000000E+00 0.  1.
</event>
<event>
12    1  0.1066489E+000  0.2128902E+03  0.7818608E-02  0.1139708E+00
         21   -1    0    0  503  502  0.00000000000E+00  0.00000000000E+00  0.14909713023E+04  0.14909713023E+04  0.00000000000E+00 0. -1.
         21   -1    0    0  501  503 -0.00000000000E+00 -0.00000000000E+00 -0.55721015741E+02  0.55721015741E+02  0.00000000000E+00 0. -1.
          6    2    1    2  501    0  0.78512199271E+02 -0.95648953647E+02  0.19129664120E+03  0.28465313707E+03  0.17064617119E+03 0.  0.
         24    2    3    3    0    0  0.10866202518E+03 -0.34043345792E+02  0.10326358024E+03  0.17295634775E+03  0.79272606337E+02 0.  0.
         -6    2    1    2    0  502 -0.78512199271E+02  0.95648953647E+02  0.12439536454E+04  0.12620391810E+04  0.17323202570E+03 0.  0.
        -24    2    5    5    0    0 -0.88135369770E+02  0.85300793961E+02  0.60072691702E+03  0.61864007943E+03  0.82453927619E+02 0.  0.
          5    1    3    3  501    0 -0.30149825913E+02 -0.61605607855E+02  0.88033060962E+02  0.11169678932E+03  0.47000000000E+01 0. -1.
        -11    1    4    4    0    0  0.37225587003E+02 -0.53049489053E+02  0.46875300449E+02  0.79983038256E+02  0.00000000000E+00 0.  1.
         12    1    4    4    0    0  0.71436438181E+02  0.19006143261E+02  0.56388279789E+02  0.92973309499E+02  0.00000000000E+00 0. -1.
         -5    1    5    5    0  502  0.96231704990E+01  0.10348159686E+02  0.64322672838E+03  0.64339910158E+03  0.47000000000E+01 0.  1.
         13    1    6    6    0    0  0.13680743663E+02  0.59568330721E+01  0.11850709181E+03  0.11944277884E+03  0.00000000000E+00 0. -1.
        -14    1    6    6    0    0 -0.10181611343E+03  0.79343960889E+02  0.48221982522E+03  0.49919730059E+03  0.00000000000E+00 0.  1.
</event>
<event>
12    1  0.1066489E+000  0.2140623E+03  0.7818608E-02  0.1138830E+00
         21   -1    0    0  501  502  0.00000000000E+00  0.00000000000E+00  0.40425164185E+03  0.40425164185E+03  0.00000000000E+00 0.  1.
         21   -1    0    0  502  503 -0.00000000000E+00 -0.00000000000E+00 -0.14163977986E+03  0.14163977986E+03  0.00000000000E+00 0.  1.
         -6    2    1    2    0  503  0.12475926882E+03  0.20240402003E+02  0.62146656700E+01  0.21188217166E+03  0.16994376590E+03 0.  0.
        -24    2    3    3    0    0  0.75395202909E+02  0.63501624733E+02 -0.39323854206E+02  0.13185598102E+03  0.78247947296E+02 0.  0.
          6    2    1    2  501    0 -0.12475926882E+03 -0.20240402003E+02  0.25639719632E+03  0.33400925005E+03  0.17276604934E+03 0.  0.
         24    2    5    5    0    0 -0.83448180260E+02 -0.81020270012E+02  0.16666135820E+03  0.21792562056E+03  0.78661838492E+02 0.  0.
          5    1    5    5  501    0 -0.41311088558E+02  0.60779868009E+02  0.89735838117E+02  0.11608362949E+03  0.47000000000E+01 0. -1.
        -13    1    6    6    0    0  0.78249663233E+01 -0.57786480503E+01 -0.37994768514E+01  0.10443126715E+02  0.00000000000E+00 0.  1.
         14    1    6    6    0    0 -0.91273146583E+02 -0.75241621961E+02  0.17046083506E+03  0.20748249384E+03  0.00000000000E+00 0. -1.
         -5    1    3    3    0  503  0.49364065909E+02 -0.43261222730E+02  0.45538519876E+02  0.80026190636E+02  0.47000000000E+01 0.  1.
         11    1    4    4    0    0  0.66393555387E+02  0.33234067215E+02  0.83050323534E+01  0.74709979140E+02  0.00000000000E+00 0. -1.
        -12    1    4    4    0    0  0.90016475217E+01  0.30267557517E+02 -0.47628886559E+02  0.57146001882E+02  0.00000000000E+00 0.  1.
</event>
<event>
12    1  0.1066489E+000  0.2019137E+03  0.7818608E-02  0.1148809E+00
         21   -1    0    0  503  502  0.00000000000E+00  0.00000000000E+00  0.82550523360E+03  0.82550523360E+03  0.00000000000E+00 0. -1.
         21   -1    0    0  501  503 -0.00000000000E+00 -0.00000000000E+00 -0.55756888960E+02  0.55756888960E+02  0.00000000000E+00 0. -1.
          6    2    1    2  501    0 -0.67947037832E+02  0.79793174734E+02  0.53999071408E+03  0.57539008783E+03  0.16881952255E+03 0.  0.
         24    2    3    3    0    0 -0.55667870174E+02  0.24878974310E+02  0.14736961596E+03  0.17872932086E+03  0.80675221062E+02 0.  0.
         -6    2    1    2    0  502  0.67947037832E+02 -0.79793174734E+02  0.22975763057E+03  0.30587203474E+03  0.17258442035E+03 0.  0.
        -24    2    5    5    0    0  0.98108044156E+02 -0.14142137274E+02  0.13358696864E+03  0.18549499691E+03  0.82083660441E+02 0.  0.
          5    1    3    3  501    0 -0.12279167658E+02  0.54914200424E+02  0.39262109811E+03  0.39666076697E+03  0.47000000000E+01 0. -1.
        -11    1    4    4    0    0 -0.76037347765E+02  0.11879813710E+02  0.11261106569E+03  0.13639670211E+03  0.00000000000E+00 0.  1.
         12    1    4    4    0    0  0.20369477591E+02  0.12999160600E+02  0.34758550267E+02  0.42332618751E+02  0.00000000000E+00 0. -1.
         -5    1    5    5    0  502 -0.30161006324E+02 -0.65651037460E+02  0.96170661923E+02  0.12037703783E+03  0.47000000000E+01 0.  1.
         11    1    6    6    0    0  0.81807765087E+02 -0.45183685918E+02  0.92692414853E+02  0.13162811126E+03  0.00000000000E+00 0. -1.
        -12    1    6    6    0    0  0.16300279069E+02  0.31041548644E+02  0.40894553791E+02  0.53866885651E+02  0.00000000000E+00 0.  1.
</event>
<event>
12    1  0.1066489E+000  0.1949996E+03  0.7818608E-02  0.1154650E+00
         21   -1    0    0  503  502  0.00000000000E+00  0.00000000000E+00  0.63114986515E+03  0.63114986515E+03  0.00000000000E+00 0. -1.
         21   -1    0    0  501  503 -0.00000000000E+00 -0.00000000000E+00 -0.81539570958E+02  0.81539570958E+02  0.00000000000E+00 0. -1.
          6    2    1    2  501    0 -0.16809975321E+02 -0.85467017422E+02  0.90485603921E+02  0.21497090859E+03  0.17446392373E+03 0.  0.
         24    2    3    3    0    0 -0.73377844700E+02 -0.32734288957E+02  0.74621005758E+02  0.13588589122E+03  0.80254838887E+02 0.  0.
         -6    2    1    2    0  502  0.16809975321E+02  0.85467017422E+02  0.45912469027E+03  0.49771852752E+03  0.17129233808E+03 0.  0.
        -24    2    5    5    0    0  0.53870814883E+02  0.10787541593E+03  0.39315095729E+03  0.41865990626E+03  0.78544712301E+02 0.  0.
          5    1    3    3  501    0  0.56567869379E+02 -0.52732728466E+02  0.15864598163E+02  0.79085017370E+02  0.47000000000E+01 0. -1.
        -13    1    4    4    0    0 -0.72411429590E+02 -0.37314474149E+02  0.23822600480E+02  0.84872265258E+02  0.00000000000E+00 0.  1.
         14    1    4    4    0    0 -0.96641510965E+00  0.45801851925E+01  0.50798405279E+02  0.51013625958E+02  0.00000000000E+00 0. -1.
         -5    1    5    5    0  502 -0.37060839562E+02 -0.22408398510E+02  0.65973732980E+02  0.79058621264E+02  0.47000000000E+01 0.  1.
         13    1    6    6    0    0  0.11762799668E+02 -0.91098275165E+01  0.17509801363E+02  0.22977065896E+02  0.00000000000E+00 0. -1.
        -14    1    6    6    0    0  0.42108015215E+02  0.11698524345E+03  0.37564115593E+03  0.39568284036E+03  0.00000000000E+00 0.  1.
</event>
<event>
12    1  0.1066489E+000  0.1891265E+03  0.7818608E-02  0.1159425E+00
         21   -1    0    0  503  502  0.00000000000E+00  0.00000000000E+00  0.37509340922E+02  0.37509340922E+02  0.00000000000E+00 0.  1.
         21   -1    0    0  501  503 -0.00000000000E+00 -0.00000000000E+00 -0.95652107530E+03  0.95652107530E+03  0.00000000000E+00 0.  1.
          6    2    1    2  501    0 -0.74735136785E+02 -0.13201009025E+02 -0.50037403848E+03  0.53465435380E+03  0.17239922372E+03 0.  0.
         24    2    3    3    0    0  0.60127725560E+01  0.31386663664E+02 -0.15638563588E+03  0.17848249002E+03  0.79863984666E+02 0.  0.
         -6    2    1    2    0  502  0.74735136785E+02  0.13201009025E+02 -0.41863769589E+03  0.45937606242E+03  0.17323174938E+03 0.  0.
        -24    2    5    5    0    0  0.35702205878E+02  0.69826426503E+02 -0.31832774721E+03  0.33766253234E+03  0.80827308253E+02 0.  0.
          5    1    3    3  501    0 -0.80747909341E+02 -0.44587672689E+02 -0.34398840261E+03  0.35617186378E+03  0.47000000000E+01 0. -1.
        -11    1    4    4    0    0 -0.62617724326E+01 -0.99561307620E+01  0.39819062888E+01  0.12417323038E+02  0.00000000000E+00 0.  1.
         12    1    4    4    0    0  0.12274544989E+02  0.41342794426E+02 -0.16036754216E+03  0.16606516698E+03  0.00000000000E+00 0. -1.
         -5    1    5    5    0  502  0.39032930908E+02 -0.56625417477E+02 -0.10030994868E+03  0.12171353008E+03  0.47000000000E+01 0.  1.
         11    1    6    6    0    0  0.21345638374E+02  0.25767590768E+02 -0.27914325635E+02  0.43575389697E+02  0.00000000000E+00 0. -1.
        -12    1    6    6    0    0  0.14356567503E+02  0.44058835735E+02 -0.29041342157E+03  0.29408714264E+03  0.00000000000E+00 0.  1.
</event>
<event>
12    1  0.1066489E+000  0.4493921E+03  0.7818608E-02  0.1027909E+00
         21   -1    0    0  501  502  0.00000000000E+00  0.00000000000E+00  0.22666485477E+03  0.22666485477E+03  0.00000000000E+00 0. -1.
         21   -1    0    0  502  503 -0.00000000000E+00 -0.00000000000E+00 -0.92112797570E+03  0.92112797570E+03  0.00000000000E+00 0. -1.
         -6    2    1    2    0  503  0.22739480917E+03 -0.34768748393E+03 -0.24311784839E+03  0.51087384173E+03  0.17114557616E+03 0.  0.
        -24    2    3    3    0    0  0.30492228069E+02 -0.12845879178E+03 -0.70539327915E+02  0.16935183419E+03  0.79201071974E+02 0.  0.
          6    2    1    2  501    0 -0.22739480917E+03  0.34768748393E+03 -0.45134527254E+03  0.63691898875E+03  0.17134251506E+03 0.  0.
         24    2    5    5    0    0 -0.17537052795E+03  0.33298080579E+03 -0.34236114577E+03  0.51517153660E+03  0.80990856824E+02 0.  0.
          5    1    5    5  501    0 -0.52024281215E+02  0.14706678142E+02 -0.10898412677E+03  0.12174745215E+03  0.47000000000E+01 0. -1.
        -13    1    6    6    0    0 -0.43564497189E+02  0.16037593616E+03 -0.17179724652E+03  0.23902426703E+03  0.00000000000E+00 0.  1.
         14    1    6    6    0    0 -0.13180603076E+03  0.17260486963E+03 -0.17056389924E+03  0.27614726957E+03  0.00000000000E+00 0. -1.
         -5    1    3    3    0  503  0.19690258110E+03 -0.21922869215E+03 -0.17257852048E+03  0.34152200754E+03  0.47000000000E+01 0.  1.
         11    1    4    4    0    0  0.94289126760E+00 -0.31231662857E+01  0.14612582446E+02  0.14972333730E+02  0.00000000000E+00 0. -1.
        -12    1    4    4    0    0  0.29549336802E+02 -0.12533562549E+03 -0.85151910361E+02  0.15437950046E+03  0.00000000000E+00 0.  1.
</event>
<event>
12    1  0.1066489E+000  0.2527560E+03  0.7818608E-02  0.1111630E+00
         21   -1    0    0  501  502  0.00000000000E+00  0.00000000000E+00  0.18647886124E+03  0.18647886124E+03  0.00000000000E+00 0. -1.
         21   -1    0    0  502  503 -0.00000000000E+00 -0.00000000000E+00 -0.49409461382E+03  0.49409461382E+03  0.00000000000E+00 0. -1.
         -6    2    1    2    0  503 -0.16881166336E+03 -0.76709740859E+02 -0.34246073985E+03  0.42542695423E+03  0.17125119861E+03 0.  0.
        -24    2    3    3    0    0 -0.18562229131E+03 -0.95504430316E+02 -0.32321263831E+03  0.39335801323E+03  0.81776437743E+02 0.  0.
          6    2    1    2  501    0  0.16881166336E+03  0.76709740859E+02  0.34844987260E+02  0.25514652083E+03  0.17176673696E+03 0.  0.
         24    2    5    5    0    0  0.13509330110E+03  0.85220805449E+02  0.81363856953E+02  0.19687593295E+03  0.81408046742E+02 0.  0.
          5    1    5    5  501    0  0.33718362258E+02 -0.85110645907E+01 -0.46518869693E+02  0.58270587875E+02  0.47000000000E+01 0. -1.
        -13    1    6    6    0    0  0.89026988871E+02  0.68648704679E+02  0.93744885088E+02  0.14637811613E+03  0.00000000000E+00 0.  1.
         14    1    6    6    0    0  0.46066312228E+02  0.16572100771E+02 -0.12381028134E+02  0.50497816823E+02  0.00000000000E+00 0. -1.
         -5    1    3    3    0  503  0.16810627957E+02  0.18794689457E+02 -0.19248101539E+02  0.32068941001E+02  0.47000000000E+01 0.  1.
         11    1    4    4    0    0 -0.12858531986E+03 -0.27271944229E+02 -0.22722100614E+03  0.26250205534E+03  0.00000000000E+00 0. -1.
        -12    1    4    4    0    0 -0.57036971450E+02 -0.68232486086E+02 -0.95991632167E+02  0.13085595789E+03  0.00000000000E+00 0.  1.
</event>
<event>
12    1  0.1066489E+000  0.2384809E+03  0.7818608E-02  0.1120876E+00
         21   -1    0    0  503  502  0.00000000000E+00  0.00000000000E+00  0.15049196630E+03  0.15049196630E+03  0.00000000000E+00 0.  1.
         21   -1    0    0  501  503 -0.00000000000E+00 -0.00000000000E+00 -0.40204182223E+03  0.40204182223E+03  0.00000000000E+00 0. -1.
          6    2    1    2  501    0  0.16244423475E+03 -0.29803228819E+02 -0.57315267559E+02  0.24527162308E+03  0.17203711036E+03 0.  0.
         24    2    3    3    0    0  0.41555729269E+02 -0.15030624765E+02 -0.67807046660E+02  0.12294244415E+03  0.92543236818E+02 0.  0.
         -6    2    1    2    0  502 -0.16244423475E+03  0.29803228819E+02 -0.19423458837E+03  0.30726216546E+03  0.17148353026E+03 0.  0.
        -24    2    5    5    0    0 -0.11444015798E+03  0.77373911322E+02 -0.17504980423E+03  0.23685259818E+03  0.79833873733E+02 0.  0.
          5    1    3    3  501    0  0.12088850548E+03 -0.14772604054E+02  0.10491779101E+02  0.12232917893E+03  0.47000000000E+01 0. -1.
        -11    1    4    4    0    0 -0.24592762444E+02 -0.19562582193E+02 -0.40437046570E+02  0.51211847477E+02  0.00000000000E+00 0.  1.
         12    1    4    4    0    0  0.66148491713E+02  0.45319574285E+01 -0.27370000090E+02  0.71730596672E+02  0.00000000000E+00 0. -1.
         -5    1    5    5    0  502 -0.48004076774E+02 -0.47570682503E+02 -0.19184784141E+02  0.70409567271E+02  0.47000000000E+01 0.  1.
         11    1    6    6    0    0 -0.10462511426E+03  0.27424149982E+02 -0.12746775265E+03  0.16717214631E+03  0.00000000000E+00 0. -1.
        -12    1    6    6    0    0 -0.98150437192E+01  0.49949761341E+02 -0.47582051575E+02  0.69680451873E+02  0.00000000000E+00 0.  1.
</event>
<event>
12    1  0.1066489E+000  0.3561740E+03  0.7818608E-02  0.1060373E+00
         21   -1    0    0  501  502  0.00000000000E+00  0.00000000000E+00  0.24517884502E+03  0.24517884502E+03  0.00000000000E+00 0.  1.
         21   -1    0    0  502  503 -0.00000000000E+00 -0.00000000000E+00 -0.75860218780E+03  0.75860218780E+03  0.00000000000E+00 0.  1.
         -6    2    1    2    0  503 -0.27338183792E+02  0.31046884415E+03 -0.54127895894E+03  0.64651946556E+03  0.16693180789E+03 0.  0.
        -24    2    3    3    0    0  0.47378279097E+02  0.19368472380E+03 -0.31956734197E+03  0.38498703604E+03  0.79581771178E+02 0.  0.
          6    2    1    2  501    0  0.27338183792E+02 -0.31046884415E+03  0.27855616155E+02  0.35726156726E+03  0.17239957253E+03 0.  0.
         24    2    5    5    0    0  0.37609124717E+02 -0.67885128910E+02  0.21655023141E+02  0.11433588216E+03  0.81122850870E+02 0.  0.
          5    1    5    5  501    0 -0.10270940925E+02 -0.24258371524E+03  0.62005930141E+01  0.24292568510E+03  0.47000000000E+01 0. -1.
        -11    1    6    6    0    0  0.47093363896E+02 -0.64521467827E+02 -0.10569954395E+02  0.80576228936E+02  0.00000000000E+00 0.  1.
         12    1    6    6    0    0 -0.94842391795E+01 -0.33636610825E+01  0.32224977536E+02  0.33759653225E+02  0.00000000000E+00 0. -1.
         -5    1    3    3    0  503 -0.74716462889E+02  0.11678412035E+03 -0.22171161697E+03  0.26153242952E+03  0.47000000000E+01 0.  1.
         11    1    4    4    0    0  0.30287589776E+02  0.10498426607E+03 -0.10226377120E+03  0.14965598256E+03  0.00000000000E+00 0. -1.
        -12    1    4    4    0    0  0.17090689321E+02  0.88700457735E+02 -0.21730357077E+03  0.23533105349E+03  0.00000000000E+00 0.  1.
</event>
<event>
12    1  0.1066489E+000  0.4260170E+03  0.7818608E-02  0.1035681E+00
         21   -1    0    0  503  502  0.00000000000E+00  0.00000000000E+00  0.14332556249E+04  0.14332556249E+04  0.00000000000E+00 0. -1.
         21   -1    0    0  501  503 -0.00000000000E+00 -0.00000000000E+00 -0.13910403030E+03  0.13910403030E+03  0.00000000000E+00 0. -1.
          6    2    1    2  501    0 -0.38006587611E+03  0.86427743688E+02  0.90575889574E+03  0.10009443649E+04  0.17196109819E+03 0.  0.
         24    2    3    3    0    0 -0.21489209135E+03 -0.12651617033E+02  0.44481678403E+03  0.50135571484E+03  0.84598505353E+02 0.  0.
         -6    2    1    2    0  502  0.38006587611E+03 -0.86427743688E+02  0.38839269881E+03  0.57141529028E+03  0.15409970933E+03 0.  0.
        -24    2    5    5    0    0  0.10766311057E+03 -0.16614716129E+02  0.15768875958E+03  0.20765228630E+03  0.79914535205E+02 0.  0.
          5    1    3    3  501    0 -0.16517378476E+03  0.99079360721E+02  0.46094211171E+03  0.49958865003E+03  0.47000000000E+01 0. -1.
        -13    1    4    4    0    0 -0.89296143401E+02  0.29144597504E+02  0.13516977812E+03  0.16460278766E+03  0.00000000000E+00 0.  1.
         14    1    4    4    0    0 -0.12559594795E+03 -0.41796214537E+02  0.30964700591E+03  0.33675292718E+03  0.00000000000E+00 0. -1.
         -5    1    5    5    0  502  0.27240276554E+03 -0.69813027559E+02  0.23070393923E+03  0.36376300398E+03  0.47000000000E+01 0.  1.
         13    1    6    6    0    0  0.88001644564E+02  0.22853539781E+02  0.10973128450E+03  0.14250448598E+03  0.00000000000E+00 0. -1.
        -14    1    6    6    0    0  0.19661466004E+02 -0.39468255910E+02  0.47957475084E+02  0.65147800320E+02  0.00000000000E+00 0.  1.
</event>
<event>
12    1  0.1066489E+000  0.5113391E+03  0.7818608E-02  0.1010980E+00
         21   -1    0    0  503  502  0.00000000000E+00  0.00000000000E+00  0.78619828053E+03  0.78619828053E+03  0.00000000000E+00 0. -1.
         21   -1    0    0  501  503 -0.00000000000E+00 -0.00000000000E+00 -0.36290462817E+03  0.36290462817E+03  0.00000000000E+00 0. -1.
          6    2    1    2  501    0  0.23379024849E+02 -0.48091676144E+03  0.42606275040E+02  0.51311102919E+03  0.17216307203E+03 0.  0.
         24    2    3    3    0    0  0.33022299388E+02 -0.11759927122E+03 -0.32007579048E+01  0.14676015133E+03  0.81291059281E+02 0.  0.
         -6    2    1    2    0  502 -0.23379024849E+02  0.48091676144E+03  0.38068737732E+03  0.63599187951E+03  0.16653912848E+03 0.  0.
        -24    2    5    5    0    0 -0.80180174046E+01  0.16234911164E+03  0.78901097624E+02  0.19688100893E+03  0.78199909320E+02 0.  0.
          5    1    3    3  501    0 -0.96432745387E+01 -0.36331749022E+03  0.45807032945E+02  0.36635087787E+03  0.47000000000E+01 0. -1.
        -13    1    4    4    0    0  0.56454234403E+02 -0.10635029880E+03  0.11236229225E+01  0.12041066882E+03  0.00000000000E+00 0.  1.
         14    1    4    4    0    0 -0.23431935015E+02 -0.11248972418E+02 -0.43243808274E+01  0.26349482510E+02  0.00000000000E+00 0. -1.
         -5    1    5    5    0  502 -0.15361007445E+02  0.31856764980E+03  0.30178627969E+03  0.43911087058E+03  0.47000000000E+01 0.  1.
         13    1    6    6    0    0  0.23621865690E+02  0.15567520466E+02  0.23689714618E+02  0.36899089566E+02  0.00000000000E+00 0. -1.
        -14    1    6    6    0    0 -0.31639883094E+02  0.14678159118E+03  0.55211383006E+02  0.15998191937E+03  0.00000000000E+00 0.  1.
</event>
<event>
12    1  0.1066489E+000  0.3413981E+03  0.7818608E-02  0.1066235E+00
         21   -1    0    0  503  502  0.00000000000E+00  0.00000000000E+00  0.20128322537E+03  0.20128322537E+03  0.00000000000E+00 0.  1.
         21   -1    0    0  501  503 -0.00000000000E+00 -0.00000000000E+00 -0.58364457489E+03  0.58364457489E+03  0.00000000000E+00 0. -1.
          6    2    1    2  501    0 -0.15726584377E+03 -0.24776857694E+03 -0.22784913791E+03  0.41019233501E+03  0.17384104441E+03 0.  0.
         24    2    3    3    0    0 -0.12843112687E+03 -0.26235318191E+03 -0.18003909562E+03  0.35229551519E+03  0.79839261460E+02 0.  0.
         -6    2    1    2    0  502  0.15726584377E+03  0.24776857694E+03 -0.15451221161E+03  0.37473546525E+03  0.17444435228E+03 0.  0.
        -24    2    5    5    0    0  0.15674253887E+03  0.15054092419E+03 -0.15485250213E+03  0.27739227799E+03  0.75738927417E+02 0.  0.
          5    1    3    3  501    0 -0.28834716900E+02  0.14584604967E+02 -0.47810042293E+02  0.57896819816E+02  0.47000000000E+01 0. -1.
        -13    1    4    4    0    0 -0.37779256432E+02 -0.17832293324E+02 -0.29976893377E+02  0.51418644851E+02  0.00000000000E+00 0.  1.
         14    1    4    4    0    0 -0.90651870434E+02 -0.24452088858E+03 -0.15006220224E+03  0.30087687034E+03  0.00000000000E+00 0. -1.
         -5    1    5    5    0  502  0.52330489656E+00  0.97227652750E+02  0.34029052274E+00  0.97343187255E+02  0.47000000000E+01 0.  1.
         11    1    6    6    0    0  0.10106807026E+03  0.13808115455E+03 -0.13122624915E+03  0.21564203796E+03  0.00000000000E+00 0. -1.
        -12    1    6    6    0    0  0.55674468613E+02  0.12459769642E+02 -0.23626252980E+02  0.61750240037E+02  0.00000000000E+00 0.  1.
</event>
<event>
12    1  0.1066489E+000  0.2219392E+03  0.7818608E-02  0.1134336E+00
         21   -1    0    0  503  502  0.00000000000E+00  0.00000000000E+00  0.20846280666E+03  0.20846280666E+03  0.00000000000E+00 0.  1.
         21   -1    0    0  501  503 -0.00000000000E+00 -0.00000000000E+00 -0.26984468327E+03  0.26984468327E+03  0.00000000000E+00 0.  1.
          6    2    1    2  501    0  0.10889980073E+03 -0.58699144451E+02  0.65370481803E+02  0.23136618955E+03  0.18426138395E+03 0.  0.
         24    2    3    3    0    0  0.12446800832E+02 -0.54301977381E+02 -0.24715387786E+02  0.99229630761E+02  0.78307353608E+02 0.  0.
         -6    2    1    2    0  502 -0.10889980073E+03  0.58699144451E+02 -0.12675235841E+03  0.24694130038E+03  0.17207291858E+03 0.  0.
        -24    2    5    5    0    0 -0.78908350180E+02  0.99663278103E+02 -0.12564712338E+03  0.19594268376E+03  0.80293455381E+02 0.  0.
          5    1    3    3  501    0  0.96452999900E+02 -0.43971670704E+01  0.90085869588E+02  0.13213655878E+03  0.47000000000E+01 0. -1.
        -13    1    4    4    0    0  0.12793997918E+02 -0.14157494945E+02  0.27433746624E+02  0.33417532818E+02  0.00000000000E+00 0.  1.
         14    1    4    4    0    0 -0.34719708590E+00 -0.40144482436E+02 -0.52149134410E+02  0.65812097942E+02  0.00000000000E+00 0. -1.
         -5    1    5    5    0  502 -0.29991450552E+02 -0.40964133652E+02 -0.11052350366E+01  0.50998616614E+02  0.47000000000E+01 0.  1.
         13    1    6    6    0    0 -0.48036371246E+02  0.31571963127E+02 -0.10168742511E+02  0.58375381305E+02  0.00000000000E+00 0. -1.
        -14    1    6    6    0    0 -0.30871978933E+02  0.68091314976E+02 -0.11547838086E+03  0.13756730246E+03  0.00000000000E+00 0.  1.
</event>
<event>
12    1  0.1066489E+000  0.3663470E+03  0.7818608E-02  0.1056179E+00
         21   -1    0    0  503  502  0.00000000000E+00  0.00000000000E+00  0.10500212313E+04  0.10500212313E+04  0.00000000000E+00 0.  1.
         21   -1    0    0  501  503 -0.00000000000E+00 -0.00000000000E+00 -0.12933458465E+03  0.12933458465E+03  0.00000000000E+00 0.  1.
          6    2    1    2  501    0 -0.41246026532E+02 -0.32056397847E+03  0.39115283070E+03  0.53592041484E+03  0.17247508540E+03 0.  0.
         24    2    3    3    0    0 -0.44268956819E+02 -0.32674868600E+03  0.32729781955E+03  0.47152366676E+03  0.80537328563E+02 0.  0.
         -6    2    1    2    0  502  0.41246026532E+02  0.32056397847E+03  0.52953381594E+03  0.64343540110E+03  0.17070604608E+03 0.  0.
        -24    2    5    5    0    0  0.83984932833E+02  0.24027685897E+03  0.44696119916E+03  0.52050061062E+03  0.79750449528E+02 0.  0.
          5    1    3    3  501    0  0.30229302870E+01  0.61847075307E+01  0.63855011145E+02  0.64396748079E+02  0.47000000000E+01 0. -1.
        -13    1    4    4    0    0  0.39439912250E+01  0.18038478664E+01 -0.11211266631E+01  0.44794931524E+01  0.00000000000E+00 0.  1.
         14    1    4    4    0    0 -0.48212948044E+02 -0.32855253386E+03  0.32841894621E+03  0.46704417361E+03  0.00000000000E+00 0. -1.
         -5    1    5    5    0  502 -0.42738906301E+02  0.80287119495E+02  0.82572616777E+02  0.12293479048E+03  0.47000000000E+01 0.  1.
         13    1    6    6    0    0  0.35577068583E+02  0.19847442502E+03  0.31779046264E+03  0.37636232986E+03  0.00000000000E+00 0. -1.
        -14    1    6    6    0    0  0.48407864250E+02  0.41802433950E+02  0.12917073653E+03  0.14413828076E+03  0.00000000000E+00 0.  1.
</event>
<event>
12    1  0.1066489E+000  0.2587276E+03  0.7818608E-02  0.1108018E+00
         21   -1    0    0  501  502  0.00000000000E+00  0.00000000000E+00  0.41623796612E+03  0.41623796612E+03  0.00000000000E+00 0.  1.
         21   -1    0    0  502  503 -0.00000000000E+00 -0.00000000000E+00 -0.22298722000E+03  0.22298722000E+03  0.00000000000E+00 0.  1.
         -6    2    1    2    0  503 -0.16914671594E+03  0.87587647727E+02 -0.72828201125E+02  0.26809451802E+03  0.17403596228E+03 0.  0.
        -24    2    3    3    0    0 -0.54905663882E+02  0.10413985569E+03 -0.51305911126E+02  0.15057731703E+03  0.78622454922E+02 0.  0.
          6    2    1    2  501    0  0.16914671594E+03 -0.87587647727E+02  0.26607894725E+03  0.37113066810E+03  0.17509357238E+03 0.  0.
         24    2    5    5    0    0  0.98089986036E+02 -0.11813552712E+03  0.21712211322E+03  0.27947318942E+03  0.85939533547E+02 0.  0.
          5    1    5    5  501    0  0.71056729900E+02  0.30547879396E+02  0.48956834033E+02  0.91657478681E+02  0.47000000000E+01 0. -1.
        -13    1    6    6    0    0  0.21694961352E+02  0.10053066113E+02  0.50000915031E+02  0.55424065083E+02  0.00000000000E+00 0.  1.
         14    1    6    6    0    0  0.76395024684E+02 -0.12818859324E+03  0.16712119819E+03  0.22404912434E+03  0.00000000000E+00 0. -1.
         -5    1    3    3    0  503 -0.11424105205E+03 -0.16552207959E+02 -0.21522289998E+02  0.11751720099E+03  0.47000000000E+01 0.  1.
         13    1    4    4    0    0 -0.82397940646E+01  0.24838995553E+02  0.20999950675E+02  0.33553954084E+02  0.00000000000E+00 0. -1.
        -14    1    4    4    0    0 -0.46665869818E+02  0.79300860134E+02 -0.72305861801E+02  0.11702336294E+03  0.00000000000E+00 0.  1.
</event>
<event>
12    1  0.1066489E+000  0.1766678E+03  0.7818608E-02  0.1171110E+00
         21   -1    0    0  501  502  0.00000000000E+00  0.00000000000E+00  0.30530767340E+03  0.30530767340E+03  0.00000000000E+00 0.  1.
         21   -1    0    0  502  503 -0.00000000000E+00 -0.00000000000E+00 -0.14511730367E+03  0.14511730367E+03  0.00000000000E+00 0.  1.
         -6    2    1    2    0  503  0.34969198176E+02 -0.18668334272E+02 -0.42504875824E+02  0.18154421082E+03  0.17198919876E+03 0.  0.
        -24    2    3    3    0    0  0.67003867530E+02 -0.21178527325E+01 -0.78028821575E+02  0.13070938810E+03  0.80637730476E+02 0.  0.
          6    2    1    2  501    0 -0.34969198176E+02  0.18668334272E+02  0.20269524555E+03  0.26888076624E+03  0.17216315622E+03 0.  0.
         24    2    5    5    0    0 -0.26742561415E+02 -0.57422508799E+02  0.95011846122E+02  0.13668659669E+03  0.75123003816E+02 0.  0.
          5    1    5    5  501    0 -0.82266367606E+01  0.76090843071E+02  0.10768339943E+03  0.13219416956E+03  0.47000000000E+01 0. -1.
        -11    1    6    6    0    0 -0.41678090633E+02 -0.11150176135E+02  0.69434066653E+02  0.81746432819E+02  0.00000000000E+00 0.  1.
         12    1    6    6    0    0  0.14935529218E+02 -0.46272332664E+02  0.25577779469E+02  0.54940163867E+02  0.00000000000E+00 0. -1.
         -5    1    3    3    0  503 -0.32034669354E+02 -0.16550481539E+02  0.35523945751E+02  0.50834822725E+02  0.47000000000E+01 0.  1.
         11    1    4    4    0    0  0.66591051324E+02  0.19712885225E+02 -0.25773783045E+02  0.74076000518E+02  0.00000000000E+00 0. -1.
        -12    1    4    4    0    0  0.41281620582E+00 -0.21830737957E+02 -0.52255038530E+02  0.56633387580E+02  0.00000000000E+00 0.  1.
</event>
<event>
12    1  0.1066489E+000  0.4135397E+03  0.7818608E-02  0.1039235E+00
         21   -1    0    0  503  502  0.00000000000E+00  0.00000000000E+00  0.15374803228E+04  0.15374803228E+04  0.00000000000E+00 0.  1.
         21   -1    0    0  501  503 -0.00000000000E+00 -0.00000000000E+00 -0.15233445952E+03  0.15233445952E+03  0.00000000000E+00 0.  1.
          6    2    1    2  501    0  0.24446759852E+03  0.28472285652E+03  0.11319067937E+04  0.12048971648E+04  0.17243165733E+03 0.  0.
         24    2    3    3    0    0  0.75357068853E+02  0.17915862861E+03  0.64870895053E+03  0.68216929767E+03  0.82189696224E+02 0.  0.
         -6    2    1    2    0  502 -0.24446759852E+03 -0.28472285652E+03  0.25323906958E+03  0.48491761750E+03  0.17373415797E+03 0.  0.
        -24    2    5    5    0    0 -0.93806287186E+02 -0.13888270210E+03  0.18900072849E+03  0.26556211645E+03  0.81938622559E+02 0.  0.
          5    1    3    3  501    0  0.16911052967E+03  0.10556422792E+03  0.48319784318E+03  0.52272786717E+03  0.47000000000E+01 0. -1.
        -11    1    4    4    0    0  0.21283107573E+02  0.62255708055E+02  0.36097048057E+03  0.36691747260E+03  0.00000000000E+00 0.  1.
         12    1    4    4    0    0  0.54073961280E+02  0.11690292055E+03  0.28773846996E+03  0.31525182508E+03  0.00000000000E+00 0. -1.
         -5    1    5    5    0  502 -0.15066131133E+03 -0.14584015442E+03  0.64238341098E+02  0.21935550105E+03  0.47000000000E+01 0.  1.
         13    1    6    6    0    0 -0.43029013536E+02 -0.62215713861E+02  0.28991679279E+02  0.81011162962E+02  0.00000000000E+00 0. -1.
        -14    1    6    6    0    0 -0.50777273650E+02 -0.76666988243E+02  0.16000904921E+03  0.18455095349E+03  0.00000000000E+00 0.  1.
</event>
<event>
12    1  0.1066489E+000  0.5648558E+03  0.7818608E-02  0.9981441E-01
         21   -1    0    0  501  502  0.00000000000E+00  0.00000000000E+00  0.46578273617E+03  0.46578273617E+03  0.00000000000E+00 0.  1.
         21   -1    0    0  502  503 -0.00000000000E+00 -0.00000000000E+00 -0.83104726448E+03  0.83104726448E+03  0.00000000000E+00 0.  1.
         -6    2    1    2    0  503 -0.23721591446E+03 -0.48294558660E+03  0.89894991779E+02  0.57141133964E+03  0.17006463426E+03 0.  0.
        -24    2    3    3    0    0 -0.25211489430E+03 -0.45650100581E+03  0.64667326305E+02  0.53166438304E+03  0.80808816801E+02 0.  0.
          6    2    1    2  501    0  0.23721591446E+03  0.48294558660E+03 -0.45515952010E+03  0.72541866101E+03  0.17191339483E+03 0.  0.
         24    2    5    5    0    0  0.78486789307E+02  0.31033679498E+03 -0.26611389846E+03  0.42417280265E+03  0.81466908290E+02 0.  0.
          5    1    5    5  501    0  0.15872912516E+03  0.17260879162E+03 -0.18904562164E+03  0.30124585836E+03  0.47000000000E+01 0. -1.
        -11    1    6    6    0    0  0.29379262440E+02  0.40582944735E+02 -0.74057391632E+02  0.89412603811E+02  0.00000000000E+00 0.  1.
         12    1    6    6    0    0  0.49107526866E+02  0.26975385024E+03 -0.19205650683E+03  0.33476019884E+03  0.00000000000E+00 0. -1.
         -5    1    3    3    0  503  0.14898979833E+02 -0.26444580795E+02  0.25227665474E+02  0.39746956598E+02  0.47000000000E+01 0.  1.
         13    1    4    4    0    0 -0.58358967711E+02 -0.50309178536E+02  0.18690855052E+02  0.79285122311E+02  0.00000000000E+00 0. -1.
        -14    1    4    4    0    0 -0.19375592659E+03 -0.40619182727E+03  0.45976471252E+02  0.45237926073E+03  0.00000000000E+00 0.  1.
</event>
<event>
12    1  0.1066489E+000  0.2421749E+03  0.7818608E-02  0.1118447E+00
         21   -1    0    0  503  502  0.00000000000E+00  0.00000000000E+00  0.20408387665E+03  0.20408387665E+03  0.00000000000E+00 0. -1.
         21   -1    0    0  501  503 -0.00000000000E+00 -0.00000000000E+00 -0.42273654968E+03  0.42273654968E+03  0.00000000000E+00 0. -1.
          6    2    1    2  501    0  0.10283326496E+03 -0.13476475149E+03  0.68378428969E+02  0.25164317444E+03  0.17295218723E+03 0.  0.
         24    2    3    3    0    0  0.10489317541E+03 -0.10215525364E+03  0.10956936042E+03  0.19885676128E+03  0.78104370366E+02 0.  0.
         -6    2    1    2    0  502 -0.10283326496E+03  0.13476475149E+03 -0.28703110200E+03  0.37517725188E+03  0.17214789627E+03 0.  0.
        -24    2    5    5    0    0 -0.10228031434E+03  0.11633131378E+03 -0.30422649672E+03  0.34952829519E+03  0.74980201171E+02 0.  0.
          5    1    3    3  501    0 -0.20599104472E+01 -0.32609497849E+02 -0.41190931450E+02  0.52786413164E+02  0.47000000000E+01 0. -1.
        -11    1    4    4    0    0  0.17649509687E+02 -0.35243425111E+02 -0.53910257634E+01  0.39782752098E+02  0.00000000000E+00 0.  1.
         12    1    4    4    0    0  0.87243665722E+02 -0.66911828526E+02  0.11496038618E+03  0.15907400918E+03  0.00000000000E+00 0. -1.
         -5    1    5    5    0  502 -0.55295062065E+00  0.18433437703E+02  0.17195394717E+02  0.25648956693E+02  0.47000000000E+01 0.  1.
         13    1    6    6    0    0 -0.16058636721E+02  0.59035286453E+02 -0.16540099214E+03  0.17635343224E+03  0.00000000000E+00 0. -1.
        -14    1    6    6    0    0 -0.86221677621E+02  0.57296027330E+02 -0.13882550457E+03  0.17317486296E+03  0.00000000000E+00 0.  1.
</event>
<event>
12    1  0.1066489E+000  0.1832863E+03  0.7818608E-02  0.1164908E+00
         21   -1    0    0  503  502  0.00000000000E+00  0.00000000000E+00  0.46072581484E+02  0.46072581484E+02  0.00000000000E+00 0.  1.
         21   -1    0    0  501  503 -0.00000000000E+00 -0.00000000000E+00 -0.10455491066E+04  0.10455491066E+04  0.00000000000E+00 0.  1.
          6    2    1    2  501    0  0.53213623430E+02 -0.31732091882E+02 -0.19653150276E+03  0.26802314546E+03  0.17138599579E+03 0.  0.
         24    2    3    3    0    0  0.79269582284E+02 -0.26322718340E+01 -0.19736774978E+03  0.22867213750E+03  0.83942374788E+02 0.  0.
         -6    2    1    2    0  502 -0.53213623430E+02  0.31732091882E+02 -0.80294502235E+03  0.82359854262E+03  0.17249705828E+03 0.  0.
        -24    2    5    5    0    0 -0.81412711318E+02  0.21561822212E+01 -0.31650652508E+03  0.33542395846E+03  0.75499488785E+02 0.  0.
          5    1    3    3  501    0 -0.26055958854E+02 -0.29099820048E+02  0.83624701627E+00  0.39351007963E+02  0.47000000000E+01 0. -1.
        -13    1    4    4    0    0  0.35481579708E+01 -0.83289437721E+00 -0.12119983059E+03  0.12125461671E+03  0.00000000000E+00 0.  1.
         14    1    4    4    0    0  0.75721424313E+02 -0.17993774568E+01 -0.76167919189E+02  0.10741752079E+03  0.00000000000E+00 0. -1.
         -5    1    5    5    0  502  0.28199087888E+02  0.29575909661E+02 -0.48643849727E+03  0.48817458415E+03  0.47000000000E+01 0.  1.
         11    1    6    6    0    0 -0.13175904883E+01  0.57487620038E+01 -0.15499597148E+03  0.15510814126E+03  0.00000000000E+00 0. -1.
        -12    1    6    6    0    0 -0.80095120829E+02 -0.35925797826E+01 -0.16151055360E+03  0.18031581720E+03  0.00000000000E+00 0.  1.
</event>
<event>
12    1  0.1066489E+000  0.3815310E+03  0.7818608E-02  0.1050888E+00
         21   -1    0    0  501  502  0.00000000000E+00  0.00000000000E+00  0.17391569192E+04  0.17391569192E+04  0.00000000000E+00 0.  1.
         21   -1    0    0  502  503 -0.00000000000E+00 -0.00000000000E+00 -0.92724865602E+02  0.92724865602E+02  0.00000000000E+00 0.  1.
         -6    2    1    2    0  503 -0.34031585574E+03  0.16166736777E+02  0.52411440573E+03  0.64827601453E+03  0.17172546597E+03 0.  0.
        -24    2    3    3    0    0 -0.75964542656E+02  0.21661698914E+02  0.21361943975E+03  0.24042674673E+03  0.77018923410E+02 0.  0.
          6    2    1    2  501    0  0.34031585574E+03 -0.16166736777E+02  0.11223176478E+04  0.11836057702E+04  0.15890082336E+03 0.  0.
         24    2    5    5    0    0  0.73952559737E+02 -0.37141095465E+01  0.32656485171E+03  0.34435069822E+03  0.80312049456E+02 0.  0.
          5    1    5    5  501    0  0.26636329601E+03 -0.12452627231E+02  0.79575279612E+03  0.83925507202E+03  0.47000000000E+01 0. -1.
        -11    1    6    6    0    0  0.63530714977E+02 -0.25456234774E+02  0.30301138599E+03  0.31064460670E+03  0.00000000000E+00 0.  1.
         12    1    6    6    0    0  0.10421844760E+02  0.21742125228E+02  0.23553465721E+02  0.33706091513E+02  0.00000000000E+00 0. -1.
         -5    1    3    3    0  503 -0.26435131309E+03 -0.54949621364E+01  0.31049496598E+03  0.40784926779E+03  0.47000000000E+01 0.  1.
         13    1    4    4    0    0 -0.90646286993E+02  0.27003620233E+02  0.17926688202E+03  0.20268833178E+03  0.00000000000E+00 0. -1.
        -14    1    4    4    0    0  0.14681744338E+02 -0.53419213193E+01  0.34352557735E+02  0.37738414952E+02  0.00000000000E+00 0.  1.
</event>
<event>
12    1  0.1066489E+000  0.4669430E+03  0.7818608E-02  0.1022833E+00
         21   -1    0    0  503  502  0.00000000000E+00  0.00000000000E+00  0.70225794883E+03  0.70225794883E+03  0.00000000000E+00 0. -1.
         21   -1    0    0  501  503 -0.00000000000E+00 -0.00000000000E+00 -0.57537193668E+03  0.57537193668E+03  0.00000000000E+00 0.  1.
          6    2    1    2  501    0 -0.43080146663E+03 -0.43189845258E+02  0.49726760518E+03  0.68213693582E+03  0.17487270133E+03 0.  0.
         24    2    3    3    0    0 -0.43294902916E+03 -0.28314816546E+02  0.44049357292E+03  0.62321954243E+03  0.78239501552E+02 0.  0.
         -6    2    1    2    0  502  0.43080146663E+03  0.43189845258E+02 -0.37038159303E+03  0.59549294968E+03  0.17313018884E+03 0.  0.
        -24    2    5    5    0    0  0.43474770721E+03  0.58108751332E+02 -0.33387847243E+03  0.55558412376E+03  0.69402365338E+02 0.  0.
          5    1    3    3  501    0  0.21475625363E+01 -0.14875028712E+02  0.56774032263E+02  0.58917393386E+02  0.47000000000E+01 0. -1.
        -13    1    4    4    0    0 -0.14935641756E+03  0.15403660886E+02  0.11378335187E+03  0.18839125085E+03  0.00000000000E+00 0.  1.
         14    1    4    4    0    0 -0.28359261161E+03 -0.43718477432E+02  0.32671022104E+03  0.43482829158E+03  0.00000000000E+00 0. -1.
         -5    1    5    5    0  502 -0.39462405841E+01 -0.14918906074E+02 -0.36503120598E+02  0.39908825923E+02  0.47000000000E+01 0.  1.
         11    1    6    6    0    0  0.74332636887E+02 -0.17613375485E+01 -0.29275095533E+02  0.79909163648E+02  0.00000000000E+00 0. -1.
        -12    1    6    6    0    0  0.36041507032E+03  0.59870088880E+02 -0.30460337690E+03  0.47567496011E+03  0.00000000000E+00 0.  1.
</event>
<event>
12    1  0.1066489E+000  0.1896318E+03  0.7818608E-02  0.1159062E+00
         21   -1    0    0  501  502  0.00000000000E+00  0.00000000000E+00  0.64813833384E+02  0.64813833384E+02  0.00000000000E+00 0.  1.
         21   -1    0    0  502  503 -0.00000000000E+00 -0.00000000000E+00 -0.55700160689E+03  0.55700160689E+03  0.00000000000E+00 0.  1.
         -6    2    1    2    0  503  0.46966447693E+02 -0.61550379658E+02 -0.21405336972E+03  0.28518663776E+03  0.17180883803E+03 0.  0.
        -24    2    3    3    0    0  0.48914148461E+02  0.28294348529E+02 -0.99901825753E+02  0.13983006340E+03  0.79868064723E+02 0.  0.
          6    2    1    2  501    0 -0.46966447693E+02  0.61550379658E+02 -0.27813440379E+03  0.33662880251E+03  0.17310663669E+03 0.  0.
         24    2    5    5    0    0 -0.28031973194E+02  0.22893748633E+02 -0.28071939399E+03  0.29325113982E+03  0.76700310255E+02 0.  0.
          5    1    5    5  501    0 -0.18934474499E+02  0.38656631025E+02  0.25849902016E+01  0.43377662697E+02  0.47000000000E+01 0. -1.
        -13    1    6    6    0    0 -0.18416318115E+02 -0.87119371190E+01 -0.14539734421E+02  0.25029232875E+02  0.00000000000E+00 0.  1.
         14    1    6    6    0    0 -0.96156550791E+01  0.31605685752E+02 -0.26617965957E+03  0.26822190694E+03  0.00000000000E+00 0. -1.
         -5    1    3    3    0  503 -0.19477007678E+01 -0.89844728187E+02 -0.11415154396E+03  0.14535657436E+03  0.47000000000E+01 0.  1.
         13    1    4    4    0    0  0.19052025003E+02  0.28481178211E+02  0.13236651336E+01  0.34291533334E+02  0.00000000000E+00 0. -1.
        -14    1    4    4    0    0  0.29862123457E+02 -0.18682968166E+00 -0.10122549089E+03  0.10553853006E+03  0.00000000000E+00 0.  1.
</event>
<event>
12    1  0.1066489E+000  0.2100995E+03  0.7818608E-02  0.1141552E+00
         21   -1    0    0  503  502  0.00000000000E+00  0.00000000000E+00  0.32320720646E+02  0.32320720646E+02  0.00000000000E+00 0. -1.
         21   -1    0    0  501  503 -0.00000000000E+00 -0.00000000000E+00 -0.14112140662E+04  0.14112140662E+04  0.00000000000E+00 0. -1.
          6    2    1    2  501    0 -0.21231101987E+02  0.11819832613E+03 -0.55741698291E+03  0.59569749226E+03  0.17239549141E+03 0.  0.
         24    2    3    3    0    0 -0.72312277936E+02  0.11602992788E+03 -0.42159779251E+03  0.45049786772E+03  0.80694612352E+02 0.  0.
         -6    2    1    2    0  502  0.21231101987E+02 -0.11819832613E+03 -0.82147636262E+03  0.84783729456E+03  0.17199726659E+03 0.  0.
        -24    2    5    5    0    0 -0.39866340384E+02 -0.34221959913E+02 -0.23756115286E+03  0.25474034655E+03  0.75477646876E+02 0.  0.
          5    1    3    3  501    0  0.51081175949E+02  0.21683982469E+01 -0.13581919040E+03  0.14519962455E+03  0.47000000000E+01 0. -1.
        -13    1    4    4    0    0 -0.39727434986E+02  0.10523953821E+03 -0.23217297955E+03  0.25798822051E+03  0.00000000000E+00 0.  1.
         14    1    4    4    0    0 -0.32584842950E+02  0.10790389676E+02 -0.18942481297E+03  0.19250964720E+03  0.00000000000E+00 0. -1.
         -5    1    5    5    0  502  0.61097442371E+02 -0.83976366217E+02 -0.58391520976E+03  0.59309694801E+03  0.47000000000E+01 0.  1.
         11    1    6    6    0    0 -0.56278416520E+02 -0.16838302843E+02 -0.21090881259E+03  0.21893678503E+03  0.00000000000E+00 0. -1.
        -12    1    6    6    0    0  0.16412076136E+02 -0.17383657071E+02 -0.26652340268E+02  0.35803561527E+02  0.00000000000E+00 0.  1.
</event>
<event>
12    1  0.1066489E+000  0.1872323E+03  0.7818608E-02  0.1161233E+00
         21   -1    0    0  503  502  0.00000000000E+00  0.00000000000E+00  0.14897172273E+03  0.14897172273E+03  0.00000000000E+00 0.  1.
         21   -1    0    0  501  503 -0.00000000000E+00 -0.00000000000E+00 -0.27769097380E+03  0.27769097380E+03  0.00000000000E+00 0.  1.
          6    2    1    2  501    0 -0.47005987764E+02 -0.56725800406E+02  0.20464668243E+02  0.18726388584E+03  0.17094320979E+03 0.  0.
         24    2    3    3    0    0 -0.53852518458E+02 -0.53616231524E+02 -0.45695617996E+02  0.12051197293E+03  0.81610367532E+02 0.  0.
         -6    2    1    2    0  502  0.47005987764E+02  0.56725800406E+02 -0.14918391931E+03  0.23939881070E+03  0.17212951364E+03 0.  0.
        -24    2    5    5    0    0  0.81268895429E+02  0.70029871923E+02 -0.15238890336E+03  0.20220597425E+03  0.78460574984E+02 0.  0.
          5    1    3    3  501    0  0.68465306936E+01 -0.31095688824E+01  0.66160286239E+02  0.66751912905E+02  0.47000000000E+01 0. -1.
        -13    1    4    4    0    0 -0.49259270051E+02 -0.53991617428E+02  0.14905886822E+01  0.73101246865E+02  0.00000000000E+00 0.  1.
         14    1    4    4    0    0 -0.45932484066E+01  0.37538590455E+00 -0.47186206678E+02  0.47410726067E+02  0.00000000000E+00 0. -1.
         -5    1    5    5    0  502 -0.34262907664E+02 -0.13304071517E+02  0.32049840517E+01  0.37192836452E+02  0.47000000000E+01 0.  1.
         13    1    6    6    0    0  0.39322812928E+02 -0.60904074361E+01 -0.78990548664E+02  0.88447065850E+02  0.00000000000E+00 0. -1.
        -14    1    6    6    0    0  0.41946082501E+02  0.76120279359E+02 -0.73398354700E+02  0.11375890840E+03  0.00000000000E+00 0.  1.
</event>
<event>
12    1  0.1066489E+000  0.1732245E+03  0.7818608E-02  0.1175751E+00
         21   -1    0    0  503  502  0.00000000000E+00  0.00000000000E+00  0.31872270614E+03  0.31872270614E+03  0.00000000000E+00 0. -1.
         21   -1    0    0  501  503 -0.00000000000E+00 -0.00000000000E+00 -0.99277593762E+02  0.99277593762E+02  0.00000000000E+00 0. -1.
          6    2    1    2  501    0  0.82869475455E+01 -0.82489135144E+01  0.16648308669E+03  0.23686025130E+03  0.16807570443E+03 0.  0.
         24    2    3    3    0    0 -0.27018872966E+02  0.16928824663E+02  0.24682118371E+02  0.88502494246E+02  0.78783754160E+02 0.  0.
         -6    2    1    2    0  502 -0.82869475455E+01  0.82489135144E+01  0.52962025683E+02  0.18114004860E+03  0.17282946209E+03 0.  0.
        -24    2    5    5    0    0  0.68920763675E+01  0.29863674771E+02  0.97391724462E+02  0.12923928941E+03  0.79235763043E+02 0.  0.
          5    1    3    3  501    0  0.35305820511E+02 -0.25177738178E+02  0.14180096832E+03  0.14835775706E+03  0.47000000000E+01 0. -1.
        -13    1    4    4    0    0  0.17247307831E+02  0.22879929492E+02 -0.11646764568E+02  0.30929078969E+02  0.00000000000E+00 0.  1.
         14    1    4    4    0    0 -0.44266180797E+02 -0.59511048288E+01  0.36328882939E+02  0.57573415276E+02  0.00000000000E+00 0. -1.
         -5    1    5    5    0  502 -0.15179023913E+02 -0.21614761256E+02 -0.44429698779E+02  0.51900759192E+02  0.47000000000E+01 0.  1.
         11    1    6    6    0    0 -0.18780241893E+02  0.75457879150E+01 -0.54146234788E+01  0.20951242164E+02  0.00000000000E+00 0. -1.
        -12    1    6    6    0    0  0.25672318260E+02  0.22317886856E+02  0.10280634794E+03  0.10828804724E+03  0.00000000000E+00 0.  1.
</event>
<event>
12    1  0.1066489E+000  0.3286444E+03  0.7818608E-02  0.1071826E+00
         21   -1    0    0  503  502  0.00000000000E+00  0.00000000000E+00  0.81039668873E+02  0.81039668873E+02  0.00000000000E+00 0.  1.
         21   -1    0    0  501  503 -0.00000000000E+00 -0.00000000000E+00 -0.19818691171E+04  0.19818691171E+04  0.00000000000E+00 0. -1.
          6    2    1    2  501    0 -0.54289679790E+02  0.27345096822E+03 -0.15413967406E+04  0.15758779620E+04  0.17252431056E+03 0.  0.
         24    2    3    3    0    0  0.12984745023E+02  0.10943736987E+03 -0.44256467656E+03  0.46282796145E+03  0.78746983683E+02 0.  0.
         -6    2    1    2    0  502  0.54289679790E+02 -0.27345096822E+03 -0.35943270755E+03  0.48703082393E+03  0.17402399503E+03 0.  0.
        -24    2    5    5    0    0 -0.33906583192E+02 -0.10975021981E+03 -0.18054473427E+03  0.22896200981E+03  0.81439755233E+02 0.  0.
          5    1    3    3  501    0 -0.67274424814E+02  0.16401359835E+03 -0.10988320641E+04  0.11130500006E+04  0.47000000000E+01 0. -1.
        -13    1    4    4    0    0 -0.31090193743E+02  0.24034533622E+02 -0.13396889447E+03  0.13961347943E+03  0.00000000000E+00 0.  1.
         14    1    4    4    0    0  0.44074938767E+02  0.85402836248E+02 -0.30859578208E+03  0.32321448202E+03  0.00000000000E+00 0. -1.
         -5    1    5    5    0  502  0.88196262982E+02 -0.16370074842E+03 -0.17888797328E+03  0.25806881412E+03  0.47000000000E+01 0.  1.
         13    1    6    6    0    0  0.23562910268E+01  0.12527320147E+02 -0.11253603529E+02  0.17003806923E+02  0.00000000000E+00 0. -1.
        -14    1    6    6    0    0 -0.36262874219E+02 -0.12227753996E+03 -0.16929113074E+03  0.21195820289E+03  0.00000000000E+00 0.  1.
</event>
<event>
12    1  0.1066489E+000  0.1796391E+03  0.7818608E-02  0.1168421E+00
         21   -1    0    0  501  502  0.00000000000E+00  0.00000000000E+00  0.51378456269E+03  0.51378456269E+03  0.00000000000E+00 0.  1.
         21   -1    0    0  502  503 -0.00000000000E+00 -0.00000000000E+00 -0.69510029811E+02  0.69510029811E+02  0.00000000000E+00 0.  1.
         -6    2    1    2    0  503 -0.48498226165E+01 -0.47317532811E+02  0.31586407329E+03  0.36337350365E+03  0.17322736697E+03 0.  0.
        -24    2    3    3    0    0 -0.31069665516E+02 -0.72642935639E+02  0.12058394082E+03  0.16466447937E+03  0.79571249643E+02 0.  0.
          6    2    1    2  501    0  0.48498226165E+01  0.47317532811E+02  0.12841045959E+03  0.21992108886E+03  0.17208593638E+03 0.  0.
         24    2    5    5    0    0 -0.41132070373E+02  0.12071144331E+02  0.13458989228E+03  0.16146668122E+03  0.78227171108E+02 0.  0.
          5    1    5    5  501    0  0.45981892989E+02  0.35246388480E+02 -0.61794326969E+01  0.58454407638E+02  0.47000000000E+01 0. -1.
        -13    1    6    6    0    0 -0.31426417220E+02 -0.13263235125E+02  0.12389511696E+02  0.36290950736E+02  0.00000000000E+00 0.  1.
         14    1    6    6    0    0 -0.97056531526E+01  0.25334379455E+02  0.12220038059E+03  0.12517573048E+03  0.00000000000E+00 0. -1.
         -5    1    3    3    0  503  0.26219842900E+02  0.25325402828E+02  0.19528013247E+03  0.19870902427E+03  0.47000000000E+01 0.  1.
         13    1    4    4    0    0 -0.82254391301E+01 -0.36233740270E+02  0.11556366194E+03  0.12138987497E+03  0.00000000000E+00 0. -1.
        -14    1    4    4    0    0 -0.22844226386E+02 -0.36409195370E+02  0.50202788801E+01  0.43274604408E+02  0.00000000000E+00 0.  1.
</event>
<event>
12    1  0.1066489E+000  0.1803656E+03  0.7818608E-02  0.1168201E+00
         21   -1    0    0  503  502  0.00000000000E+00  0.00000000000E+00  0.15033806004E+03  0.15033806004E+03  0.00000000000E+00 0.  1.
         21   -1    0    0  501  503 -0.00000000000E+00 -0.00000000000E+00 -0.22203148291E+03  0.22203148291E+03  0.00000000000E+00 0.  1.
          6    2    1    2  501    0 -0.41826935310E+02  0.37035206511E+01  0.26035129409E+01  0.17730083327E+03  0.17223704194E+03 0.  0.
         24    2    3    3    0    0 -0.36103057602E+02 -0.46696062822E+02 -0.44622891021E+02  0.10783642497E+03  0.78444496910E+02 0.  0.
         -6    2    1    2    0  502  0.41826935310E+02 -0.37035206511E+01 -0.74296935817E+02  0.19506870968E+03  0.17540968685E+03 0.  0.
        -24    2    5    5    0    0  0.31240790937E+00  0.60288033880E+02 -0.17572636223E+02  0.99894599748E+02  0.77687765363E+02 0.  0.
          5    1    3    3  501    0 -0.57238777077E+01  0.50399583473E+02  0.47226403961E+02  0.69464408306E+02  0.47000000000E+01 0. -1.
        -11    1    4    4    0    0 -0.31872031808E+00  0.19613389159E+02 -0.21309065630E+02  0.28963129923E+02  0.00000000000E+00 0.  1.
         12    1    4    4    0    0 -0.35784337284E+02 -0.66309451980E+02 -0.23313825391E+02  0.78873295044E+02  0.00000000000E+00 0. -1.
         -5    1    5    5    0  502  0.41514527400E+02 -0.63991554531E+02 -0.56724299594E+02  0.95174109930E+02  0.47000000000E+01 0.  1.
         13    1    6    6    0    0  0.14989052835E+02  0.36803826927E+02 -0.45605148721E+02  0.60489858416E+02  0.00000000000E+00 0. -1.
        -14    1    6    6    0    0 -0.14676644925E+02  0.23484206952E+02  0.28032512498E+02  0.39404741331E+02  0.00000000000E+00 0.  1.
</event>
<event>
12    1  0.1066489E+000  0.2791783E+03  0.7818608E-02  0.1096289E+00
         21   -1    0    0  501  502  0.00000000000E+00  0.00000000000E+00  0.12094229627E+03  0.12094229627E+03  0.00000000000E+00 0.  1.
         21   -1    0    0  502  503 -0.00000000000E+00 -0.00000000000E+00 -0.66248644913E+03  0.66248644913E+03  0.00000000000E+00 0.  1.
         -6    2    1    2    0  503  0.17071875944E+03  0.13701413127E+03 -0.20225918824E+03  0.34474527433E+03  0.17327076486E+03 0.  0.
        -24    2    3    3    0    0  0.28910905632E+02  0.19078054923E+02 -0.32033630602E+02  0.93712973667E+02  0.80970088921E+02 0.  0.
          6    2    1    2  501    0 -0.17071875944E+03 -0.13701413127E+03 -0.33928496462E+03  0.43868347107E+03  0.17149674510E+03 0.  0.
         24    2    5    5    0    0 -0.12092009472E+03 -0.21757995119E+02 -0.13778682165E+03  0.20122299952E+03  0.80065021442E+02 0.  0.
          5    1    5    5  501    0 -0.49798664728E+02 -0.11525613615E+03 -0.20149814297E+03  0.23746047155E+03  0.47000000000E+01 0. -1.
        -11    1    6    6    0    0  0.23047361649E+01 -0.21239440524E+02 -0.96295255019E+01  0.23434022359E+02  0.00000000000E+00 0.  1.
         12    1    6    6    0    0 -0.12322483088E+03 -0.51855459574E+00 -0.12815729615E+03  0.17778897717E+03  0.00000000000E+00 0. -1.
         -5    1    3    3    0  503  0.14180785381E+03  0.11793607634E+03 -0.17022555763E+03  0.25103230067E+03  0.47000000000E+01 0.  1.
         13    1    4    4    0    0  0.15416613680E+02 -0.31842897811E+02 -0.12152132568E+02  0.37407438356E+02  0.00000000000E+00 0. -1.
        -14    1    4    4    0    0  0.13494291952E+02  0.50920952734E+02 -0.19881498034E+02  0.56305535311E+02  0.00000000000E+00 0.  1.
</event>
<event>
12    1  0.1066489E+000  0.2310278E+03  0.7818608E-02  0.1126159E+00
         21   -1    0    0  501  502  0.00000000000E+00  0.00000000000E+00  0.23338047674E+03  0.23338047674E+03  0.00000000000E+00 0. -1.
         21   -1    0    0  502  503 -0.00000000000E+00 -0.00000000000E+00 -0.23872160267E+03  0.23872160267E+03  0.00000000000E+00 0. -1.
         -6    2    1    2    0  503 -0.15154000548E+03 -0.53629978248E+01  0.48864073726E+02  0.23480046500E+03  0.17248311703E+03 0.  0.
        -24    2    3    3    0    0 -0.15936769181E+03  0.13839873020E+02  0.73225870711E+02  0.20246457048E+03  0.10020115209E+03 0.  0.
          6    2    1    2  501    0  0.15154000548E+03  0.53629978248E+01 -0.54205199664E+02  0.23730161441E+03  0.17430065268E+03 0.  0.
         24    2    5    5    0    0  0.91340513652E+02  0.70270471468E+02 -0.18932037931E+02  0.14189068794E+03  0.80582359545E+02 0.  0.
          5    1    5    5  501    0  0.60199491823E+02 -0.64907473643E+02 -0.35273161732E+02  0.95410926466E+02  0.47000000000E+01 0. -1.
        -11    1    6    6    0    0  0.79493096798E+02  0.33050581266E+02 -0.42772385583E+02  0.96129965822E+02  0.00000000000E+00 0.  1.
         12    1    6    6    0    0  0.11847416855E+02  0.37219890201E+02  0.23840347652E+02  0.45760722120E+02  0.00000000000E+00 0. -1.
         -5    1    3    3    0  503  0.78276863364E+01 -0.19202870845E+02 -0.24361796985E+02  0.32335894520E+02  0.47000000000E+01 0.  1.
         13    1    4    4    0    0 -0.28411124424E+02  0.30418048421E+01 -0.25350408656E+02  0.38198007628E+02  0.00000000000E+00 0. -1.
        -14    1    4    4    0    0 -0.13095656739E+03  0.10798068178E+02  0.98576279367E+02  0.16426656285E+03  0.00000000000E+00 0.  1.
</event>
<event>
12    1  0.1066489E+000  0.1758306E+03  0.7818608E-02  0.1172265E+00
         21   -1    0    0  503  502  0.00000000000E+00  0.00000000000E+00  0.18547564805E+03  0.18547564805E+03  0.00000000000E+00 0. -1.
         21   -1    0    0  501  503 -0.00000000000E+00 -0.00000000000E+00 -0.17251829087E+03  0.17251829087E+03  0.00000000000E+00 0. -1.
          6    2    1    2  501    0 -0.28814467598E+02  0.26629197968E+01 -0.30080163267E+02  0.17838498965E+03  0.17343305228E+03 0.  0.
         24    2    3    3    0    0  0.31594698804E+02  0.45820854684E+02 -0.11407058813E+02  0.10168655707E+03  0.84334211222E+02 0.  0.
         -6    2    1    2    0  502  0.28814467598E+02 -0.26629197968E+01  0.43037520449E+02  0.17960894927E+03  0.17195866308E+03 0.  0.
        -24    2    5    5    0    0  0.55943726934E+02  0.30714455031E+02 -0.19045345568E+02  0.10393584893E+03  0.79792588462E+02 0.  0.
          5    1    3    3  501    0 -0.60409166402E+02 -0.43157934887E+02 -0.18673104454E+02  0.76698432572E+02  0.47000000000E+01 0. -1.
        -13    1    4    4    0    0 -0.26933432779E+02  0.28850554866E+02 -0.10070990669E+02  0.40733145844E+02  0.00000000000E+00 0.  1.
         14    1    4    4    0    0  0.58528131583E+02  0.16970299818E+02 -0.13360681439E+01  0.60953411230E+02  0.00000000000E+00 0. -1.
         -5    1    5    5    0  502 -0.27129259336E+02 -0.33377374828E+02  0.62082866017E+02  0.75673100343E+02  0.47000000000E+01 0.  1.
         11    1    6    6    0    0  0.67152943358E+02  0.15912319301E+02  0.97250177804E+01  0.69694301618E+02  0.00000000000E+00 0. -1.
        -12    1    6    6    0    0 -0.11209216424E+02  0.14802135731E+02 -0.28770363348E+02  0.34241547311E+02  0.00000000000E+00 0.  1.
</event>
<event>
12    1  0.1066489E+000  0.2947891E+03  0.7818608E-02  0.1088175E+00
         21   -1    0    0  501  502  0.00000000000E+00  0.00000000000E+00  0.31797763024E+03  0.31797763024E+03  0.00000000000E+00 0. -1.
         21   -1    0    0  502  503 -0.00000000000E+00 -0.00000000000E+00 -0.28649454902E+03  0.28649454902E+03  0.00000000000E+00 0. -1.
         -6    2    1    2    0  503 -0.18686749059E+03 -0.14646275072E+03  0.85795328339E+02  0.30702026360E+03  0.17472780977E+03 0.  0.
        -24    2    3    3    0    0 -0.77929659168E+02 -0.41016767627E+01  0.92904801553E+01  0.11206075937E+03  0.79883948568E+02 0.  0.
          6    2    1    2  501    0  0.18686749059E+03  0.14646275072E+03 -0.54312247119E+02  0.29745191566E+03  0.17075428413E+03 0.  0.
         24    2    5    5    0    0  0.87355278840E+02  0.12723369871E+03 -0.81528191579E+02  0.19240319190E+03  0.80949264379E+02 0.  0.
          5    1    5    5  501    0  0.99512211753E+02  0.19229052013E+02  0.27215944460E+02  0.10504872375E+03  0.47000000000E+01 0. -1.
        -11    1    6    6    0    0  0.98809685537E+02  0.86912778021E+02 -0.53928274447E+02  0.14221618658E+03  0.00000000000E+00 0.  1.
         12    1    6    6    0    0 -0.11454406697E+02  0.40320920690E+02 -0.27599917131E+02  0.50187005327E+02  0.00000000000E+00 0. -1.
         -5    1    3    3    0  503 -0.10893783142E+03 -0.14236107396E+03  0.76504848183E+02  0.19495950423E+03  0.47000000000E+01 0.  1.
         11    1    4    4    0    0 -0.23762497346E+02  0.18022377206E+02  0.36831230516E+02  0.47392002507E+02  0.00000000000E+00 0. -1.
        -12    1    4    4    0    0 -0.54167161822E+02 -0.22124053969E+02 -0.27540750361E+02  0.64668756864E+02  0.00000000000E+00 0.  1.
</event>
<event>
12    1  0.1066489E+000  0.2003224E+03  0.7818608E-02  0.1149828E+00
         21   -1    0    0  501  502  0.00000000000E+00  0.00000000000E+00  0.32372936060E+03  0.32372936060E+03  0.00000000000E+00 0. -1.
         21   -1    0    0  502  503 -0.00000000000E+00 -0.00000000000E+00 -0.14371806954E+03  0.14371806954E+03  0.00000000000E+00 0. -1.
         -6    2    1    2    0  503 -0.53775122073E+01  0.98877286323E+02  0.17927576243E+03  0.26882869135E+03  0.17413624238E+03 0.  0.
        -24    2    3    3    0    0  0.58110588058E+02  0.25938262370E+02  0.12013422345E+03  0.15537979658E+03  0.75239721175E+02 0.  0.
          6    2    1    2  501    0  0.53775122073E+01 -0.98877286323E+02  0.73552862829E+00  0.19861873879E+03  0.17217208545E+03 0.  0.
         24    2    5    5    0    0 -0.34947735215E+02 -0.88551926052E+02  0.50932725989E+02  0.13323841096E+03  0.78073963486E+02 0.  0.
          5    1    5    5  501    0  0.40325247422E+02 -0.10325360271E+02 -0.50197197361E+02  0.65380327831E+02  0.47000000000E+01 0. -1.
        -11    1    6    6    0    0  0.20794139378E+02 -0.37823290678E+02  0.16646098175E+01  0.43194542202E+02  0.00000000000E+00 0.  1.
         12    1    6    6    0    0 -0.55741874592E+02 -0.50728635374E+02  0.49268116171E+02  0.90043868759E+02  0.00000000000E+00 0. -1.
         -5    1    3    3    0  503 -0.63488100265E+02  0.72939023953E+02  0.59141538975E+02  0.11344889476E+03  0.47000000000E+01 0.  1.
         11    1    4    4    0    0  0.51175560646E+01 -0.21938162476E+02  0.11291624370E+02  0.25198673256E+02  0.00000000000E+00 0. -1.
        -12    1    4    4    0    0  0.52993031993E+02  0.47876424846E+02  0.10884259908E+03  0.13018112333E+03  0.00000000000E+00 0.  1.
</event>
<event>
12    1  0.1066489E+000  0.1861353E+03  0.7818608E-02  0.1162471E+00
         21   -1    0    0  501  502  0.00000000000E+00  0.00000000000E+00  0.19602021130E+04  0.19602021130E+04  0.00000000000E+00 0. -1.
         21   -1    0    0  502  503 -0.00000000000E+00 -0.00000000000E+00 -0.17600530449E+02  0.17600530449E+02  0.00000000000E+00 0. -1.
         -6    2    1    2    0  503 -0.63907036672E+02 -0.21585026249E+02  0.10475012174E+04  0.10635537563E+04  0.17128271828E+03 0.  0.
        -24    2    3    3    0    0 -0.79215964294E+02 -0.38386650296E+02  0.44944428170E+03  0.46504657500E+03  0.80743115174E+02 0.  0.
          6    2    1    2  501    0  0.63907036672E+02  0.21585026249E+02  0.89510036517E+03  0.91424888708E+03  0.17348297064E+03 0.  0.
         24    2    5    5    0    0  0.82598543112E+02  0.60273001420E+02  0.49853723611E+03  0.51533719615E+03  0.81102995717E+02 0.  0.
          5    1    5    5  501    0 -0.18691506439E+02 -0.38687975171E+02  0.39656312906E+03  0.39891169093E+03  0.47000000000E+01 0. -1.
        -13    1    6    6    0    0  0.14401937792E+02 -0.82710516267E+01  0.15498917819E+02  0.22716570180E+02  0.00000000000E+00 0.  1.
         14    1    6    6    0    0  0.68196605320E+02  0.68544053047E+02  0.48303831830E+03  0.49262062597E+03  0.00000000000E+00 0. -1.
         -5    1    3    3    0  503  0.15308927621E+02  0.16801624047E+02  0.59805693566E+03  0.59850718135E+03  0.47000000000E+01 0.  1.
         13    1    4    4    0    0  0.99721959973E+01 -0.27031630823E+02  0.88443544765E+02  0.93018355009E+02  0.00000000000E+00 0. -1.
        -14    1    4    4    0    0 -0.89188160291E+02 -0.11355019472E+02  0.36100073693E+03  0.37202821999E+03  0.00000000000E+00 0.  1.
</event>
<event>
12    1  0.1066489E+000  0.1954873E+03  0.7818608E-02  0.1153986E+00
         21   -1    0    0  503  502  0.00000000000E+00  0.00000000000E+00  0.15386490144E+04  0.15386490144E+04  0.00000000000E+00 0. -1.
         21   -1    0    0  501  503 -0.00000000000E+00 -0.00000000000E+00 -0.24763865387E+02  0.24763865387E+02  0.00000000000E+00 0. -1.
          6    2    1    2  501    0  0.67443853653E+02  0.64318586860E+02  0.69960639389E+03  0.72640512806E+03  0.17184222325E+03 0.  0.
         24    2    3    3    0    0  0.81832209748E+02  0.10012320049E+03  0.48575994863E+03  0.50905428887E+03  0.80326679831E+02 0.  0.
         -6    2    1    2    0  502 -0.67443853653E+02 -0.64318586860E+02  0.81427875514E+03  0.83700775174E+03  0.16984266658E+03 0.  0.
        -24    2    5    5    0    0 -0.75513291965E+02 -0.46405701271E+02  0.28674703501E+03  0.30908939343E+03  0.73869104957E+02 0.  0.
          5    1    3    3  501    0 -0.14388356096E+02 -0.35804613628E+02  0.21384644526E+03  0.21735083919E+03  0.47000000000E+01 0. -1.
        -13    1    4    4    0    0  0.36114170898E+02  0.16249513844E+02  0.54661673871E+02  0.67499471333E+02  0.00000000000E+00 0.  1.
         14    1    4    4    0    0  0.45718038850E+02  0.83873686643E+02  0.43109827476E+03  0.44155481754E+03  0.00000000000E+00 0. -1.
         -5    1    5    5    0  502  0.80694383123E+01 -0.17912885589E+02  0.52753172013E+03  0.52791835831E+03  0.47000000000E+01 0.  1.
         13    1    6    6    0    0 -0.72679267970E+02 -0.16528012222E+02  0.25381904337E+03  0.26453649645E+03  0.00000000000E+00 0. -1.
        -14    1    6    6    0    0 -0.28340239955E+01 -0.29877689049E+02  0.32927991647E+02  0.44552896975E+02  0.00000000000E+00 0.  1.
</event>
<event>
12    1  0.1066489E+000  0.2612379E+03  0.7818608E-02  0.1106532E+00
         21   -1    0    0  501  502  0.00000000000E+00  0.00000000000E+00  0.34992944317E+03  0.34992944317E+03  0.00000000000E+00 0.  1.
         21   -1    0    0  502  503 -0.00000000000E+00 -0.00000000000E+00 -0.25359601909E+03  0.25359601909E+03  0.00000000000E+00 0.  1.
         -6    2    1    2    0  503  0.10569705007E+03  0.16583219408E+03 -0.97597435220E+02  0.27887366527E+03  0.17196824948E+03 0.  0.
        -24    2    3    3    0    0  0.21206842264E+02  0.91389882214E+02 -0.11054992636E+03  0.16542715788E+03  0.79643063829E+02 0.  0.
          6    2    1    2  501    0 -0.10569705007E+03 -0.16583219408E+03  0.19393085930E+03  0.32465179699E+03  0.17063829615E+03 0.  0.
         24    2    5    5    0    0 -0.79716851428E+02 -0.56363943241E+02  0.26950948829E+02  0.12325008606E+03  0.70232183310E+02 0.  0.
          5    1    5    5  501    0 -0.25980198640E+02 -0.10946825084E+03  0.16697991047E+03  0.20140171093E+03  0.47000000000E+01 0. -1.
        -13    1    6    6    0    0 -0.27988842737E+02 -0.58026584505E+02 -0.99621033944E+00  0.64431764388E+02  0.00000000000E+00 0.  1.
         14    1    6    6    0    0 -0.51728008691E+02  0.16626412637E+01  0.27947159168E+02  0.58818321676E+02  0.00000000000E+00 0. -1.
         -5    1    3    3    0  503  0.84490207804E+02  0.74442311868E+02  0.12952491143E+02  0.11344650738E+03  0.47000000000E+01 0.  1.
         13    1    4    4    0    0  0.41362865503E+02  0.92568485627E+02 -0.81680760302E+02  0.13019814813E+03  0.00000000000E+00 0. -1.
        -14    1    4    4    0    0 -0.20156023239E+02 -0.11786034125E+01 -0.28869166060E+02  0.35229009748E+02  0.00000000000E+00 0.  1.
</event>
<event>
12    1  0.1066489E+000  0.2224381E+03  0.7818608E-02  0.1132272E+00
         21   -1    0    0  501  502  0.00000000000E+00  0.00000000000E+00  0.20462249650E+03  0.20462249650E+03  0.00000000000E+00 0.  1.
         21   -1    0    0  502  503 -0.00000000000E+00 -0.00000000000E+00 -0.17949348788E+04  0.17949348788E+04  0.00000000000E+00 0.  1.
         -6    2    1    2    0  503  0.17901474849E+02 -0.14001968153E+03  0.13544004073E+03  0.25952860099E+03  0.17054358997E+03 0.  0.
        -24    2    3    3    0    0 -0.44731797574E+02 -0.39410497931E+02  0.42734978447E+02  0.10899138561E+03  0.80614655578E+02 0.  0.
          6    2    1    2  501    0 -0.17901474849E+02  0.14001968153E+03 -0.17257524231E+04  0.17400287744E+04  0.17190909171E+03 0.  0.
         24    2    5    5    0    0 -0.25565092917E+02  0.17150222948E+03 -0.15294253484E+04  0.15409903556E+04  0.73775274996E+02 0.  0.
          5    1    5    5  501    0  0.76636180679E+01 -0.31482547954E+02 -0.19632707471E+03  0.19903841873E+03  0.47000000000E+01 0. -1.
        -13    1    6    6    0    0 -0.30522763626E+02  0.43004110374E+02 -0.27656412868E+03  0.28154699409E+03  0.00000000000E+00 0.  1.
         14    1    6    6    0    0  0.49576707089E+01  0.12849811911E+03 -0.12528612197E+04  0.12594433615E+04  0.00000000000E+00 0. -1.
         -5    1    3    3    0  503  0.62633272423E+02 -0.10060918359E+03  0.92705062288E+02  0.15053721537E+03  0.47000000000E+01 0.  1.
         11    1    4    4    0    0  0.81934129754E+01 -0.42985084575E+02  0.33586449747E+02  0.55162479265E+02  0.00000000000E+00 0. -1.
        -12    1    4    4    0    0 -0.52925210549E+02  0.35745866437E+01  0.91485287000E+01  0.53828906349E+02  0.00000000000E+00 0.  1.
</event>
<event>
12    1  0.1066489E+000  0.2689219E+03  0.7818608E-02  0.1102864E+00
         21   -1    0    0  501  502  0.00000000000E+00  0.00000000000E+00  0.48566690831E+03  0.48566690831E+03  0.00000000000E+00 0.  1.
         21   -1    0    0  502  503 -0.00000000000E+00 -0.00000000000E+00 -0.18450296040E+03  0.18450296040E+03  0.00000000000E+00 0.  1.
         -6    2    1    2    0  503 -0.10147374685E+03 -0.17947179273E+03 -0.24687793812E+01  0.26893327138E+03  0.17266141404E+03 0.  0.
        -24    2    3    3    0    0 -0.10313753410E+03 -0.19960838413E+03 -0.15050127148E+02  0.24467155642E+03  0.95691202512E+02 0.  0.
          6    2    1    2  501    0  0.10147374685E+03  0.17947179273E+03  0.30363272730E+03  0.40123659733E+03  0.16214477564E+03 0.  0.
         24    2    5    5    0    0  0.20792293904E+02  0.11690246500E+03  0.10360293544E+03  0.17660706843E+03  0.79736958693E+02 0.  0.
          5    1    5    5  501    0  0.80681452941E+02  0.62569327733E+02  0.20002979186E+03  0.22462952890E+03  0.47000000000E+01 0. -1.
        -11    1    6    6    0    0  0.43323368629E+01 -0.10926016988E+02  0.86470133125E+00  0.11785359490E+02  0.00000000000E+00 0.  1.
         12    1    6    6    0    0  0.16459957041E+02  0.12782848198E+03  0.10273823411E+03  0.16482170894E+03  0.00000000000E+00 0. -1.
         -5    1    3    3    0  503  0.16637872511E+01  0.20136591399E+02  0.12581347767E+02  0.24261714961E+02  0.47000000000E+01 0.  1.
         11    1    4    4    0    0 -0.61509486490E+02 -0.10848327220E+03  0.39224675852E+02  0.13073106927E+03  0.00000000000E+00 0. -1.
        -12    1    4    4    0    0 -0.41628047606E+02 -0.91125111924E+02 -0.54274803000E+02  0.11394048715E+03  0.00000000000E+00 0.  1.
</event>
<event>
12    1  0.1066489E+000  0.2335254E+03  0.7818608E-02  0.1124232E+00
         21   -1    0    0  503  502  0.00000000000E+00  0.00000000000E+00  0.13409816365E+03  0.13409816365E+03  0.00000000000E+00 0.  1.
         21   -1    0    0  501  503 -0.00000000000E+00 -0.00000000000E+00 -0.41170380531E+03  0.41170380531E+03  0.00000000000E+00 0.  1.
          6    2    1    2  501    0 -0.10966085819E+03  0.11387367878E+03 -0.17034631363E+03  0.28882207029E+03  0.17148645190E+03 0.  0.
         24    2    3    3    0    0 -0.13304873171E+03  0.55363486746E+02 -0.92608879793E+02  0.18864405964E+03  0.79013264360E+02 0.  0.
         -6    2    1    2    0  502  0.10966085819E+03 -0.11387367878E+03 -0.10725932803E+03  0.25697989867E+03  0.17187607842E+03 0.  0.
        -24    2    5    5    0    0  0.40925585352E+02 -0.91651170999E+02 -0.12932555686E+03  0.18130040317E+03  0.77909536335E+02 0.  0.
          5    1    3    3  501    0  0.23387873525E+02  0.58510192033E+02 -0.77737433834E+02  0.10017801066E+03  0.47000000000E+01 0. -1.
        -13    1    4    4    0    0 -0.64587664115E+02 -0.12273768802E+02 -0.53508067708E+02  0.84766296760E+02  0.00000000000E+00 0.  1.
         14    1    4    4    0    0 -0.68461067596E+02  0.67637255548E+02 -0.39100812085E+02  0.10387776288E+03  0.00000000000E+00 0. -1.
         -5    1    5    5    0  502  0.68735272834E+02 -0.22222507780E+02  0.22066228829E+02  0.75679495494E+02  0.47000000000E+01 0.  1.
         13    1    6    6    0    0  0.61796000551E+01 -0.35376157348E+02  0.14870806791E+00  0.35912143902E+02  0.00000000000E+00 0. -1.
        -14    1    6    6    0    0  0.34745985297E+02 -0.56275013651E+02 -0.12947426492E+03  0.14538825927E+03  0.00000000000E+00 0.  1.
</event>
<event>
12    1  0.1066489E+000  0.2320893E+03  0.7818608E-02  0.1125498E+00
         21   -1    0    0  503  502  0.00000000000E+00  0.00000000000E+00  0.31416954515E+03  0.31416954515E+03  0.00000000000E+00 0.  1.
         21   -1    0    0  501  503 -0.00000000000E+00 -0.00000000000E+00 -0.24333950829E+03  0.24333950829E+03  0.00000000000E+00 0.  1.
          6    2    1    2  501    0 -0.30248298107E+02 -0.15102913582E+03  0.18843710878E+03  0.29895481618E+03  0.17361071034E+03 0.  0.
         24    2    3    3    0    0  0.10664809600E+02 -0.78552583869E+02  0.67148893353E+02  0.15178262394E+03  0.11065597343E+03 0.  0.
         -6    2    1    2    0  502  0.30248298107E+02  0.15102913582E+03 -0.11760707192E+03  0.25855423726E+03  0.17115522439E+03 0.  0.
        -24    2    5    5    0    0 -0.36095205915E+02  0.65916883277E+02 -0.16078485381E+02  0.11031220563E+03  0.79135109955E+02 0.  0.
          5    1    3    3  501    0 -0.40913107707E+02 -0.72476551949E+02  0.12128821543E+03  0.14717219223E+03  0.47000000000E+01 0. -1.
        -11    1    4    4    0    0  0.50740676416E+02 -0.33998788299E+02  0.68585406445E+02  0.91839489470E+02  0.00000000000E+00 0.  1.
         12    1    4    4    0    0 -0.40075866816E+02 -0.44553795571E+02 -0.14365130921E+01  0.59943134475E+02  0.00000000000E+00 0. -1.
         -5    1    5    5    0  502  0.66343504022E+02  0.85112252541E+02 -0.10152858653E+03  0.14824203163E+03  0.47000000000E+01 0.  1.
         13    1    6    6    0    0 -0.28447247575E+02 -0.59147291385E+01  0.13766769513E+02  0.32152042831E+02  0.00000000000E+00 0. -1.
        -14    1    6    6    0    0 -0.76479583404E+01  0.71831612415E+02 -0.29845254894E+02  0.78160162798E+02  0.00000000000E+00 0.  1.
</event>
<event>
12    1  0.1066489E+000  0.2782986E+03  0.7818608E-02  0.1096865E+00
         21   -1    0    0  501  502  0.00000000000E+00  0.00000000000E+00  0.31258690086E+03  0.31258690086E+03  0.00000000000E+00 0.  1.
         21   -1    0    0  502  503 -0.00000000000E+00 -0.00000000000E+00 -0.39672319201E+03  0.39672319201E+03  0.00000000000E+00 0.  1.
         -6    2    1    2    0  503 -0.21761663953E+03  0.81174720823E+01  0.17646558221E+03  0.32804450219E+03  0.17044118797E+03 0.  0.
        -24    2    3    3    0    0 -0.16770959250E+03 -0.29770939425E+02  0.18558070572E+03  0.26455103365E+03  0.80834614018E+02 0.  0.
          6    2    1    2  501    0  0.21761663953E+03 -0.81174720823E+01 -0.26060187337E+03  0.38126559068E+03  0.17328363767E+03 0.  0.
         24    2    5    5    0    0  0.97770396638E+01 -0.56400470822E+01 -0.11385587814E+03  0.12678589793E+03  0.54626937431E+02 0.  0.
          5    1    5    5  501    0  0.20783959986E+03 -0.24774250001E+01 -0.14674599523E+03  0.25447969275E+03  0.47000000000E+01 0. -1.
        -13    1    6    6    0    0 -0.11417137311E+02 -0.30889443319E+01 -0.93453206683E+00  0.11864482780E+02  0.00000000000E+00 0.  1.
         14    1    6    6    0    0  0.21194176975E+02 -0.25511027503E+01 -0.11292134607E+03  0.11492141515E+03  0.00000000000E+00 0. -1.
         -5    1    3    3    0  503 -0.49907047030E+02  0.37888411507E+02 -0.91151235019E+01  0.63493468532E+02  0.47000000000E+01 0.  1.
         13    1    4    4    0    0 -0.53211517108E+02 -0.19143680256E+02  0.14436506521E+02  0.58364019457E+02  0.00000000000E+00 0. -1.
        -14    1    4    4    0    0 -0.11449807539E+03 -0.10627259169E+02  0.17114419919E+03  0.20618701420E+03  0.00000000000E+00 0.  1.
</event>
<event>
12    1  0.1066489E+000  0.3498099E+03  0.7818608E-02  0.1062869E+00
         21   -1    0    0  501  502  0.00000000000E+00  0.00000000000E+00  0.53923735690E+03  0.53923735690E+03  0.00000000000E+00 0. -1.
         21   -1    0    0  502  503 -0.00000000000E+00 -0.00000000000E+00 -0.29695313909E+03  0.29695313909E+03  0.00000000000E+00 0. -1.
         -6    2    1    2    0  503 -0.20804429985E+03 -0.22227025665E+03  0.32555023852E+03  0.47660710307E+03  0.16877462844E+03 0.  0.
        -24    2    3    3    0    0 -0.73232281069E+02 -0.13765336808E+03  0.23604727203E+03  0.29394027726E+03  0.79819516602E+02 0.  0.
          6    2    1    2  501    0  0.20804429985E+03  0.22227025665E+03 -0.83266020711E+02  0.35958339292E+03  0.17228026168E+03 0.  0.
         24    2    5    5    0    0  0.21782526407E+03  0.21425022771E+03 -0.10619005750E+03  0.33298283676E+03  0.79058431085E+02 0.  0.
          5    1    5    5  501    0 -0.97809642207E+01  0.80200289393E+01  0.22924036784E+02  0.26600556155E+02  0.47000000000E+01 0. -1.
        -11    1    6    6    0    0  0.90096935432E+02  0.42950500902E+02 -0.51984210430E+02  0.11253693365E+03  0.00000000000E+00 0.  1.
         12    1    6    6    0    0  0.12772832864E+03  0.17129972681E+03 -0.54205847065E+02  0.22044590311E+03  0.00000000000E+00 0. -1.
         -5    1    3    3    0  503 -0.13481201878E+03 -0.84616888570E+02  0.89502966491E+02  0.18266682581E+03  0.47000000000E+01 0.  1.
         11    1    4    4    0    0 -0.29282662327E+02 -0.19145912626E+02  0.12532407588E+02  0.37163174288E+02  0.00000000000E+00 0. -1.
        -12    1    4    4    0    0 -0.43949618742E+02 -0.11850745545E+03  0.22351486444E+03  0.25677710297E+03  0.00000000000E+00 0.  1.
</event>
<event>
12    1  0.1066489E+000  0.1871777E+03  0.7818608E-02  0.1161168E+00
         21   -1    0    0  503  502  0.00000000000E+00  0.00000000000E+00  0.19973463016E+02  0.19973463016E+02  0.00000000000E+00 0. -1.
         21   -1    0    0  501  503 -0.00000000000E+00 -0.00000000000E+00 -0.17523586622E+04  0.17523586622E+04  0.00000000000E+00 0. -1.
          6    2    1    2  501    0 -0.72399659930E+02  0.11831634265E+02 -0.82624166094E+03  0.84717812457E+03  0.17220277044E+03 0.  0.
         24    2    3    3    0    0  0.20171185339E+02  0.23983576662E+02 -0.52045903348E+03  0.52742488165E+03  0.79481517283E+02 0.  0.
         -6    2    1    2    0  502  0.72399659930E+02 -0.11831634265E+02 -0.90614353820E+03  0.92515400060E+03  0.17155790475E+03 0.  0.
        -24    2    5    5    0    0  0.98460413498E+01  0.43652616721E+02 -0.35230107935E+03  0.36501561008E+03  0.84367349247E+02 0.  0.
          5    1    3    3  501    0 -0.92570845269E+02 -0.12151942397E+02 -0.30578262746E+03  0.31975324291E+03  0.47000000000E+01 0. -1.
        -11    1    4    4    0    0 -0.30095650678E+02  0.43118491520E+01 -0.22900868437E+03  0.23101800309E+03  0.00000000000E+00 0.  1.
         12    1    4    4    0    0  0.50266836017E+02  0.19671727510E+02 -0.29145034911E+03  0.29640687856E+03  0.00000000000E+00 0. -1.
         -5    1    5    5    0  502  0.62553618581E+02 -0.55484250986E+02 -0.55384245886E+03  0.56013839052E+03  0.47000000000E+01 0.  1.
         11    1    6    6    0    0 -0.14467647431E+00 -0.87094859146E+01 -0.63277441399E-02  0.87106897671E+01  0.00000000000E+00 0. -1.
        -12    1    6    6    0    0  0.99907178241E+01  0.52362102635E+02 -0.35229475160E+03  0.35630492032E+03  0.00000000000E+00 0.  1.
</event>
<event>
12    1  0.1066489E+000  0.1889097E+03  0.7818608E-02  0.1159563E+00
         21   -1    0    0  501  502  0.00000000000E+00  0.00000000000E+00  0.13458003220E+03  0.13458003220E+03  0.00000000000E+00 0. -1.
         21   -1    0    0  502  503 -0.00000000000E+00 -0.00000000000E+00 -0.29256006850E+03  0.29256006850E+03  0.00000000000E+00 0. -1.
         -6    2    1    2    0  503 -0.47593461976E+02  0.61702565398E+02 -0.14507693886E+03  0.23779021768E+03  0.17153578413E+03 0.  0.
        -24    2    3    3    0    0  0.75146420370E+01  0.56157129286E+02 -0.15241539319E+03  0.18172242032E+03  0.81132564052E+02 0.  0.
          6    2    1    2  501    0  0.47593461976E+02 -0.61702565398E+02 -0.12903097442E+02  0.18934988301E+03  0.17208876800E+03 0.  0.
         24    2    5    5    0    0  0.17124225385E+02 -0.83877134503E+02  0.41220507585E+02  0.12323225666E+03  0.78475767266E+02 0.  0.
          5    1    5    5  501    0  0.30469236591E+02  0.22174569104E+02 -0.54123605027E+02  0.66117626353E+02  0.47000000000E+01 0. -1.
        -11    1    6    6    0    0 -0.17825627215E+02 -0.15524879840E+02  0.39988937811E+02  0.46453094912E+02  0.00000000000E+00 0.  1.
         12    1    6    6    0    0  0.34949852601E+02 -0.68352254663E+02  0.12315697744E+01  0.76779161746E+02  0.00000000000E+00 0. -1.
         -5    1    3    3    0  503 -0.55108104013E+02  0.55454361119E+01  0.73384543304E+01  0.56067797366E+02  0.47000000000E+01 0.  1.
         13    1    4    4    0    0 -0.51829835480E+01  0.15412367135E+01  0.91915738908E+01  0.10664134267E+02  0.00000000000E+00 0. -1.
        -14    1    4    4    0    0  0.12697625585E+02  0.54615892573E+02 -0.16160696708E+03  0.17105828605E+03  0.00000000000E+00 0.  1.
</event>
<event>
12    1  0.1066489E+000  0.2309128E+03  0.7818608E-02  0.1126252E+00
         21   -1    0    0  503  502  0.00000000000E+00  0.00000000000E+00  0.19929597204E+03  0.19929597204E+03  0.00000000000E+00 0.  1.
         21   -1    0    0  501  503 -0.00000000000E+00 -0.00000000000E+00 -0.27605416210E+03  0.27605416210E+03  0.00000000000E+00 0.  1.
          6    2    1    2  501    0  0.14963812450E+03  0.29184684795E+02  0.71430296876E+01  0.23102320986E+03  0.17342833243E+03 0.  0.
         24    2    3    3    0    0  0.21152255463E+02 -0.82792436787E+01 -0.36135452119E+02  0.90284865876E+02  0.79558923569E+02 0.  0.
         -6    2    1    2    0  502 -0.14963812450E+03 -0.29184684795E+02 -0.83901219743E+02  0.24432692427E+03  0.17150194494E+03 0.  0.
        -24    2    5    5    0    0 -0.15287335227E+03 -0.61359090003E+02 -0.47077291449E+02  0.19509532117E+03  0.93331201712E+02 0.  0.
          5    1    3    3  501    0  0.12848586904E+03  0.37463928473E+02  0.43278481807E+02  0.14073834398E+03  0.47000000000E+01 0. -1.
        -11    1    4    4    0    0  0.31132375207E+01 -0.14180008815E+02 -0.58890462449E+02  0.60653536297E+02  0.00000000000E+00 0.  1.
         12    1    4    4    0    0  0.18039017943E+02  0.59007651368E+01  0.22755010330E+02  0.29631329579E+02  0.00000000000E+00 0. -1.
         -5    1    5    5    0  502  0.32352277643E+01  0.32174405208E+02 -0.36823928294E+02  0.49231603104E+02  0.47000000000E+01 0.  1.
         13    1    6    6    0    0 -0.11095519536E+03 -0.34342870186E+02 -0.74690337824E+02  0.13809103763E+03  0.00000000000E+00 0. -1.
        -14    1    6    6    0    0 -0.41918156906E+02 -0.27016219817E+02  0.27613046374E+02  0.57004283538E+02  0.00000000000E+00 0.  1.
</event>
<event>
12    1  0.1066489E+000  0.2055111E+03  0.7818608E-02  0.1145523E+00
         21   -1    0    0  501  502  0.00000000000E+00  0.00000000000E+00  0.34988702752E+03  0.34988702752E+03  0.00000000000E+00 0.  1.
         21   -1    0    0  502  503 -0.00000000000E+00 -0.00000000000E+00 -0.96417550046E+03  0.96417550046E+03  0.00000000000E+00 0.  1.
         -6    2    1    2    0  503 -0.71668034573E+01  0.11002793973E+03 -0.92187883639E+03  0.94413463701E+03  0.17138294318E+03 0.  0.
        -24    2    3    3    0    0 -0.48185604841E+02  0.99703579859E+02 -0.84756915036E+03  0.85850080075E+03  0.79921861190E+02 0.  0.
          6    2    1    2  501    0  0.71668034573E+01 -0.11002793973E+03  0.30759036346E+03  0.36992789097E+03  0.17342808951E+03 0.  0.
         24    2    5    5    0    0  0.15446600000E+02  0.54026687646E+01  0.18103283134E+03  0.19837125501E+03  0.79438545471E+02 0.  0.
          5    1    5    5  501    0 -0.82797965431E+01 -0.11543060850E+03  0.12655753211E+03  0.17155663597E+03  0.47000000000E+01 0. -1.
        -11    1    6    6    0    0  0.15176655237E+02  0.39358269635E+02  0.65134919349E+02  0.77601301352E+02  0.00000000000E+00 0.  1.
         12    1    6    6    0    0  0.26994476349E+00 -0.33955600871E+02  0.11589791200E+03  0.12076995365E+03  0.00000000000E+00 0. -1.
         -5    1    3    3    0  503  0.41018801384E+02  0.10324359876E+02 -0.74309686032E+02  0.85633836256E+02  0.47000000000E+01 0.  1.
         11    1    4    4    0    0 -0.63878447942E+02  0.58995654302E+02 -0.43316023819E+03  0.44180169227E+03  0.00000000000E+00 0. -1.
        -12    1    4    4    0    0  0.15692843101E+02  0.40707925557E+02 -0.41440891217E+03  0.41669910848E+03  0.00000000000E+00 0.  1.
</event>
<event>
12    1  0.1066489E+000  0.2121084E+03  0.7818608E-02  0.1140028E+00
         21   -1    0    0  503  502  0.00000000000E+00  0.00000000000E+00  0.39297748099E+03  0.39297748099E+03  0.00000000000E+00 0.  1.
         21   -1    0    0  501  503 -0.00000000000E+00 -0.00000000000E+00 -0.18879137287E+03  0.18879137287E+03  0.00000000000E+00 0.  1.
          6    2    1    2  501    0 -0.11132215101E+03 -0.53831154649E+02 -0.80896814437E+02  0.22643483183E+03  0.17157512630E+03 0.  0.
         24    2    3    3    0    0  0.51010536173E+01 -0.60469385097E+01 -0.56417067038E+02  0.98142034217E+02  0.79914874796E+02 0.  0.
         -6    2    1    2    0  502  0.11132215101E+03  0.53831154649E+02  0.28508292256E+03  0.35533402203E+03  0.17233566073E+03 0.  0.
        -24    2    5    5    0    0 -0.16862774077E+02  0.22458528417E+02  0.11833012968E+03  0.14262718004E+03  0.74510094937E+02 0.  0.
          5    1    3    3  501    0 -0.11642320462E+03 -0.47784216139E+02 -0.24479747399E+02  0.12829279761E+03  0.47000000000E+01 0. -1.
        -11    1    4    4    0    0  0.21457193807E+02  0.14450158093E+02  0.92178771605E+01  0.27462474293E+02  0.00000000000E+00 0.  1.
         12    1    4    4    0    0 -0.16356140190E+02 -0.20497096602E+02 -0.65634944198E+02  0.70679559923E+02  0.00000000000E+00 0. -1.
         -5    1    5    5    0  502  0.12818492508E+03  0.31372626232E+02  0.16675279288E+03  0.21270684199E+03  0.47000000000E+01 0.  1.
         11    1    6    6    0    0  0.17962763513E+02  0.30829543887E+02  0.90464158541E+02  0.97246519885E+02  0.00000000000E+00 0. -1.
        -12    1    6    6    0    0 -0.34825537590E+02 -0.83710154695E+01  0.27865971136E+02  0.45380660151E+02  0.00000000000E+00 0.  1.
</event>
<event>
12    1  0.1066489E+000  0.2226153E+03  0.7818608E-02  0.1132073E+00
         21   -1    0    0  503  502  0.00000000000E+00  0.00000000000E+00  0.11130968402E+03  0.11130968402E+03  0.00000000000E+00 0. -1.
         21   -1    0    0  501  503 -0.00000000000E+00 -0.00000000000E+00 -0.44387841262E+03  0.44387841262E+03  0.00000000000E+00 0. -1.
          6    2    1    2  501    0 -0.30443401247E+02 -0.13715659564E+03 -0.16779177549E+03  0.27876810087E+03  0.17268133001E+03 0.  0.
         24    2    3    3    0    0 -0.59089045659E+02 -0.49263363594E+02 -0.32884901014E+02  0.11515958042E+03  0.79132281267E+02 0.  0.
         -6    2    1    2    0  502  0.30443401247E+02  0.13715659564E+03 -0.16477695311E+03  0.27641999576E+03  0.17180755914E+03 0.  0.
        -24    2    5    5    0    0  0.57145481438E+02  0.18528080215E+02 -0.85506473843E+02  0.13119043734E+03  0.79313794352E+02 0.  0.
          5    1    3    3  501    0  0.28645644412E+02 -0.87893232043E+02 -0.13490687448E+03  0.16360852045E+03  0.47000000000E+01 0. -1.
        -11    1    4    4    0    0 -0.34930130246E+02 -0.69914339105E+02 -0.27919448187E+02  0.82991712831E+02  0.00000000000E+00 0.  1.
         12    1    4    4    0    0 -0.24158915413E+02  0.20650975511E+02 -0.49654528271E+01  0.32167867590E+02  0.00000000000E+00 0. -1.
         -5    1    5    5    0  502 -0.26702080191E+02  0.11862851542E+03 -0.79270479266E+02  0.14522955843E+03  0.47000000000E+01 0.  1.
         11    1    6    6    0    0  0.13177089947E+02 -0.84189083179E+00 -0.81956687082E+02  0.83013511172E+02  0.00000000000E+00 0. -1.
        -12    1    6    6    0    0  0.43968391491E+02  0.19369971047E+02 -0.35497867609E+01  0.48176926165E+02  0.00000000000E+00 0.  1.
</event>
<event>
12    1  0.1066489E+000  0.3514314E+03  0.7818608E-02  0.1062133E+00
         21   -1    0    0  503  502  0.00000000000E+00  0.00000000000E+00  0.39068710891E+04  0.39068710891E+04  0.00000000000E+00 0. -1.
         21   -1    0    0  501  503 -0.00000000000E+00 -0.00000000000E+00 -0.37165004470E+02  0.37165004470E+02  0.00000000000E+00 0.  1.
          6    2    1    2  501    0  0.47867534711E+01  0.30553703741E+03  0.11639656978E+04  0.12155685680E+04  0.17150802790E+03 0.  0.
         24    2    3    3    0    0  0.40367485989E+01  0.31909037728E+03  0.10386593575E+04  0.10894415509E+04  0.78959911712E+02 0.  0.
         -6    2    1    2    0  502 -0.47867534711E+01 -0.30553703741E+03  0.27057403868E+04  0.27284675255E+04  0.17357477609E+03 0.  0.
        -24    2    5    5    0    0  0.56398934571E+02 -0.18468316503E+03  0.13739408891E+04  0.13897885726E+04  0.80684562264E+02 0.  0.
          5    1    3    3  501    0  0.75000487219E+00 -0.13553339870E+02  0.12530634033E+03  0.12612701715E+03  0.47000000000E+01 0. -1.
        -11    1    4    4    0    0  0.12270384824E+02  0.21271150025E+03  0.56314802520E+03  0.60210667076E+03  0.00000000000E+00 0.  1.
         12    1    4    4    0    0 -0.82336362246E+01  0.10637887703E+03  0.47551133230E+03  0.48733488013E+03  0.00000000000E+00 0. -1.
         -5    1    5    5    0  502 -0.61185688042E+02 -0.12085387238E+03  0.13317994977E+04  0.13386789529E+04  0.47000000000E+01 0.  1.
         13    1    6    6    0    0  0.38800122016E+02 -0.61220977213E+02  0.75083471999E+03  0.75432501898E+03  0.00000000000E+00 0. -1.
        -14    1    6    6    0    0  0.17598812555E+02 -0.12346218782E+03  0.62310616912E+03  0.63546355365E+03  0.00000000000E+00 0.  1.
</event>
<event>
12    1  0.1066489E+000  0.2009822E+03  0.7818608E-02  0.1150232E+00
         21   -1    0    0  501  502  0.00000000000E+00  0.00000000000E+00  0.12581412336E+04  0.12581412336E+04  0.00000000000E+00 0. -1.
         21   -1    0    0  502  503 -0.00000000000E+00 -0.00000000000E+00 -0.31466887343E+02  0.31466887343E+02  0.00000000000E+00 0. -1.
         -6    2    1    2    0  503  0.48667769739E+01  0.10564502087E+03  0.69000237686E+03  0.71867735272E+03  0.17090728859E+03 0.  0.
        -24    2    3    3    0    0 -0.57067429687E+02  0.96865170006E+02  0.42975668807E+03  0.45097819271E+03  0.77787959681E+02 0.  0.
          6    2    1    2  501    0 -0.48667769739E+01 -0.10564502087E+03  0.53667196941E+03  0.57093076823E+03  0.16358662358E+03 0.  0.
         24    2    5    5    0    0 -0.16873221605E+02 -0.64892422043E+02  0.51077102070E+03  0.52095199106E+03  0.77512639989E+02 0.  0.
          5    1    5    5  501    0  0.12006444631E+02 -0.40752598822E+02  0.25900948709E+02  0.49978777171E+02  0.47000000000E+01 0. -1.
        -13    1    6    6    0    0  0.18739315580E+02 -0.58925087042E+02  0.39090798794E+03  0.39576809228E+03  0.00000000000E+00 0.  1.
         14    1    6    6    0    0 -0.35612537185E+02 -0.59673350001E+01  0.11986303275E+03  0.12518389877E+03  0.00000000000E+00 0. -1.
         -5    1    3    3    0  503  0.61934206661E+02  0.87798508593E+01  0.26024568879E+03  0.26769916001E+03  0.47000000000E+01 0.  1.
         11    1    4    4    0    0  0.25431779583E+01  0.19799403303E+02  0.20555158747E+03  0.20651861717E+03  0.00000000000E+00 0. -1.
        -12    1    4    4    0    0 -0.59610607645E+02  0.77065766703E+02  0.22420510060E+03  0.24445957555E+03  0.00000000000E+00 0.  1.
</event>
<event>
12    1  0.1066489E+000  0.1954805E+03  0.7818608E-02  0.1153776E+00
         21   -1    0    0  503  502  0.00000000000E+00  0.00000000000E+00  0.25245179963E+03  0.25245179963E+03  0.00000000000E+00 0.  1.
         21   -1    0    0  501  503 -0.00000000000E+00 -0.00000000000E+00 -0.16395310342E+03  0.16395310342E+03  0.00000000000E+00 0.  1.
          6    2    1    2  501    0  0.58447517049E+02  0.71379435439E+02 -0.14705035496E+02  0.19603283862E+03  0.17234123040E+03 0.  0.
         24    2    3    3    0    0 -0.26576834083E+02  0.66097871203E+02 -0.25940056138E+02  0.10997849012E+03  0.79668846422E+02 0.  0.
         -6    2    1    2    0  502 -0.58447517049E+02 -0.71379435439E+02  0.10320373171E+03  0.22037206443E+03  0.17146924065E+03 0.  0.
        -24    2    5    5    0    0  0.14528604087E+02 -0.81621733278E+02  0.35906511402E+02  0.12046498369E+03  0.79682790203E+02 0.  0.
          5    1    3    3  501    0  0.85024351132E+02  0.52815642366E+01  0.11235020642E+02  0.86054348495E+02  0.47000000000E+01 0. -1.
        -11    1    4    4    0    0 -0.29721321953E+02 -0.56616644580E+01  0.68469989240E+01  0.31020844884E+02  0.00000000000E+00 0.  1.
         12    1    4    4    0    0  0.31444878706E+01  0.71759535661E+02 -0.32787055062E+02  0.78957645240E+02  0.00000000000E+00 0. -1.
         -5    1    5    5    0  502 -0.72976121136E+02  0.10242297839E+02  0.67297220306E+02  0.99907080740E+02  0.47000000000E+01 0.  1.
         13    1    6    6    0    0 -0.10923757213E+02 -0.67284420029E+02  0.53243560848E+02  0.86495077444E+02  0.00000000000E+00 0. -1.
        -14    1    6    6    0    0  0.25452361300E+02 -0.14337313250E+02 -0.17337049446E+02  0.33969906247E+02  0.00000000000E+00 0.  1.
</event>
<event>
12    1  0.1066489E+000  0.2144256E+03  0.7818608E-02  0.1139090E+00
         21   -1    0    0  503  502  0.00000000000E+00  0.00000000000E+00  0.13520178471E+03  0.13520178471E+03  0.00000000000E+00 0. -1.
         21   -1    0    0  501  503 -0.00000000000E+00 -0.00000000000E+00 -0.47162360479E+03  0.47162360479E+03  0.00000000000E+00 0. -1.
          6    2    1    2  501    0 -0.15060151674E+01 -0.12812592819E+03 -0.33180058206E+03  0.39235001242E+03  0.16561516971E+03 0.  0.
         24    2    3    3    0    0 -0.54756159228E+02 -0.98377700328E+02 -0.28202100014E+03  0.31347903120E+03  0.77825764283E+02 0.  0.
         -6    2    1    2    0  502  0.15060151674E+01  0.12812592819E+03 -0.46212380276E+01  0.21447537708E+03  0.17192966578E+03 0.  0.
        -24    2    5    5    0    0 -0.43866703933E+02  0.71063350318E+02  0.46379456972E+02  0.12538002186E+03  0.81208425545E+02 0.  0.
          5    1    3    3  501    0  0.53250144060E+02 -0.29748227859E+02 -0.49779581914E+02  0.78870981221E+02  0.47000000000E+01 0. -1.
        -11    1    4    4    0    0  0.14493727252E+02 -0.13472565235E+02 -0.14929803256E+02  0.24788650002E+02  0.00000000000E+00 0.  1.
         12    1    4    4    0    0 -0.69249886479E+02 -0.84905135093E+02 -0.26709119689E+03  0.28869038120E+03  0.00000000000E+00 0. -1.
         -5    1    5    5    0  502  0.45372719100E+02  0.57062577869E+02 -0.51000694999E+02  0.89095355222E+02  0.47000000000E+01 0.  1.
         11    1    6    6    0    0 -0.10045510110E+02  0.76412369938E+02  0.14153325256E+02  0.78358657267E+02  0.00000000000E+00 0. -1.
        -12    1    6    6    0    0 -0.33821193823E+02 -0.53490196202E+01  0.32226131716E+02  0.47021364590E+02  0.00000000000E+00 0.  1.
</event>
<event>
12    1  0.1066489E+000  0.3078454E+03  0.7818608E-02  0.1081432E+00
         21   -1    0    0  503  502  0.00000000000E+00  0.00000000000E+00  0.36303111343E+03  0.36303111343E+03  0.00000000000E+00 0.  1.
         21   -1    0    0  501  503 -0.00000000000E+00 -0.00000000000E+00 -0.26073632912E+03  0.26073632912E+03  0.00000000000E+00 0.  1.
          6    2    1    2  501    0 -0.23522048636E+03 -0.99489551879E+02  0.47626739059E+02  0.31110562772E+03  0.17114776419E+03 0.  0.
         24    2    3    3    0    0 -0.13636255234E+03  0.92404923592E+01  0.34024059784E+01  0.15757063081E+03  0.78337698132E+02 0.  0.
         -6    2    1    2    0  502  0.23522048636E+03  0.99489551879E+02  0.54668045248E+02  0.31266181483E+03  0.17187776804E+03 0.  0.
        -24    2    5    5    0    0  0.19907238226E+03  0.16170262568E+02  0.63226868732E+02  0.22131558962E+03  0.71355886299E+02 0.  0.
          5    1    3    3  501    0 -0.98857934021E+02 -0.10873004424E+03  0.44224333081E+02  0.15353499691E+03  0.47000000000E+01 0. -1.
        -13    1    4    4    0    0 -0.48982662495E+02 -0.24086982350E+01 -0.36175410316E+02  0.60940654442E+02  0.00000000000E+00 0.  1.
         14    1    4    4    0    0 -0.87379889845E+02  0.11649190594E+02  0.39577816294E+02  0.96629976371E+02  0.00000000000E+00 0. -1.
         -5    1    5    5    0  502  0.36148104101E+02  0.83319289310E+02 -0.85588234837E+01  0.91346225213E+02  0.47000000000E+01 0.  1.
         11    1    6    6    0    0  0.47610740616E+02  0.33855260321E+02  0.28120134100E+02  0.64835971615E+02  0.00000000000E+00 0. -1.
        -12    1    6    6    0    0  0.15146164164E+03 -0.17684997752E+02  0.35106734632E+02  0.15647961801E+03  0.00000000000E+00 0.  1.
</event>
<event>
12    1  0.1066489E+000  0.2225361E+03  0.7818608E-02  0.1132896E+00
         21   -1    0    0  503  502  0.00000000000E+00  0.00000000000E+00  0.11245435415E+04  0.11245435415E+04  0.00000000000E+00 0.  1.
         21   -1    0    0  501  503 -0.00000000000E+00 -0.00000000000E+00 -0.52531037103E+02  0.52531037103E+02  0.00000000000E+00 0.  1.
          6    2    1    2  501    0 -0.11080910261E+03  0.77450615866E+02  0.29136370572E+03  0.36662668071E+03  0.17676271914E+03 0.  0.
         24    2    3    3    0    0 -0.78837240627E+02  0.11965066077E+03  0.18295018693E+03  0.24588470456E+03  0.80354999267E+02 0.  0.
         -6    2    1    2    0  502  0.11080910261E+03 -0.77450615866E+02  0.78064879870E+03  0.81044789791E+03  0.17069268643E+03 0.  0.
        -24    2    5    5    0    0  0.13880013803E+03 -0.98490211206E+02  0.68628525390E+03  0.70968713559E+03  0.60848834734E+02 0.  0.
          5    1    3    3  501    0 -0.31971861984E+02 -0.42200044901E+02  0.10841351879E+03  0.12074197615E+03  0.47000000000E+01 0. -1.
        -11    1    4    4    0    0 -0.12174031200E+02  0.41787041699E+02  0.97140409547E+01  0.44595139660E+02  0.00000000000E+00 0.  1.
         12    1    4    4    0    0 -0.66663209427E+02  0.77863619068E+02  0.17323614597E+03  0.20128956490E+03  0.00000000000E+00 0. -1.
         -5    1    5    5    0  502 -0.27991035419E+02  0.21039595340E+02  0.94363544801E+02  0.10076076232E+03  0.47000000000E+01 0.  1.
         11    1    6    6    0    0  0.10620542425E+03 -0.64716144737E+02  0.38022128671E+03  0.40004499547E+03  0.00000000000E+00 0. -1.
        -12    1    6    6    0    0  0.32594713782E+02 -0.33774066469E+02  0.30606396719E+03  0.30964214013E+03  0.00000000000E+00 0.  1.
</event>
<event>
12    1  0.1066489E+000  0.3585652E+03  0.7818608E-02  0.1059434E+00
         21   -1    0    0  503  502  0.00000000000E+00  0.00000000000E+00  0.13399666026E+04  0.13399666026E+04  0.00000000000E+00 0. -1.
         21   -1    0    0  501  503 -0.00000000000E+00 -0.00000000000E+00 -0.11711917618E+03  0.11711917618E+03  0.00000000000E+00 0.  1.
          6    2    1    2  501    0  0.19258039661E+03  0.24844519858E+03  0.29820506570E+03  0.46636388241E+03  0.17250154709E+03 0.  0.
         24    2    3    3    0    0  0.70746704879E+02  0.16054780071E+03  0.10531538154E+03  0.22182774756E+03  0.85647693676E+02 0.  0.
         -6    2    1    2    0  502 -0.19258039661E+03 -0.24844519858E+03  0.92464236072E+03  0.99072189638E+03  0.16659578285E+03 0.  0.
        -24    2    5    5    0    0 -0.20340517325E+03 -0.24055683433E+03  0.92067513950E+03  0.97598314052E+03  0.75227142978E+02 0.  0.
          5    1    3    3  501    0  0.12183369173E+03  0.87897397870E+02  0.19288968416E+03  0.24453613485E+03  0.47000000000E+01 0. -1.
        -13    1    4    4    0    0  0.65535407411E+02  0.11876935574E+03  0.11589436090E+03  0.17841679399E+03  0.00000000000E+00 0.  1.
         14    1    4    4    0    0  0.52112974676E+01  0.41778444970E+02 -0.10578979362E+02  0.43410953568E+02  0.00000000000E+00 0. -1.
         -5    1    5    5    0  502  0.10824776641E+02 -0.78883642566E+01  0.39672212205E+01  0.14738755856E+02  0.47000000000E+01 0.  1.
         11    1    6    6    0    0 -0.11623301680E+03 -0.79815519256E+02  0.39455610224E+03  0.41899301798E+03  0.00000000000E+00 0. -1.
        -12    1    6    6    0    0 -0.87172156455E+02 -0.16074131507E+03  0.52611903726E+03  0.55699012254E+03  0.00000000000E+00 0.  1.
</event>
<event>
12    1  0.1066489E+000  0.3433622E+03  0.7818608E-02  0.1065406E+00
         21   -1    0    0  501  502  0.00000000000E+00  0.00000000000E+00  0.45791856086E+03  0.45791856086E+03  0.00000000000E+00 0.  1.
         21   -1    0    0  502  503 -0.00000000000E+00 -0.00000000000E+00 -0.31893281591E+03  0.31893281591E+03  0.00000000000E+00 0.  1.
         -6    2    1    2    0  503  0.15569251237E+03  0.25257037973E+03 -0.10133573546E+03  0.35800350993E+03  0.17281674316E+03 0.  0.
        -24    2    3    3    0    0  0.69318579767E+02  0.20552544879E+03 -0.23068440633E+02  0.23221980192E+03  0.79675013963E+02 0.  0.
          6    2    1    2  501    0 -0.15569251237E+03 -0.25257037973E+03  0.24032148041E+03  0.41884786685E+03  0.17218352561E+03 0.  0.
         24    2    5    5    0    0 -0.15335718873E+03 -0.18674243571E+03  0.11936801532E+03  0.28104147125E+03  0.79651872867E+02 0.  0.
          5    1    5    5  501    0 -0.23353236400E+01 -0.65827944017E+02  0.12095346509E+03  0.13780639560E+03  0.47000000000E+01 0. -1.
        -11    1    6    6    0    0 -0.65051180618E+01 -0.12764842800E+02 -0.11559890074E+02  0.18408933462E+02  0.00000000000E+00 0.  1.
         12    1    6    6    0    0 -0.14685207067E+03 -0.17397759291E+03  0.13092790540E+03  0.26263253779E+03  0.00000000000E+00 0. -1.
         -5    1    3    3    0  503  0.86373932602E+02  0.47044930938E+02 -0.78267294827E+02  0.12578370801E+03  0.47000000000E+01 0.  1.
         11    1    4    4    0    0  0.73919515498E+02  0.13593081816E+03  0.99564270065E+01  0.15504970989E+03  0.00000000000E+00 0. -1.
        -12    1    4    4    0    0 -0.46009357310E+01  0.69594630626E+02 -0.33024867640E+02  0.77170092032E+02  0.00000000000E+00 0.  1.
</event>
<event>
12    1  0.1066489E+000  0.2459337E+03  0.7818608E-02  0.1116175E+00
         21   -1    0    0  501  502  0.00000000000E+00  0.00000000000E+00  0.22941576641E+03  0.22941576641E+03  0.00000000000E+00 0. -1.
         21   -1    0    0  502  503 -0.00000000000E+00 -0.00000000000E+00 -0.26643108883E+03  0.26643108883E+03  0.00000000000E+00 0. -1.
         -6    2    1    2    0  503 -0.17112639493E+03  0.21415593528E+02  0.13976164223E+02  0.24633046817E+03  0.17532967717E+03 0.  0.
        -24    2    3    3    0    0 -0.90318325806E+02  0.66210353482E+02  0.51081476753E+02  0.14665394751E+03  0.79729869984E+02 0.  0.
          6    2    1    2  501    0  0.17112639493E+03 -0.21415593528E+02 -0.50991486644E+02  0.24951638706E+03  0.17296076149E+03 0.  0.
         24    2    5    5    0    0  0.12640215268E+03  0.51874757727E+02 -0.30148416247E+02  0.16103894917E+03  0.79725287441E+02 0.  0.
          5    1    5    5  501    0  0.44724242249E+02 -0.73290351255E+02 -0.20843070396E+02  0.88477437889E+02  0.47000000000E+01 0. -1.
        -13    1    6    6    0    0  0.13423063074E+03  0.33701946773E+02 -0.25853748630E+02  0.14079097898E+03  0.00000000000E+00 0.  1.
         14    1    6    6    0    0 -0.78284780636E+01  0.18172810954E+02 -0.42946676174E+01  0.20247970187E+02  0.00000000000E+00 0. -1.
         -5    1    3    3    0  503 -0.80808069119E+02 -0.44794759954E+02 -0.37105312530E+02  0.99676520666E+02  0.47000000000E+01 0.  1.
         11    1    4    4    0    0  0.13485812711E+02  0.13671921836E+02  0.16395843790E+02  0.25250985818E+02  0.00000000000E+00 0. -1.
        -12    1    4    4    0    0 -0.10380413852E+03  0.52538431646E+02  0.34685632962E+02  0.12140296169E+03  0.00000000000E+00 0.  1.
</event>
<event>
12    1  0.1066489E+000  0.2795311E+03  0.7818608E-02  0.1096152E+00
         21   -1    0    0  501  502  0.00000000000E+00  0.00000000000E+00  0.18933502995E+03  0.18933502995E+03  0.00000000000E+00 0. -1.
         21   -1    0    0  502  503 -0.00000000000E+00 -0.00000000000E+00 -0.41320838095E+03  0.41320838095E+03  0.00000000000E+00 0. -1.
         -6    2    1    2    0  503 -0.19614173799E+03  0.96332587364E+02 -0.13676221330E+03  0.31119372737E+03  0.17431604687E+03 0.  0.
        -24    2    3    3    0    0 -0.49621881371E+02  0.86767139819E+02 -0.35969866715E+02  0.13303437931E+03  0.80084000300E+02 0.  0.
          6    2    1    2  501    0  0.19614173799E+03 -0.96332587364E+02 -0.87111137698E+02  0.29134968353E+03  0.17188583132E+03 0.  0.
         24    2    5    5    0    0  0.68703951072E+02  0.16247370036E+02 -0.48000050388E+02  0.11680340458E+03  0.79717128385E+02 0.  0.
          5    1    5    5  501    0  0.12743778692E+03 -0.11257995740E+03 -0.39111087310E+02  0.17454627895E+03  0.47000000000E+01 0. -1.
        -11    1    6    6    0    0  0.41779571361E+02  0.26475061826E+02 -0.66272010255E+02  0.82694865772E+02  0.00000000000E+00 0.  1.
         12    1    6    6    0    0  0.26924379711E+02 -0.10227691790E+02  0.18271959867E+02  0.34108538807E+02  0.00000000000E+00 0. -1.
         -5    1    3    3    0  503 -0.14651985662E+03  0.95654475446E+01 -0.10079234658E+03  0.17815934806E+03  0.47000000000E+01 0.  1.
         13    1    4    4    0    0 -0.10208889119E+02 -0.88981278646E+01  0.12814307546E+02  0.18644156575E+02  0.00000000000E+00 0. -1.
        -14    1    4    4    0    0 -0.39412992252E+02  0.95665267684E+02 -0.48784174261E+02  0.11439022274E+03  0.00000000000E+00 0.  1.
</event>
<event>
12    1  0.1066489E+000  0.1813899E+03  0.7818608E-02  0.1166812E+00
         21   -1    0    0  501  502  0.00000000000E+00  0.00000000000E+00  0.12389394481E+03  0.12389394481E+03  0.00000000000E+00 0. -1.
         21   -1    0    0  502  503 -0.00000000000E+00 -0.00000000000E+00 -0.42167511419E+03  0.42167511419E+03  0.00000000000E+00 0. -1.
         -6    2    1    2    0  503 -0.66497755880E+01 -0.56110689515E+02 -0.31560964546E+03  0.36330507099E+03  0.17084641438E+03 0.  0.
        -24    2    3    3    0    0 -0.57942148655E+02 -0.26792923544E+02 -0.27250149033E+03  0.29001904248E+03  0.76018612370E+02 0.  0.
          6    2    1    2  501    0  0.66497755880E+01  0.56110689515E+02  0.17828476088E+02  0.18226398800E+03  0.17236495517E+03 0.  0.
         24    2    5    5    0    0  0.29957530279E+02 -0.30909681833E+02  0.10434369777E+02  0.91751230523E+02  0.80352661303E+02 0.  0.
          5    1    5    5  501    0 -0.23307754691E+02  0.87020371348E+02  0.73941063116E+01  0.90512757479E+02  0.47000000000E+01 0. -1.
        -11    1    6    6    0    0 -0.44796401913E+01 -0.98769170446E+01 -0.31644217145E+02  0.33451115755E+02  0.00000000000E+00 0.  1.
         12    1    6    6    0    0  0.34437170470E+02 -0.21032764788E+02  0.42078586922E+02  0.58300114768E+02  0.00000000000E+00 0. -1.
         -5    1    3    3    0  503  0.51292373067E+02 -0.29317765972E+02 -0.43108155136E+02  0.73286028516E+02  0.47000000000E+01 0.  1.
         11    1    4    4    0    0 -0.21891398324E+02  0.18920009075E+02 -0.16729493900E+03  0.16977866968E+03  0.00000000000E+00 0. -1.
        -12    1    4    4    0    0 -0.36050750331E+02 -0.45712932618E+02 -0.10520655133E+03  0.12024037279E+03  0.00000000000E+00 0.  1.
</event>
<event>
12    1  0.1066489E+000  0.2314677E+03  0.7818608E-02  0.1125618E+00
         21   -1    0    0  501  502  0.00000000000E+00  0.00000000000E+00  0.17081030975E+04  0.17081030975E+04  0.00000000000E+00 0. -1.
         21   -1    0    0  502  503 -0.00000000000E+00 -0.00000000000E+00 -0.39379823958E+02  0.39379823958E+02  0.00000000000E+00 0. -1.
         -6    2    1    2    0  503  0.66038876441E+02 -0.13942713910E+03  0.12285744139E+04  0.12501819141E+04  0.17250700696E+03 0.  0.
        -24    2    3    3    0    0  0.26243649416E+02 -0.44507768454E+02  0.26843078687E+03  0.28452606360E+03  0.78932394742E+02 0.  0.
          6    2    1    2  501    0 -0.66038876441E+02  0.13942713910E+03  0.44014885961E+03  0.49730100736E+03  0.17255785403E+03 0.  0.
         24    2    5    5    0    0  0.23340351331E+01  0.13519971803E+03  0.24997717593E+03  0.29511276487E+03  0.79489269904E+02 0.  0.
          5    1    5    5  501    0 -0.68372911574E+02  0.42274210691E+01  0.19017168368E+03  0.20218824249E+03  0.47000000000E+01 0. -1.
        -13    1    6    6    0    0 -0.13868140443E+02  0.97374349665E+02  0.22833739197E+03  0.24862030059E+03  0.00000000000E+00 0.  1.
         14    1    6    6    0    0  0.16202175576E+02  0.37825368365E+02  0.21639783952E+02  0.46492464280E+02  0.00000000000E+00 0. -1.
         -5    1    3    3    0  503  0.39795227024E+02 -0.94919370645E+02  0.96014362705E+03  0.96565585049E+03  0.47000000000E+01 0.  1.
         13    1    4    4    0    0  0.35512345377E+01  0.46153110788E+01 -0.38104419120E+01  0.69592981442E+01  0.00000000000E+00 0. -1.
        -14    1    4    4    0    0  0.22692414879E+02 -0.49123079533E+02  0.27224122879E+03  0.27756676546E+03  0.00000000000E+00 0.  1.
</event>
<event>
12    1  0.1066489E+000  0.2356785E+03  0.7818608E-02  0.1123085E+00
         21   -1    0    0  503  502  0.00000000000E+00  0.00000000000E+00  0.43544492083E+03  0.43544492083E+03  0.00000000000E+00 0. -1.
         21   -1    0    0  501  503 -0.00000000000E+00 -0.00000000000E+00 -0.14884336449E+03  0.14884336449E+03  0.00000000000E+00 0. -1.
          6    2    1    2  501    0 -0.14484777933E+03 -0.70579418300E+02  0.30338352549E+02  0.23762314222E+03  0.17199421100E+03 0.  0.
         24    2    3    3    0    0 -0.42211357507E+02  0.81076142002E+01  0.48822628709E+02  0.10689578229E+03  0.84826452756E+02 0.  0.
         -6    2    1    2    0  502  0.14484777933E+03  0.70579418300E+02  0.25626320379E+03  0.34666514310E+03  0.16894838963E+03 0.  0.
        -24    2    5    5    0    0  0.59104707803E+01  0.76027907942E+01  0.74878004740E+02  0.10961596728E+03  0.79474578308E+02 0.  0.
          5    1    3    3  501    0 -0.10263642182E+03 -0.78687032500E+02 -0.18484276160E+02  0.13072735993E+03  0.47000000000E+01 0. -1.
        -11    1    4    4    0    0 -0.30621936437E+02 -0.37013426562E+02  0.19470859381E+02  0.51834458635E+02  0.00000000000E+00 0.  1.
         12    1    4    4    0    0 -0.11589421070E+02  0.45121040762E+02  0.29351769328E+02  0.55061323657E+02  0.00000000000E+00 0. -1.
         -5    1    5    5    0  502  0.13893730855E+03  0.62976627506E+02  0.18138519905E+03  0.23704917582E+03  0.47000000000E+01 0.  1.
         11    1    6    6    0    0  0.32881384825E+02 -0.22261855741E+02  0.34365903282E+02  0.52514674115E+02  0.00000000000E+00 0. -1.
        -12    1    6    6    0    0 -0.26970914044E+02  0.29864646536E+02  0.40512101458E+02  0.57101293169E+02  0.00000000000E+00 0.  1.
</event>
<event>
12    1  0.1066489E+000  0.1880703E+03  0.7818608E-02  0.1162323E+00
         21   -1    0    0  503  502  0.00000000000E+00  0.00000000000E+00  0.58892331569E+02  0.58892331569E+02  0.00000000000E+00 0. -1.
         21   -1    0    0  501  503 -0.00000000000E+00 -0.00000000000E+00 -0.57584311576E+03  0.57584311576E+03  0.00000000000E+00 0. -1.
          6    2    1    2  501    0  0.77890548273E+01  0.75420711990E+02 -0.22699828673E+03  0.28913032870E+03  0.16223184529E+03 0.  0.
         24    2    3    3    0    0  0.39409545659E+02  0.85983672364E+02 -0.22298271762E+03  0.25522389321E+03  0.80446498432E+02 0.  0.
         -6    2    1    2    0  502 -0.77890548273E+01 -0.75420711990E+02 -0.28995249745E+03  0.34560511862E+03  0.17210895986E+03 0.  0.
        -24    2    5    5    0    0 -0.66096056418E+02 -0.88376312211E+01 -0.17661927664E+03  0.20173183403E+03  0.71095510266E+02 0.  0.
          5    1    3    3  501    0 -0.31620490832E+02 -0.10562960375E+02 -0.40155691178E+01  0.33906435490E+02  0.47000000000E+01 0. -1.
        -13    1    4    4    0    0 -0.21195153557E+02  0.15439717857E+02 -0.83975265012E+02  0.87974226656E+02  0.00000000000E+00 0.  1.
         14    1    4    4    0    0  0.60604699216E+02  0.70543954508E+02 -0.13900745260E+03  0.16724966656E+03  0.00000000000E+00 0. -1.
         -5    1    5    5    0  502  0.58307001591E+02 -0.66583080769E+02 -0.11333322081E+03  0.14387328459E+03  0.47000000000E+01 0.  1.
         11    1    6    6    0    0 -0.17060451105E+02  0.23464735557E+02 -0.22216994488E+02  0.36541040636E+02  0.00000000000E+00 0. -1.
        -12    1    6    6    0    0 -0.49035605313E+02 -0.32302366778E+02 -0.15440228216E+03  0.16519079340E+03  0.00000000000E+00 0.  1.
</event>
<event>
12    1  0.1066489E+000  0.1747272E+03  0.7818608E-02  0.1175201E+00
         21   -1    0    0  503  502  0.00000000000E+00  0.00000000000E+00  0.79424624190E+02  0.79424624190E+02  0.00000000000E+00 0.  1.
         21   -1    0    0  501  503 -0.00000000000E+00 -0.00000000000E+00 -0.36599939577E+03  0.36599939577E+03  0.00000000000E+00 0.  1.
          6    2    1    2  501    0 -0.22992517047E+02  0.34904480730E+01 -0.14299181076E+03  0.21926994078E+03  0.16459589884E+03 0.  0.
         24    2    3    3    0    0  0.86470665025E+01  0.59335268609E+02 -0.10047654179E+03  0.14213794143E+03  0.80698284267E+02 0.  0.
         -6    2    1    2    0  502  0.22992517047E+02 -0.34904480730E+01 -0.14358296081E+03  0.22615407918E+03  0.17317263590E+03 0.  0.
        -24    2    5    5    0    0  0.42936294329E+02 -0.41447774324E+02 -0.15265138522E+03  0.18207642963E+03  0.79296516001E+02 0.  0.
          5    1    3    3  501    0 -0.31639583550E+02 -0.55844820536E+02 -0.42515268975E+02  0.77131999351E+02  0.47000000000E+01 0. -1.
        -13    1    4    4    0    0  0.24182727671E+02  0.18632065277E+02  0.21933848379E+01  0.30606684092E+02  0.00000000000E+00 0.  1.
         14    1    4    4    0    0 -0.15535661169E+02  0.40703203332E+02 -0.10266992663E+03  0.11153125733E+03  0.00000000000E+00 0. -1.
         -5    1    5    5    0  502 -0.19943777282E+02  0.37957326251E+02  0.90684244063E+01  0.44077649547E+02  0.47000000000E+01 0.  1.
         11    1    6    6    0    0  0.50766237187E+02 -0.38007373818E+02 -0.54689554804E+02  0.83741976973E+02  0.00000000000E+00 0. -1.
        -12    1    6    6    0    0 -0.78299428583E+01 -0.34404005061E+01 -0.97961830416E+02  0.98334452657E+02  0.00000000000E+00 0.  1.
</event>
<event>
12    1  0.1066489E+000  0.1946012E+03  0.7818608E-02  0.1154712E+00
         21   -1    0    0  503  502  0.00000000000E+00  0.00000000000E+00  0.96041820496E+02  0.96041820496E+02  0.00000000000E+00 0. -1.
         21   -1    0    0  501  503 -0.00000000000E+00 -0.00000000000E+00 -0.56324360603E+03  0.56324360603E+03  0.00000000000E+00 0. -1.
          6    2    1    2  501    0  0.88169074092E+02  0.11286476666E+02 -0.52058571496E+02  0.20144410665E+03  0.17311401751E+03 0.  0.
         24    2    3    3    0    0  0.61441083071E+02  0.74794347408E+02 -0.34943431420E+02  0.13029178294E+03  0.79910601355E+02 0.  0.
         -6    2    1    2    0  502 -0.88169074092E+02 -0.11286476666E+02 -0.41514321404E+03  0.45784131988E+03  0.17138732695E+03 0.  0.
        -24    2    5    5    0    0 -0.44379895511E+02 -0.40798594315E+02 -0.38216434864E+03  0.39540613098E+03  0.81623027544E+02 0.  0.
          5    1    3    3  501    0  0.26727991021E+02 -0.63507870741E+02 -0.17115140077E+02  0.71152323714E+02  0.47000000000E+01 0. -1.
        -13    1    4    4    0    0  0.49285864170E+01 -0.16957100533E+02 -0.31230832732E+01  0.17932871261E+02  0.00000000000E+00 0.  1.
         14    1    4    4    0    0  0.56512496654E+02  0.91751447940E+02 -0.31820348147E+02  0.11235891168E+03  0.00000000000E+00 0. -1.
         -5    1    5    5    0  502 -0.43789178581E+02  0.29512117649E+02 -0.32978865405E+02  0.62435188895E+02  0.47000000000E+01 0.  1.
         13    1    6    6    0    0 -0.34691596225E+02 -0.63871738459E+02 -0.23042241084E+03  0.24161455511E+03  0.00000000000E+00 0. -1.
        -14    1    6    6    0    0 -0.96882992857E+01  0.23073144143E+02 -0.15174193780E+03  0.15379157587E+03  0.00000000000E+00 0.  1.
</event>
<event>
12    1  0.1066489E+000  0.2332747E+03  0.7818608E-02  0.1124596E+00
         21   -1    0    0  501  502  0.00000000000E+00  0.00000000000E+00  0.19965158924E+03  0.19965158924E+03  0.00000000000E+00 0. -1.
         21   -1    0    0  502  503 -0.00000000000E+00 -0.00000000000E+00 -0.27649130130E+03  0.27649130130E+03  0.00000000000E+00 0. -1.
         -6    2    1    2    0  503 -0.13670891067E+03  0.79006132488E+02 -0.72023126416E+02  0.24281850578E+03  0.16982991722E+03 0.  0.
        -24    2    3    3    0    0 -0.47870806152E+02  0.56085029402E+02 -0.99976280665E+02  0.14679218328E+03  0.78201942242E+02 0.  0.
          6    2    1    2  501    0  0.13670891067E+03 -0.79006132488E+02 -0.48165856376E+01  0.23332438477E+03  0.17171422132E+03 0.  0.
         24    2    5    5    0    0  0.11203937040E+03 -0.17190499766E+02 -0.56536655487E+02  0.14890392344E+03  0.78279315274E+02 0.  0.
          5    1    5    5  501    0  0.24669540270E+02 -0.61815632722E+02  0.51720069850E+02  0.84420461331E+02  0.47000000000E+01 0. -1.
        -11    1    6    6    0    0  0.42331277988E+02 -0.23340327864E+02  0.13200658043E+02  0.50109533760E+02  0.00000000000E+00 0.  1.
         12    1    6    6    0    0  0.69708092409E+02  0.61498280977E+01 -0.69737313531E+02  0.98794389676E+02  0.00000000000E+00 0. -1.
         -5    1    3    3    0  503 -0.88838104516E+02  0.22921103086E+02  0.27953154249E+02  0.96026322501E+02  0.47000000000E+01 0.  1.
         13    1    4    4    0    0 -0.36304529968E+02  0.27055593605E+00 -0.58810388092E+01  0.36778780760E+02  0.00000000000E+00 0. -1.
        -14    1    4    4    0    0 -0.11566276184E+02  0.55814473466E+02 -0.94095241856E+02  0.11001340252E+03  0.00000000000E+00 0.  1.
</event>
<event>
12    1  0.1066489E+000  0.2859614E+03  0.7818608E-02  0.1092740E+00
         21   -1    0    0  501  502  0.00000000000E+00  0.00000000000E+00  0.41841290223E+02  0.41841290223E+02  0.00000000000E+00 0.  1.
         21   -1    0    0  502  503 -0.00000000000E+00 -0.00000000000E+00 -0.22514798130E+04  0.22514798130E+04  0.00000000000E+00 0.  1.
         -6    2    1    2    0  503  0.54836057661E+01 -0.22751050504E+03 -0.68225693651E+03  0.73976243728E+03  0.17315552651E+03 0.  0.
        -24    2    3    3    0    0 -0.34069344037E+02 -0.22248226756E+03 -0.62978282488E+03  0.67369170699E+03  0.81086558496E+02 0.  0.
          6    2    1    2  501    0 -0.54836057661E+01  0.22751050504E+03 -0.15273815863E+04  0.15535586659E+04  0.16987912943E+03 0.  0.
         24    2    5    5    0    0 -0.34253913301E+01  0.27433764155E+02 -0.50976954950E+03  0.51645149411E+03  0.78056437587E+02 0.  0.
          5    1    5    5  501    0 -0.20582144361E+01  0.20007674089E+03 -0.10176120368E+04  0.10371071718E+04  0.47000000000E+01 0. -1.
        -11    1    6    6    0    0  0.37289730595E+02  0.14530760044E+02 -0.23553345598E+03  0.23890934658E+03  0.00000000000E+00 0.  1.
         12    1    6    6    0    0 -0.40715121925E+02  0.12903004110E+02 -0.27423609351E+03  0.27754214753E+03  0.00000000000E+00 0. -1.
         -5    1    3    3    0  503  0.39552949803E+02 -0.50282374824E+01 -0.52474111627E+02  0.66070730292E+02  0.47000000000E+01 0.  1.
         11    1    4    4    0    0 -0.24474966711E+02 -0.14957479628E+03 -0.30368874493E+03  0.33940904153E+03  0.00000000000E+00 0. -1.
        -12    1    4    4    0    0 -0.95943773259E+01 -0.72907471281E+02 -0.32609407995E+03  0.33428266546E+03  0.00000000000E+00 0.  1.
</event>
<event>
12    1  0.1066489E+000  0.2247520E+03  0.7818608E-02  0.1130454E+00
         21   -1    0    0  503  502  0.00000000000E+00  0.00000000000E+00  0.17161759324E+03  0.17161759324E+03  0.00000000000E+00 0.  1.
         21   -1    0    0  501  503 -0.00000000000E+00 -0.00000000000E+00 -0.29520385751E+03  0.29520385751E+03  0.00000000000E+00 0.  1.
          6    2    1    2  501    0  0.14249457999E+03  0.24068384383E+02 -0.46145111520E+02  0.22944030878E+03  0.17213219200E+03 0.  0.
         24    2    3    3    0    0  0.47225592792E+02  0.20136179416E+02  0.36969969412E+02  0.10286286673E+03  0.81106524876E+02 0.  0.
         -6    2    1    2    0  502 -0.14249457999E+03 -0.24068384383E+02 -0.77441152748E+02  0.23738114197E+03  0.17166444585E+03 0.  0.
        -24    2    5    5    0    0 -0.85337941920E+02  0.48674901406E+02 -0.19291733694E+02  0.12801061651E+03  0.79766763703E+02 0.  0.
          5    1    3    3  501    0  0.95268987203E+02  0.39322049668E+01 -0.83115080932E+02  0.12657744205E+03  0.47000000000E+01 0. -1.
        -13    1    4    4    0    0  0.43618417698E+02 -0.25289760943E+02  0.19650868502E+02  0.54113722880E+02  0.00000000000E+00 0.  1.
         14    1    4    4    0    0  0.36071750935E+01  0.45425940360E+02  0.17319100910E+02  0.48749143849E+02  0.00000000000E+00 0. -1.
         -5    1    5    5    0  502 -0.57156638075E+02 -0.72743285789E+02 -0.58149419055E+02  0.10937052546E+03  0.47000000000E+01 0.  1.
         13    1    6    6    0    0 -0.12227026072E+02 -0.17698564484E+02  0.11736882310E+02  0.24504974142E+02  0.00000000000E+00 0. -1.
        -14    1    6    6    0    0 -0.73110915848E+02  0.66373465890E+02 -0.31028616004E+02  0.10350564237E+03  0.00000000000E+00 0.  1.
</event>
<event>
12    1  0.1066489E+000  0.2475837E+03  0.7818608E-02  0.1115337E+00
         21   -1    0    0  501  502  0.00000000000E+00  0.00000000000E+00  0.92192847892E+02  0.92192847892E+02  0.00000000000E+00 0.  1.
         21   -1    0    0  502  503 -0.00000000000E+00 -0.00000000000E+00 -0.84334670325E+03  0.84334670325E+03  0.00000000000E+00 0.  1.
         -6    2    1    2    0  503 -0.54689401533E+02 -0.16412131516E+03 -0.59749530822E+03  0.64675988563E+03  0.17711851848E+03 0.  0.
        -24    2    3    3    0    0  0.49784421761E+01 -0.14355602449E+03 -0.29254007200E+03  0.33530688941E+03  0.78853657558E+02 0.  0.
          6    2    1    2  501    0  0.54689401533E+02  0.16412131516E+03 -0.15365854713E+03  0.28877966550E+03  0.17278891565E+03 0.  0.
         24    2    5    5    0    0  0.53203559325E+02  0.18465378691E+02 -0.55180636551E+02  0.11288808405E+03  0.80791261500E+02 0.  0.
          5    1    5    5  501    0  0.14858422083E+01  0.14565593647E+03 -0.98477910581E+02  0.17589158146E+03  0.47000000000E+01 0. -1.
        -13    1    6    6    0    0 -0.30204222657E+01  0.14934253137E+02  0.16011816769E+02  0.22102785880E+02  0.00000000000E+00 0.  1.
         14    1    6    6    0    0  0.56223981590E+02  0.35311255546E+01 -0.71192453321E+02  0.90785298167E+02  0.00000000000E+00 0. -1.
         -5    1    3    3    0  503 -0.59667843709E+02 -0.20565290665E+02 -0.30495523623E+03  0.31145299622E+03  0.47000000000E+01 0.  1.
         13    1    4    4    0    0  0.16099040626E+02 -0.21904832667E+02 -0.12779228021E+02  0.30038466540E+02  0.00000000000E+00 0. -1.
        -14    1    4    4    0    0 -0.11120598450E+02 -0.12165119183E+03 -0.27976084397E+03  0.30526842287E+03  0.00000000000E+00 0.  1.
</event>
<event>
12    1  0.1066489E+000  0.2657826E+03  0.7818608E-02  0.1103747E+00
         21   -1    0    0  501  502  0.00000000000E+00  0.00000000000E+00  0.41731885725E+03  0.41731885725E+03  0.00000000000E+00 0. -1.
         21   -1    0    0  502  503 -0.00000000000E+00 -0.00000000000E+00 -0.17406158779E+03  0.17406158779E+03  0.00000000000E+00 0.  1.
         -6    2    1    2    0  503  0.10847963779E+03 -0.17145573019E+03  0.17136754768E+03  0.31623921122E+03  0.17168431229E+03 0.  0.
        -24    2    3    3    0    0  0.50598412368E+02 -0.17668940082E+03  0.16056566408E+03  0.25693998480E+03  0.80358444562E+02 0.  0.
          6    2    1    2  501    0 -0.10847963779E+03  0.17145573019E+03  0.71889721782E+02  0.27514123382E+03  0.17137580699E+03 0.  0.
         24    2    5    5    0    0 -0.55067794973E+02  0.15784778751E+03 -0.12304795580E+01  0.18345342165E+03  0.75533156761E+02 0.  0.
          5    1    5    5  501    0 -0.53411842814E+02  0.13607942678E+02  0.73120201340E+02  0.91687812171E+02  0.47000000000E+01 0. -1.
        -11    1    6    6    0    0 -0.35066205585E+02  0.13967471766E+02 -0.53986481914E+01  0.38129705532E+02  0.00000000000E+00 0.  1.
         12    1    6    6    0    0 -0.20001589388E+02  0.14388031575E+03  0.41681686334E+01  0.14532371612E+03  0.00000000000E+00 0. -1.
         -5    1    3    3    0  503  0.57881225419E+02  0.52336706287E+01  0.10801883592E+02  0.59299226415E+02  0.47000000000E+01 0.  1.
         13    1    4    4    0    0  0.26704444454E+02 -0.11192123819E+03  0.14684363397E+03  0.18655439890E+03  0.00000000000E+00 0. -1.
        -14    1    4    4    0    0  0.23893967914E+02 -0.64768162626E+02  0.13722030118E+02  0.70385585904E+02  0.00000000000E+00 0.  1.
</event>
<event>
12    1  0.1066489E+000  0.2151328E+03  0.7818608E-02  0.1137907E+00
         21   -1    0    0  501  502  0.00000000000E+00  0.00000000000E+00  0.15316526694E+04  0.15316526694E+04  0.00000000000E+00 0.  1.
         21   -1    0    0  502  503 -0.00000000000E+00 -0.00000000000E+00 -0.30734903481E+02  0.30734903481E+02  0.00000000000E+00 0.  1.
         -6    2    1    2    0  503 -0.12123676344E+03  0.39082525319E+02  0.87690092398E+03  0.90290494398E+03  0.17336755983E+03 0.  0.
        -24    2    3    3    0    0 -0.14312957506E+03 -0.18608428689E+01  0.60427629970E+03  0.62631512067E+03  0.81432462825E+02 0.  0.
          6    2    1    2  501    0  0.12123676344E+03 -0.39082525319E+02  0.62401684195E+03  0.65948262891E+03  0.17115642612E+03 0.  0.
         24    2    5    5    0    0  0.52649097798E+02 -0.71285656222E+02  0.24062320930E+03  0.26864496814E+03  0.80106290463E+02 0.  0.
          5    1    5    5  501    0  0.68587665640E+02  0.32203130902E+02  0.38339363265E+03  0.39083766076E+03  0.47000000000E+01 0. -1.
        -11    1    6    6    0    0 -0.19407871951E+02 -0.55949731702E+01  0.26107258569E+02  0.33008456014E+02  0.00000000000E+00 0.  1.
         12    1    6    6    0    0  0.72056969749E+02 -0.65690683052E+02  0.21451595073E+03  0.23563651213E+03  0.00000000000E+00 0. -1.
         -5    1    3    3    0  503  0.21892811625E+02  0.40943368188E+02  0.27262462428E+03  0.27658982332E+03  0.47000000000E+01 0.  1.
         13    1    4    4    0    0 -0.15219638148E+03  0.29240658083E+01  0.58501359544E+03  0.60449416503E+03  0.00000000000E+00 0. -1.
        -14    1    4    4    0    0  0.90668064216E+01 -0.47849086772E+01  0.19262704259E+02  0.21820955641E+02  0.00000000000E+00 0.  1.
</event>
<event>
12    1  0.1066489E+000  0.4862824E+03  0.7818608E-02  0.1017442E+00
         21   -1    0    0  503  502  0.00000000000E+00  0.00000000000E+00  0.57311270934E+03  0.57311270934E+03  0.00000000000E+00 0. -1.
         21   -1    0    0  501  503 -0.00000000000E+00 -0.00000000000E+00 -0.48037879587E+03  0.48037879587E+03  0.00000000000E+00 0. -1.
          6    2    1    2  501    0  0.44684259800E+03 -0.84431483571E+02  0.24455601587E+03  0.54405994160E+03  0.17145434481E+03 0.  0.
         24    2    3    3    0    0  0.24559976755E+03 -0.67021238777E+02  0.20799374473E+03  0.33872927389E+03  0.81639640360E+02 0.  0.
         -6    2    1    2    0  502 -0.44684259800E+03  0.84431483571E+02 -0.15182210240E+03  0.50943156360E+03  0.17226022295E+03 0.  0.
        -24    2    5    5    0    0 -0.38832872971E+03  0.97454455427E+02 -0.17607203614E+03  0.44459623477E+03  0.79798977807E+02 0.  0.
          5    1    3    3  501    0  0.20124283045E+03 -0.17410244794E+02  0.36562271144E+02  0.20533066771E+03  0.47000000000E+01 0. -1.
        -13    1    4    4    0    0  0.87860944735E+02  0.60107967412E+01  0.39068295273E+02  0.96343172995E+02  0.00000000000E+00 0.  1.
         14    1    4    4    0    0  0.15773882281E+03 -0.73032035518E+02  0.16892544945E+03  0.24238610090E+03  0.00000000000E+00 0. -1.
         -5    1    5    5    0  502 -0.58513868294E+02 -0.13022971856E+02  0.24249933740E+02  0.64835328835E+02  0.47000000000E+01 0.  1.
         11    1    6    6    0    0 -0.86872115725E+02  0.42139459737E+02 -0.73682627325E+02  0.12145628072E+03  0.00000000000E+00 0. -1.
        -12    1    6    6    0    0 -0.30145661398E+03  0.55314995689E+02 -0.10238940882E+03  0.32313995405E+03  0.00000000000E+00 0.  1.
</event>
<event>
12    1  0.1066489E+000  0.3788859E+03  0.7818608E-02  0.1051393E+00
         21   -1    0    0  503  502  0.00000000000E+00  0.00000000000E+00  0.47780503996E+03  0.47780503996E+03  0.00000000000E+00 0. -1.
         21   -1    0    0  501  503 -0.00000000000E+00 -0.00000000000E+00 -0.34423478948E+03  0.34423478948E+03  0.00000000000E+00 0. -1.
          6    2    1    2  501    0  0.36480284107E+02 -0.33523976780E+03  0.21407737079E+03  0.43518231981E+03  0.17273684536E+03 0.  0.
         24    2    3    3    0    0  0.92119594487E+02 -0.22072691571E+03  0.14873186527E+03  0.29200043811E+03  0.77049964994E+02 0.  0.
         -6    2    1    2    0  502 -0.36480284107E+02  0.33523976780E+03 -0.80507120306E+02  0.38685750964E+03  0.17164155469E+03 0.  0.
        -24    2    5    5    0    0  0.10248191071E+02  0.11750915083E+03  0.16251422956E+02  0.14401089621E+03  0.81003725406E+02 0.  0.
          5    1    3    3  501    0 -0.55639310380E+02 -0.11451285209E+03  0.65345505517E+02  0.14318188169E+03  0.47000000000E+01 0. -1.
        -11    1    4    4    0    0  0.77152863551E+02 -0.14876362894E+03  0.13925684418E+03  0.21788907797E+03  0.00000000000E+00 0.  1.
         12    1    4    4    0    0  0.14966730936E+02 -0.71963286766E+02  0.94750210922E+01  0.74111360140E+02  0.00000000000E+00 0. -1.
         -5    1    5    5    0  502 -0.46728475178E+02  0.21773061697E+03 -0.96758543262E+02  0.24284661343E+03  0.47000000000E+01 0.  1.
         13    1    6    6    0    0  0.30848302817E+02  0.26147128845E+02 -0.18032900232E+02  0.44277258545E+02  0.00000000000E+00 0. -1.
        -14    1    6    6    0    0 -0.20600111746E+02  0.91362021986E+02  0.34284323188E+02  0.99733637664E+02  0.00000000000E+00 0.  1.
</event>
<event>
12    1  0.1066489E+000  0.1838500E+03  0.7818608E-02  0.1164550E+00
         21   -1    0    0  503  502  0.00000000000E+00  0.00000000000E+00  0.22549342339E+02  0.22549342339E+02  0.00000000000E+00 0. -1.
         21   -1    0    0  501  503 -0.00000000000E+00 -0.00000000000E+00 -0.15605563225E+04  0.15605563225E+04  0.00000000000E+00 0. -1.
          6    2    1    2  501    0  0.24345608301E+02  0.58317867940E+02 -0.94021918475E+03  0.95768495037E+03  0.17074737609E+03 0.  0.
         24    2    3    3    0    0  0.39670198718E+02 -0.17591094561E+01 -0.26463665616E+03  0.27924709086E+03  0.79809515973E+02 0.  0.
         -6    2    1    2    0  502 -0.24345608301E+02 -0.58317867940E+02 -0.59778779543E+03  0.62542071448E+03  0.17264744242E+03 0.  0.
        -24    2    5    5    0    0 -0.36619605894E+02  0.29258400463E+02 -0.35875788334E+03  0.37051358889E+03  0.79850179455E+02 0.  0.
          5    1    3    3  501    0 -0.15324590417E+02  0.60076977396E+02 -0.67558252859E+03  0.67843785951E+03  0.47000000000E+01 0. -1.
        -11    1    4    4    0    0  0.55304227326E+01  0.25127912074E+01  0.47257210987E+01  0.76962416253E+01  0.00000000000E+00 0.  1.
         12    1    4    4    0    0  0.34139775986E+02 -0.42719006635E+01 -0.26936237725E+03  0.27155084923E+03  0.00000000000E+00 0. -1.
         -5    1    5    5    0  502  0.12273997592E+02 -0.87576268402E+02 -0.23902991208E+03  0.25490712559E+03  0.47000000000E+01 0.  1.
         11    1    6    6    0    0  0.23406982033E+02 -0.17503106317E+01 -0.12513560487E+03  0.12731798774E+03  0.00000000000E+00 0. -1.
        -12    1    6    6    0    0 -0.60026587927E+02  0.31008711094E+02 -0.23362227847E+03  0.24319560115E+03  0.00000000000E+00 0.  1.
</event>
<event>
12    1  0.1066489E+000  0.2262702E+03  0.7818608E-02  0.1129324E+00
         21   -1    0    0  501  502  0.00000000000E+00  0.00000000000E+00  0.10594363959E+03  0.10594363959E+03  0.00000000000E+00 0.  1.
         21   -1    0    0  502  503 -0.00000000000E+00 -0.00000000000E+00 -0.52652289021E+03  0.52652289021E+03  0.00000000000E+00 0. -1.
         -6    2    1    2    0  503  0.12930368570E+03 -0.69126565854E+02 -0.11932675962E+03  0.25580670561E+03  0.17233766224E+03 0.  0.
        -24    2    3    3    0    0  0.41417891602E+02 -0.82409066117E+02 -0.11406540972E+03  0.16664331951E+03  0.79072007182E+02 0.  0.
          6    2    1    2  501    0 -0.12930368570E+03  0.69126565854E+02 -0.30125249100E+03  0.37665982419E+03  0.17210936809E+03 0.  0.
         24    2    5    5    0    0 -0.49899243557E+02  0.10268003353E+03 -0.18558676886E+03  0.23232843501E+03  0.80628339591E+02 0.  0.
          5    1    5    5  501    0 -0.79404442144E+02 -0.33553467674E+02 -0.11566572214E+03  0.14433138918E+03  0.47000000000E+01 0. -1.
        -11    1    6    6    0    0  0.72882810402E+01  0.29056807167E+02 -0.10471032375E+03  0.10891128951E+03  0.00000000000E+00 0.  1.
         12    1    6    6    0    0 -0.57187524597E+02  0.73623226361E+02 -0.80876445111E+02  0.12341714550E+03  0.00000000000E+00 0. -1.
         -5    1    3    3    0  503  0.87885794099E+02  0.13282500263E+02 -0.52613499084E+01  0.89163386098E+02  0.47000000000E+01 0.  1.
         11    1    4    4    0    0  0.35883758588E+02 -0.57874754154E+02 -0.22547361181E+02  0.71732243761E+02  0.00000000000E+00 0. -1.
        -12    1    4    4    0    0  0.55341330137E+01 -0.24534311964E+02 -0.91518048535E+02  0.94911075747E+02  0.00000000000E+00 0.  1.
</event>
<event>
12    1  0.1066489E+000  0.2092627E+03  0.7818608E-02  0.1142763E+00
         21   -1    0    0  503  502  0.00000000000E+00  0.00000000000E+00  0.16594120538E+03  0.16594120538E+03  0.00000000000E+00 0. -1.
         21   -1    0    0  501  503 -0.00000000000E+00 -0.00000000000E+00 -0.31905669522E+03  0.31905669522E+03  0.00000000000E+00 0. -1.
          6    2    1    2  501    0 -0.11490793202E+03 -0.22407585438E+02  0.27261414200E+02  0.21103094254E+03  0.17345011178E+03 0.  0.
         24    2    3    3    0    0 -0.16737437628E+02 -0.77624179383E+01 -0.48255512786E+02  0.86223798666E+02  0.69032977565E+02 0.  0.
         -6    2    1    2    0  502  0.11490793202E+03  0.22407585438E+02 -0.18037690404E+03  0.27396695807E+03  0.16975315572E+03 0.  0.
        -24    2    5    5    0    0  0.61918420140E+02  0.73766118287E+02 -0.77041237390E+02  0.14690029341E+03  0.79806096170E+02 0.  0.
          5    1    3    3  501    0 -0.98170494391E+02 -0.14645167500E+02  0.75516926986E+02  0.12480714387E+03  0.47000000000E+01 0. -1.
        -11    1    4    4    0    0 -0.11505224123E+02 -0.31742354766E+02 -0.19545030730E+01  0.33819629662E+02  0.00000000000E+00 0.  1.
         12    1    4    4    0    0 -0.52322135048E+01  0.23979936828E+02 -0.46301009713E+02  0.52404169003E+02  0.00000000000E+00 0. -1.
         -5    1    5    5    0  502  0.52989511879E+02 -0.51358532849E+02 -0.10333566665E+03  0.12706666466E+03  0.47000000000E+01 0.  1.
         11    1    6    6    0    0  0.19191118683E+02  0.64104506074E+02 -0.11242762061E+02  0.67853418736E+02  0.00000000000E+00 0. -1.
        -12    1    6    6    0    0  0.42727301458E+02  0.96616122131E+01 -0.65798475329E+02  0.79046874676E+02  0.00000000000E+00 0.  1.
</event>
<event>
12    1  0.1066489E+000  0.1796777E+03  0.7818608E-02  0.1168230E+00
         21   -1    0    0  503  502  0.00000000000E+00  0.00000000000E+00  0.26300015912E+03  0.26300015912E+03  0.00000000000E+00 0.  1.
         21   -1    0    0  501  503 -0.00000000000E+00 -0.00000000000E+00 -0.13258064033E+03  0.13258064033E+03  0.00000000000E+00 0.  1.
          6    2    1    2  501    0  0.10562659544E+01  0.52885467920E+02  0.10560877931E+02  0.17998777017E+03  0.17171510374E+03 0.  0.
         24    2    3    3    0    0 -0.10435937200E+01 -0.37999975196E+02  0.85719232560E+01  0.88934933190E+02  0.79942837518E+02 0.  0.
         -6    2    1    2    0  502 -0.10562659544E+01 -0.52885467920E+02  0.11985864086E+03  0.21559302929E+03  0.17121995233E+03 0.  0.
        -24    2    5    5    0    0  0.65321618232E+02 -0.29702744872E+02  0.61459898997E+02  0.12407272986E+03  0.80421118171E+02 0.  0.
          5    1    3    3  501    0  0.20998596743E+01  0.90885443116E+02  0.19889546753E+01  0.91052836978E+02  0.47000000000E+01 0. -1.
        -11    1    4    4    0    0  0.21174801595E+02 -0.30119277760E+01 -0.26910486014E+02  0.34374673657E+02  0.00000000000E+00 0.  1.
         12    1    4    4    0    0 -0.22218395315E+02 -0.34988047420E+02  0.35482409270E+02  0.54560259533E+02  0.00000000000E+00 0. -1.
         -5    1    5    5    0  502 -0.66377884187E+02 -0.23182723048E+02  0.58398741861E+02  0.91520299431E+02  0.47000000000E+01 0.  1.
         13    1    6    6    0    0 -0.83601646253E+01 -0.32846867510E+02  0.16465657859E+02  0.37681918031E+02  0.00000000000E+00 0. -1.
        -14    1    6    6    0    0  0.73681782858E+02  0.31441226377E+01  0.44994241138E+02  0.86390811825E+02  0.00000000000E+00 0.  1.
</event>
<event>
12    1  0.1066489E+000  0.2097051E+03  0.7818608E-02  0.1141859E+00
         21   -1    0    0  501  502  0.00000000000E+00  0.00000000000E+00  0.49192063137E+02  0.49192063137E+02  0.00000000000E+00 0. -1.
         21   -1    0    0  502  503 -0.00000000000E+00 -0.00000000000E+00 -0.11062096572E+04  0.11062096572E+04  0.00000000000E+00 0. -1.
         -6    2    1    2    0  503 -0.48560814111E+02 -0.11032272119E+03 -0.27440041415E+03  0.34517589773E+03  0.17123538656E+03 0.  0.
        -24    2    3    3    0    0  0.21743878872E+02 -0.27440305105E+02 -0.61847444217E+02  0.10640173711E+03  0.79186215290E+02 0.  0.
          6    2    1    2  501    0  0.48560814111E+02  0.11032272119E+03 -0.78261717991E+03  0.81022582260E+03  0.17160121749E+03 0.  0.
         24    2    5    5    0    0 -0.16884663263E+02  0.63817093744E+02 -0.62317829189E+03  0.63165165621E+03  0.79214379963E+02 0.  0.
          5    1    5    5  501    0  0.65445477374E+02  0.46505627442E+02 -0.15943888801E+03  0.17857416639E+03  0.47000000000E+01 0. -1.
        -13    1    6    6    0    0  0.14490133959E+02  0.16631668802E+02 -0.39603101053E+02  0.45331909317E+02  0.00000000000E+00 0.  1.
         14    1    6    6    0    0 -0.31374797222E+02  0.47185424943E+02 -0.58357519084E+03  0.58631974689E+03  0.00000000000E+00 0. -1.
         -5    1    3    3    0  503 -0.70304692983E+02 -0.82882416082E+02 -0.21255296993E+03  0.23877416061E+03  0.47000000000E+01 0.  1.
         11    1    4    4    0    0  0.92765853596E+01  0.64026332060E+01  0.16597442250E+02  0.20062996714E+02  0.00000000000E+00 0. -1.
        -12    1    4    4    0    0  0.12467293512E+02 -0.33842938311E+02 -0.78444886466E+02  0.86338740399E+02  0.00000000000E+00 0.  1.
</event>
<event>
12    1  0.1066489E+000  0.1870909E+03  0.7818608E-02  0.1161149E+00
         21   -1    0    0  501  502  0.00000000000E+00  0.00000000000E+00  0.39423659378E+03  0.39423659378E+03  0.00000000000E+00 0. -1.
         21   -1    0    0  502  503 -0.00000000000E+00 -0.00000000000E+00 -0.95954020375E+02  0.95954020375E+02  0.00000000000E+00 0. -1.
         -6    2    1    2    0  503  0.82445456068E+01 -0.73273913650E+02  0.21642851783E+03  0.28597725537E+03  0.17176917158E+03 0.  0.
        -24    2    3    3    0    0 -0.42663392878E+02 -0.50320048347E+00  0.14986862751E+03  0.17489393577E+03  0.79415772693E+02 0.  0.
          6    2    1    2  501    0 -0.82445456068E+01  0.73273913650E+02  0.81854055579E+02  0.20421335879E+03  0.17194758079E+03 0.  0.
         24    2    5    5    0    0 -0.19021121841E+02 -0.19591596533E+01  0.95687084721E+02  0.12682090044E+03  0.81005439464E+02 0.  0.
          5    1    5    5  501    0  0.10776576234E+02  0.75233073303E+02 -0.13833029142E+02  0.77392458349E+02  0.47000000000E+01 0. -1.
        -13    1    6    6    0    0 -0.43731225545E+02 -0.18695538794E+01  0.21776319139E+02  0.48888888253E+02  0.00000000000E+00 0.  1.
         14    1    6    6    0    0  0.24710103704E+02 -0.89605773959E-01  0.73910765582E+02  0.77932012185E+02  0.00000000000E+00 0. -1.
         -5    1    3    3    0  503  0.50907938485E+02 -0.72770713167E+02  0.66559890317E+02  0.11108331961E+03  0.47000000000E+01 0.  1.
         11    1    4    4    0    0 -0.25037070818E+02  0.26769664062E+02  0.13367130936E+03  0.13860551495E+03  0.00000000000E+00 0. -1.
        -12    1    4    4    0    0 -0.17626322060E+02 -0.27272864545E+02  0.16197318155E+02  0.36288420816E+02  0.00000000000E+00 0.  1.
</event>
<event>
12    1  0.1066489E+000  0.4759013E+03  0.7818608E-02  0.1020506E+00
         21   -1    0    0  503  502  0.00000000000E+00  0.00000000000E+00  0.30297817026E+03  0.30297817026E+03  0.00000000000E+00 0. -1.
         21   -1    0    0  501  503 -0.00000000000E+00 -0.00000000000E+00 -0.90467081850E+03  0.90467081850E+03  0.00000000000E+00 0.  1.
          6    2    1    2  501    0 -0.31448088097E+03 -0.30828789871E+03 -0.44035401162E+02  0.47452989367E+03  0.17117199081E+03 0.  0.
         24    2    3    3    0    0 -0.15180753045E+03 -0.15652249153E+03 -0.87212974727E+02  0.24785446348E+03  0.79252226809E+02 0.  0.
         -6    2    1    2    0  502  0.31448088097E+03  0.30828789871E+03 -0.55765724708E+03  0.73311909509E+03  0.18039498156E+03 0.  0.
        -24    2    5    5    0    0  0.10564803720E+03  0.99701393236E+02 -0.11675400702E+03  0.20251826207E+03  0.79248171836E+02 0.  0.
          5    1    3    3  501    0 -0.16267335052E+03 -0.15176540719E+03  0.43177573565E+02  0.22667543018E+03  0.47000000000E+01 0. -1.
        -13    1    4    4    0    0 -0.42130939643E+02 -0.10014416272E+03 -0.38565615139E+02  0.11528736302E+03  0.00000000000E+00 0.  1.
         14    1    4    4    0    0 -0.10967659080E+03 -0.56378328807E+02 -0.48647359588E+02  0.13256710046E+03  0.00000000000E+00 0. -1.
         -5    1    5    5    0  502  0.20883284377E+03  0.20858650548E+03 -0.44090324006E+03  0.53060083302E+03  0.47000000000E+01 0.  1.
         11    1    6    6    0    0  0.69320049651E+02  0.10607020563E+03 -0.10249201693E+03  0.16297475676E+03  0.00000000000E+00 0. -1.
        -12    1    6    6    0    0  0.36327987553E+02 -0.63688123980E+01 -0.14261990091E+02  0.39543505312E+02  0.00000000000E+00 0.  1.
</event>
<event>
12    1  0.1066489E+000  0.3137984E+03  0.7818608E-02  0.1078797E+00
         21   -1    0    0  503  502  0.00000000000E+00  0.00000000000E+00  0.24679512782E+03  0.24679512782E+03  0.00000000000E+00 0.  1.
         21   -1    0    0  501  503 -0.00000000000E+00 -0.00000000000E+00 -0.46688977326E+03  0.46688977326E+03  0.00000000000E+00 0. -1.
          6    2    1    2  501    0  0.25977288059E+03 -0.14210138146E+02  0.28445889456E+02  0.31508502599E+03  0.17545805044E+03 0.  0.
         24    2    3    3    0    0  0.19389971671E+03  0.84273580465E+01 -0.44199866550E+02  0.21433173415E+03  0.79475427361E+02 0.  0.
         -6    2    1    2    0  502 -0.25977288059E+03  0.14210138146E+02 -0.24854053490E+03  0.39859987509E+03  0.17153887438E+03 0.  0.
        -24    2    5    5    0    0 -0.26748719976E+03 -0.15977934411E+02 -0.21851605634E+03  0.35507528712E+03  0.80774353754E+02 0.  0.
          5    1    3    3  501    0  0.65873163874E+02 -0.22637496192E+02  0.72645756005E+02  0.10075329185E+03  0.47000000000E+01 0. -1.
        -13    1    4    4    0    0  0.21132867055E+02  0.22342866747E+02  0.10630833278E+02  0.32539458825E+02  0.00000000000E+00 0.  1.
         14    1    4    4    0    0  0.17276684966E+03 -0.13915508700E+02 -0.54830699828E+02  0.18179227532E+03  0.00000000000E+00 0. -1.
         -5    1    5    5    0  502  0.77143191767E+01  0.30188072557E+02 -0.30024478560E+02  0.43524587969E+02  0.47000000000E+01 0.  1.
         11    1    6    6    0    0 -0.15769840914E+03 -0.40128122661E+02 -0.96572815740E+02  0.18922305149E+03  0.00000000000E+00 0. -1.
        -12    1    6    6    0    0 -0.10978879062E+03  0.24150188249E+02 -0.12194324060E+03  0.16585223564E+03  0.00000000000E+00 0.  1.
</event>
<event>
12    1  0.1066489E+000  0.2854032E+03  0.7818608E-02  0.1093701E+00
         21   -1    0    0  503  502  0.00000000000E+00  0.00000000000E+00  0.39813736841E+02  0.39813736841E+02  0.00000000000E+00 0. -1.
         21   -1    0    0  501  503 -0.00000000000E+00 -0.00000000000E+00 -0.19973707339E+04  0.19973707339E+04  0.00000000000E+00 0. -1.
          6    2    1    2  501    0  0.59466693281E+02  0.21095556860E+03 -0.95189004646E+03  0.99180368329E+03  0.17187596143E+03 0.  0.
         24    2    3    3    0    0 -0.53031195806E+01  0.30488791773E+02 -0.33392732536E+03  0.34476164380E+03  0.79971513162E+02 0.  0.
         -6    2    1    2    0  502 -0.59466693281E+02 -0.21095556860E+03 -0.10056669506E+04  0.10453807874E+04  0.18280162936E+03 0.  0.
        -24    2    5    5    0    0 -0.42499447593E+02 -0.26301265765E+02 -0.45659166477E+03  0.46581986874E+03  0.77551545096E+02 0.  0.
          5    1    3    3  501    0  0.64769812862E+02  0.18046677683E+03 -0.61796272110E+03  0.64704203949E+03  0.47000000000E+01 0. -1.
        -11    1    4    4    0    0  0.35737071024E+02  0.25487586353E+02 -0.19069822928E+03  0.19568487410E+03  0.00000000000E+00 0.  1.
         12    1    4    4    0    0 -0.41040190605E+02  0.50012054207E+01 -0.14322909608E+03  0.14907676970E+03  0.00000000000E+00 0. -1.
         -5    1    5    5    0  502 -0.16967245688E+02 -0.18465430284E+03 -0.54907528578E+03  0.57956091866E+03  0.47000000000E+01 0.  1.
         11    1    6    6    0    0 -0.58684321062E+01  0.56973292865E+01 -0.17236428231E+01  0.83587679096E+01  0.00000000000E+00 0. -1.
        -12    1    6    6    0    0 -0.36631015486E+02 -0.31998595051E+02 -0.45486802195E+03  0.45746110083E+03  0.00000000000E+00 0.  1.
</event>
<event>
12    1  0.1066489E+000  0.2972423E+03  0.7818608E-02  0.1086849E+00
         21   -1    0    0  503  502  0.00000000000E+00  0.00000000000E+00  0.68988141881E+03  0.68988141881E+03  0.00000000000E+00 0.  1.
         21   -1    0    0  501  503 -0.00000000000E+00 -0.00000000000E+00 -0.16508034705E+03  0.16508034705E+03  0.00000000000E+00 0.  1.
          6    2    1    2  501    0  0.13863434205E+03 -0.19625807258E+03  0.46625770935E+03  0.55200912415E+03  0.17199159798E+03 0.  0.
         24    2    3    3    0    0  0.10180820196E+03 -0.14247048523E+03  0.19747197635E+03  0.27539182642E+03  0.78630321529E+02 0.  0.
         -6    2    1    2    0  502 -0.13863434205E+03  0.19625807258E+03  0.58543362413E+02  0.30295264171E+03  0.17497504390E+03 0.  0.
        -24    2    5    5    0    0 -0.15503155083E+03  0.17200577883E+03  0.88433694568E+02  0.26085081082E+03  0.81251815157E+02 0.  0.
          5    1    3    3  501    0  0.36826140090E+02 -0.53787587350E+02  0.26878573299E+03  0.27661729774E+03  0.47000000000E+01 0. -1.
        -13    1    4    4    0    0  0.91842059323E+02 -0.14185676100E+03  0.20287480010E+03  0.26403880211E+03  0.00000000000E+00 0.  1.
         14    1    4    4    0    0  0.99661426361E+01 -0.61372423118E+00 -0.54028237491E+01  0.11353024308E+02  0.00000000000E+00 0. -1.
         -5    1    5    5    0  502  0.16397208784E+02  0.24252293749E+02 -0.29890332154E+02  0.42101830890E+02  0.47000000000E+01 0.  1.
         13    1    6    6    0    0 -0.10330710972E+03  0.11738772110E+03  0.17310066212E+02  0.15732728428E+03  0.00000000000E+00 0. -1.
        -14    1    6    6    0    0 -0.51724441108E+02  0.54618057730E+02  0.71123628355E+02  0.10352352655E+03  0.00000000000E+00 0.  1.
</event>
<event>
12    1  0.1066489E+000  0.2492173E+03  0.7818608E-02  0.1113830E+00
         21   -1    0    0  503  502  0.00000000000E+00  0.00000000000E+00  0.54433757079E+02  0.54433757079E+02  0.00000000000E+00 0. -1.
         21   -1    0    0  501  503 -0.00000000000E+00 -0.00000000000E+00 -0.13120246747E+04  0.13120246747E+04  0.00000000000E+00 0. -1.
          6    2    1    2  501    0  0.12073431401E+03  0.13348094651E+03 -0.38130427163E+03  0.45542191134E+03  0.17211110395E+03 0.  0.
         24    2    3    3    0    0  0.95830776684E+02  0.12195496831E+03 -0.38905874284E+03  0.42652111259E+03  0.80603982814E+02 0.  0.
         -6    2    1    2    0  502 -0.12073431401E+03 -0.13348094651E+03 -0.87628664602E+03  0.91103652047E+03  0.17238131562E+03 0.  0.
        -24    2    5    5    0    0 -0.29119826968E+01 -0.21447782683E+02 -0.36981791476E+03  0.37909084909E+03  0.80474186935E+02 0.  0.
          5    1    3    3  501    0  0.24903537329E+02  0.11525978193E+02  0.77544712087E+01  0.28900798752E+02  0.47000000000E+01 0. -1.
        -11    1    4    4    0    0 -0.13217365303E+02  0.18440449358E+02 -0.74447030524E+02  0.77827432644E+02  0.00000000000E+00 0.  1.
         12    1    4    4    0    0  0.10904814199E+03  0.10351451896E+03 -0.31461171232E+03  0.34869367995E+03  0.00000000000E+00 0. -1.
         -5    1    5    5    0  502 -0.11782233132E+03 -0.11203316382E+03 -0.50646873127E+03  0.53194567138E+03  0.47000000000E+01 0.  1.
         13    1    6    6    0    0 -0.57713235228E+01  0.26208438918E+02 -0.22526740003E+03  0.22686029173E+03  0.00000000000E+00 0. -1.
        -14    1    6    6    0    0  0.28593408259E+01 -0.47656221601E+02 -0.14455051472E+03  0.15223055736E+03  0.00000000000E+00 0.  1.
</event>
<event>
12    1  0.1066489E+000  0.1909332E+03  0.7818608E-02  0.1158132E+00
         21   -1    0    0  501  502  0.00000000000E+00  0.00000000000E+00  0.97298895462E+02  0.97298895462E+02  0.00000000000E+00 0.  1.
         21   -1    0    0  502  503 -0.00000000000E+00 -0.00000000000E+00 -0.46356317122E+03  0.46356317122E+03  0.00000000000E+00 0.  1.
         -6    2    1    2    0  503  0.33962644505E+02  0.70538619674E+02 -0.30981798867E+03  0.36392672074E+03  0.17414452011E+03 0.  0.
        -24    2    3    3    0    0  0.83353995316E+02  0.58689458911E+02 -0.16315023722E+03  0.20864173287E+03  0.80752905006E+02 0.  0.
          6    2    1    2  501    0 -0.33962644505E+02 -0.70538619674E+02 -0.56446287095E+02  0.19693534594E+03  0.17166301019E+03 0.  0.
         24    2    5    5    0    0 -0.76231647225E+02 -0.29246483277E+02  0.13319868381E+01  0.11415776408E+03  0.79772176158E+02 0.  0.
          5    1    5    5  501    0  0.42269002720E+02 -0.41292136397E+02 -0.57778273933E+02  0.82777581855E+02  0.47000000000E+01 0. -1.
        -11    1    6    6    0    0 -0.57681633619E+02  0.13685124747E+02 -0.20255989949E+02  0.62647894020E+02  0.00000000000E+00 0.  1.
         12    1    6    6    0    0 -0.18550013606E+02 -0.42931608024E+02  0.21587976787E+02  0.51509870065E+02  0.00000000000E+00 0. -1.
         -5    1    3    3    0  503 -0.49391350810E+02  0.11849160763E+02 -0.14666775145E+03  0.15528498788E+03  0.47000000000E+01 0.  1.
         13    1    4    4    0    0 -0.13060084480E+02 -0.52077737345E+01 -0.22608062890E+02  0.26623508813E+02  0.00000000000E+00 0. -1.
        -14    1    4    4    0    0  0.96414079796E+02  0.63897232646E+02 -0.14054217433E+03  0.18201822405E+03  0.00000000000E+00 0.  1.
</event>
<event>
12    1  0.1066489E+000  0.1971386E+03  0.7818608E-02  0.1153470E+00
         21   -1    0    0  501  502  0.00000000000E+00  0.00000000000E+00  0.11798366825E+04  0.11798366825E+04  0.00000000000E+00 0.  1.
         21   -1    0    0  502  503 -0.00000000000E+00 -0.00000000000E+00 -0.32192872072E+02  0.32192872072E+02  0.00000000000E+00 0.  1.
         -6    2    1    2    0  503 -0.83909225782E+02 -0.16478996179E+02  0.61695324685E+03  0.64590579341E+03  0.17102827156E+03 0.  0.
        -24    2    3    3    0    0 -0.30523668823E+02  0.49735221324E+02  0.23135927170E+03  0.25101448689E+03  0.77947889184E+02 0.  0.
          6    2    1    2  501    0  0.83909225782E+02  0.16478996179E+02  0.53069056357E+03  0.56612376115E+03  0.17762692138E+03 0.  0.
         24    2    5    5    0    0  0.73288731775E+02  0.49319714414E+02  0.51519300618E+03  0.52799802245E+03  0.74527885050E+02 0.  0.
          5    1    5    5  501    0  0.10620494007E+02 -0.32840718236E+02  0.15497557381E+02  0.38125738707E+02  0.47000000000E+01 0. -1.
        -11    1    6    6    0    0  0.39342920323E+02  0.64863879474E+02  0.39193591073E+03  0.39921040362E+03  0.00000000000E+00 0.  1.
         12    1    6    6    0    0  0.33945811451E+02 -0.15544165059E+02  0.12325709546E+03  0.12878761883E+03  0.00000000000E+00 0. -1.
         -5    1    3    3    0  503 -0.53385556959E+02 -0.66214217503E+02  0.38559397515E+03  0.39489130652E+03  0.47000000000E+01 0.  1.
         13    1    4    4    0    0 -0.42936114827E+02  0.22324443563E+02  0.20616794078E+03  0.21177136384E+03  0.00000000000E+00 0. -1.
        -14    1    4    4    0    0  0.12412446003E+02  0.27410777762E+02  0.25191330922E+02  0.39243123053E+02  0.00000000000E+00 0.  1.
</event>
<event>
12    1  0.1066489E+000  0.2746151E+03  0.7818608E-02  0.1098969E+00
         21   -1    0    0  501  502  0.00000000000E+00  0.00000000000E+00  0.14022807026E+03  0.14022807026E+03  0.00000000000E+00 0. -1.
         21   -1    0    0  502  503 -0.00000000000E+00 -0.00000000000E+00 -0.60302559235E+03  0.60302559235E+03  0.00000000000E+00 0. -1.
         -6    2    1    2    0  503  0.10315611041E+03 -0.18668143181E+03 -0.10610367783E+03  0.29440017065E+03  0.17298072127E+03 0.  0.
        -24    2    3    3    0    0 -0.18554011362E+01 -0.10180328630E+03 -0.11497718157E+02  0.12946353206E+03  0.79128104977E+02 0.  0.
          6    2    1    2  501    0 -0.10315611041E+03  0.18668143181E+03 -0.35669384425E+03  0.44885349195E+03  0.16955181690E+03 0.  0.
         24    2    5    5    0    0 -0.25200051061E+02  0.15575545488E+03 -0.29750810170E+03  0.34609841733E+03  0.79863881733E+02 0.  0.
          5    1    5    5  501    0 -0.77956059351E+02  0.30925976938E+02 -0.59185742550E+02  0.10275507462E+03  0.47000000000E+01 0. -1.
        -11    1    6    6    0    0  0.22750231520E+02  0.41781647530E+02 -0.47730562044E+02  0.67390545759E+02  0.00000000000E+00 0.  1.
         12    1    6    6    0    0 -0.47950282581E+02  0.11397380735E+03 -0.24977753966E+03  0.27870787158E+03  0.00000000000E+00 0. -1.
         -5    1    3    3    0  503  0.10501151155E+03 -0.84878145519E+02 -0.94605959674E+02  0.16493663859E+03  0.47000000000E+01 0.  1.
         13    1    4    4    0    0  0.34261469767E+01  0.28520990160E+00  0.21709591952E+02  0.21980132177E+02  0.00000000000E+00 0. -1.
        -14    1    4    4    0    0 -0.52815481130E+01 -0.10208849620E+03 -0.33207310109E+02  0.10748339989E+03  0.00000000000E+00 0.  1.
</event>
<event>
12    1  0.1066489E+000  0.3391433E+03  0.7818608E-02  0.1067169E+00
         21   -1    0    0  501  502  0.00000000000E+00  0.00000000000E+00  0.14644762822E+03  0.14644762822E+03  0.00000000000E+00 0.  1.
         21   -1    0    0  502  503 -0.00000000000E+00 -0.00000000000E+00 -0.78674843744E+03  0.78674843744E+03  0.00000000000E+00 0.  1.
         -6    2    1    2    0  503  0.27341915652E+03  0.10403542328E+03 -0.29969030211E+03  0.45258417136E+03  0.17157141528E+03 0.  0.
        -24    2    3    3    0    0  0.12529366183E+03  0.10467309849E+03 -0.21783261874E+03  0.28327871033E+03  0.78363376022E+02 0.  0.
          6    2    1    2  501    0 -0.27341915652E+03 -0.10403542328E+03 -0.34061050712E+03  0.48061189429E+03  0.17143765901E+03 0.  0.
         24    2    5    5    0    0 -0.24956053686E+03 -0.66037602744E+02 -0.21006911283E+03  0.34249522723E+03  0.80824018563E+02 0.  0.
          5    1    5    5  501    0 -0.23858619664E+02 -0.37997820537E+02 -0.13054139429E+03  0.13811666706E+03  0.47000000000E+01 0. -1.
        -11    1    6    6    0    0 -0.89768199432E+02  0.12764114132E+02 -0.89244566160E+02  0.12722360169E+03  0.00000000000E+00 0.  1.
         12    1    6    6    0    0 -0.15979233742E+03 -0.78801716876E+02 -0.12082454667E+03  0.21527162553E+03  0.00000000000E+00 0. -1.
         -5    1    3    3    0  503  0.14812549469E+03 -0.63767520677E+00 -0.81857683371E+02  0.16930546103E+03  0.47000000000E+01 0.  1.
         13    1    4    4    0    0  0.13611126319E+03  0.96927856328E+02 -0.20760196321E+03  0.26649551672E+03  0.00000000000E+00 0. -1.
        -14    1    4    4    0    0 -0.10817601369E+02  0.77452421596E+01 -0.10230655525E+02  0.16783193616E+02  0.00000000000E+00 0.  1.
</event>
<event>
12    1  0.1066489E+000  0.2551150E+03  0.7818608E-02  0.1110274E+00
         21   -1    0    0  501  502  0.00000000000E+00  0.00000000000E+00  0.41652710463E+03  0.41652710463E+03  0.00000000000E+00 0.  1.
         21   -1    0    0  502  503 -0.00000000000E+00 -0.00000000000E+00 -0.15994267329E+03  0.15994267329E+03  0.00000000000E+00 0.  1.
         -6    2    1    2    0  503  0.14104105731E+03  0.12359890974E+03  0.17542228908E+03  0.30875542548E+03  0.17142830256E+03 0.  0.
        -24    2    3    3    0    0  0.16472345223E+02  0.96184673878E+02  0.94906247039E+02  0.15784542785E+03  0.79907156868E+02 0.  0.
          6    2    1    2  501    0 -0.14104105731E+03 -0.12359890974E+03  0.81162142259E+02  0.26771435244E+03  0.17295782963E+03 0.  0.
         24    2    5    5    0    0 -0.11543847347E+03 -0.12327325216E+03  0.12036767249E+03  0.22065309499E+03  0.75346372782E+02 0.  0.
          5    1    5    5  501    0 -0.25602583841E+02 -0.32565757767E+00 -0.39205530232E+02  0.47061257452E+02  0.47000000000E+01 0. -1.
        -13    1    6    6    0    0 -0.83995964094E+02 -0.55025201302E+02  0.10234514717E+03  0.14337930085E+03  0.00000000000E+00 0.  1.
         14    1    6    6    0    0 -0.31442509378E+02 -0.68248050858E+02  0.18022525321E+02  0.77273794141E+02  0.00000000000E+00 0. -1.
         -5    1    3    3    0  503  0.12456871209E+03  0.27414235860E+02  0.80516042040E+02  0.15090999763E+03  0.47000000000E+01 0.  1.
         13    1    4    4    0    0  0.46993231879E+02  0.57157647797E+02  0.40863042566E+02  0.84528981964E+02  0.00000000000E+00 0. -1.
        -14    1    4    4    0    0 -0.30520886656E+02  0.39027026081E+02  0.54043204473E+02  0.73316445882E+02  0.00000000000E+00 0.  1.
</event>
<event>
12    1  0.1066489E+000  0.2371167E+03  0.7818608E-02  0.1124262E+00
         21   -1    0    0  503  502  0.00000000000E+00  0.00000000000E+00  0.11717664710E+03  0.11717664710E+03  0.00000000000E+00 0. -1.
         21   -1    0    0  501  503 -0.00000000000E+00 -0.00000000000E+00 -0.47586971628E+03  0.47586971628E+03  0.00000000000E+00 0. -1.
          6    2    1    2  501    0  0.25859269494E+01 -0.14262065964E+03 -0.10619542814E+03  0.24666596444E+03  0.17093650717E+03 0.  0.
         24    2    3    3    0    0 -0.57592625828E+02 -0.60479088234E+02 -0.30440592177E+02  0.11966367651E+03  0.80113264579E+02 0.  0.
         -6    2    1    2    0  502 -0.25859269494E+01  0.14262065964E+03 -0.25249764104E+03  0.34638039894E+03  0.18941220253E+03 0.  0.
        -24    2    5    5    0    0  0.46498146360E+02  0.15607489123E+03 -0.23239774075E+03  0.29145901338E+03  0.66469521487E+02 0.  0.
          5    1    3    3  501    0  0.60178552777E+02 -0.82141571406E+02 -0.75754835959E+02  0.12700228793E+03  0.47000000000E+01 0. -1.
        -11    1    4    4    0    0 -0.14389534251E+02 -0.68424399422E+02 -0.29045481299E+02  0.75713916265E+02  0.00000000000E+00 0.  1.
         12    1    4    4    0    0 -0.43203091577E+02  0.79453111883E+01 -0.13951108786E+01  0.43949760250E+02  0.00000000000E+00 0. -1.
         -5    1    5    5    0  502 -0.49084073309E+02 -0.13454231590E+02 -0.20099900287E+02  0.54921385560E+02  0.47000000000E+01 0.  1.
         13    1    6    6    0    0  0.30566214350E+01 -0.40612673129E+01 -0.26712329626E+02  0.27191641746E+02  0.00000000000E+00 0. -1.
        -14    1    6    6    0    0  0.43441524925E+02  0.16013615854E+03 -0.20568541113E+03  0.26426737163E+03  0.00000000000E+00 0.  1.
</event>
<event>
12    1  0.1066489E+000  0.1887310E+03  0.7818608E-02  0.1160635E+00
         21   -1    0    0  503  502  0.00000000000E+00  0.00000000000E+00  0.24942659962E+02  0.24942659962E+02  0.00000000000E+00 0.  1.
         21   -1    0    0  501  503 -0.00000000000E+00 -0.00000000000E+00 -0.18490633452E+04  0.18490633452E+04  0.00000000000E+00 0.  1.
          6    2    1    2  501    0  0.78343509193E+02 -0.12422474383E+02 -0.43935529297E+03  0.47643862472E+03  0.16633901032E+03 0.  0.
         24    2    3    3    0    0  0.85423699551E+02 -0.85285014971E+01 -0.16846049285E+03  0.20538258834E+03  0.80206771289E+02 0.  0.
         -6    2    1    2    0  502 -0.78343509193E+02  0.12422474383E+02 -0.13847653923E+04  0.13975673805E+04  0.17125235172E+03 0.  0.
        -24    2    5    5    0    0 -0.90399105258E+02  0.38334568984E+02 -0.64891908849E+03  0.66115129777E+03  0.79896919381E+02 0.  0.
          5    1    3    3  501    0 -0.70801903580E+01 -0.38939728864E+01 -0.27089480012E+03  0.27105603637E+03  0.47000000000E+01 0. -1.
        -13    1    4    4    0    0  0.25964890647E+01  0.11577344632E+02 -0.85914848070E+02  0.86730258751E+02  0.00000000000E+00 0.  1.
         14    1    4    4    0    0  0.82827210487E+02 -0.20105846129E+02 -0.82545644781E+02  0.11865232959E+03  0.00000000000E+00 0. -1.
         -5    1    5    5    0  502  0.12055596065E+02 -0.25912094601E+02 -0.73584630382E+03  0.73641608272E+03  0.47000000000E+01 0.  1.
         11    1    6    6    0    0 -0.62022010882E+02 -0.91493076426E+01 -0.46151017087E+03  0.46574894254E+03  0.00000000000E+00 0. -1.
        -12    1    6    6    0    0 -0.28377094377E+02  0.47483876627E+02 -0.18740891762E+03  0.19540235523E+03  0.00000000000E+00 0.  1.
</event>
<event>
12    1  0.1066489E+000  0.4442276E+03  0.7818608E-02  0.1029471E+00
         21   -1    0    0  501  502  0.00000000000E+00  0.00000000000E+00  0.63858956853E+03  0.63858956853E+03  0.00000000000E+00 0.  1.
         21   -1    0    0  502  503 -0.00000000000E+00 -0.00000000000E+00 -0.31008799457E+03  0.31008799457E+03  0.00000000000E+00 0.  1.
         -6    2    1    2    0  503 -0.64073956868E+02  0.40410524956E+03  0.19360385934E+03  0.48441944985E+03  0.17254919407E+03 0.  0.
        -24    2    3    3    0    0 -0.10595773594E+03  0.34043253989E+03  0.17983705963E+03  0.40683027741E+03  0.77769856496E+02 0.  0.
          6    2    1    2  501    0  0.64073956868E+02 -0.40410524956E+03  0.13489771461E+03  0.46425811325E+03  0.17300773867E+03 0.  0.
         24    2    5    5    0    0  0.10145104314E+03 -0.22947260752E+03  0.10625204692E+03  0.28332643962E+03  0.77681285766E+02 0.  0.
          5    1    5    5  501    0 -0.37377086273E+02 -0.17463264204E+03  0.28645667689E+02  0.18093167363E+03  0.47000000000E+01 0. -1.
        -11    1    6    6    0    0  0.11193754458E+03 -0.20896451345E+03  0.84563084449E+02  0.25168849203E+03  0.00000000000E+00 0.  1.
         12    1    6    6    0    0 -0.10486501441E+02 -0.20508094071E+02  0.21688962472E+02  0.31637947595E+02  0.00000000000E+00 0. -1.
         -5    1    3    3    0  503  0.41883779074E+02  0.63672709671E+02  0.13766799710E+02  0.77589172445E+02  0.47000000000E+01 0.  1.
         13    1    4    4    0    0  0.11127131481E+02  0.50426241176E+02  0.17984224765E+02  0.54681360576E+02  0.00000000000E+00 0. -1.
        -14    1    4    4    0    0 -0.11708486742E+03  0.29000629871E+03  0.16185283487E+03  0.35214891683E+03  0.00000000000E+00 0.  1.
</event>
<event>
12    1  0.1066489E+000  0.1730005E+03  0.7818608E-02  0.1175356E+00
         21   -1    0    0  503  502  0.00000000000E+00  0.00000000000E+00  0.12415014859E+04  0.12415014859E+04  0.00000000000E+00 0. -1.
         21   -1    0    0  501  503 -0.00000000000E+00 -0.00000000000E+00 -0.25773179213E+02  0.25773179213E+02  0.00000000000E+00 0. -1.
          6    2    1    2  501    0 -0.10374188619E+02 -0.34049970060E+02  0.78016748258E+03  0.79861445139E+03  0.16690331584E+03 0.  0.
         24    2    3    3    0    0 -0.59580323187E+02 -0.38858496888E+02  0.35119807571E+03  0.36677975195E+03  0.78278351832E+02 0.  0.
         -6    2    1    2    0  502  0.10374188619E+02  0.34049970060E+02  0.43556082414E+03  0.46866021376E+03  0.16929896687E+03 0.  0.
        -24    2    5    5    0    0 -0.41490293927E+02  0.52604934911E+02  0.35874191964E+03  0.37401643235E+03  0.81876755527E+02 0.  0.
          5    1    3    3  501    0  0.49206134568E+02  0.48085268280E+01  0.42896940687E+03  0.43183469944E+03  0.47000000000E+01 0. -1.
        -11    1    4    4    0    0  0.16876005269E+02 -0.13958944096E+02  0.42883443909E+02  0.48152273421E+02  0.00000000000E+00 0.  1.
         12    1    4    4    0    0 -0.76456328456E+02 -0.24899552792E+02  0.30831463180E+03  0.31862747853E+03  0.00000000000E+00 0. -1.
         -5    1    5    5    0  502  0.51864482546E+02 -0.18554964851E+02  0.76818904506E+02  0.94643781412E+02  0.47000000000E+01 0.  1.
         13    1    6    6    0    0 -0.57249744322E+02  0.26057689420E+02  0.14498700665E+03  0.15804356519E+03  0.00000000000E+00 0. -1.
        -14    1    6    6    0    0  0.15759450395E+02  0.26547245491E+02  0.21375491299E+03  0.21597286715E+03  0.00000000000E+00 0.  1.
</event>
<event>
12    1  0.1066489E+000  0.1812249E+03  0.7818608E-02  0.1166705E+00
         21   -1    0    0  501  502  0.00000000000E+00  0.00000000000E+00  0.24810939907E+02  0.24810939907E+02  0.00000000000E+00 0.  1.
         21   -1    0    0  502  503 -0.00000000000E+00 -0.00000000000E+00 -0.17101221734E+04  0.17101221734E+04  0.00000000000E+00 0.  1.
         -6    2    1    2    0  503  0.55379300768E+02 -0.98109627973E+01 -0.12569482258E+04  0.12699453971E+04  0.17227694953E+03 0.  0.
        -24    2    3    3    0    0  0.86062604103E+02  0.14480241459E+02 -0.59694511548E+03  0.60876635680E+03  0.81465066480E+02 0.  0.
          6    2    1    2  501    0 -0.55379300768E+02  0.98109627973E+01 -0.42836300769E+03  0.46498771620E+03  0.17191738689E+03 0.  0.
         24    2    5    5    0    0 -0.39060436102E+02  0.70024507154E+02 -0.32705575473E+03  0.34591956021E+03  0.79156340019E+02 0.  0.
          5    1    5    5  501    0 -0.16318864666E+02 -0.60213544356E+02 -0.10130725297E+03  0.11906815599E+03  0.47000000000E+01 0. -1.
        -11    1    6    6    0    0 -0.19055292214E+02 -0.15486956170E+02 -0.82317670109E+02  0.85901971951E+02  0.00000000000E+00 0.  1.
         12    1    6    6    0    0 -0.20005143888E+02  0.85511463324E+02 -0.24473808462E+03  0.26001758826E+03  0.00000000000E+00 0. -1.
         -5    1    3    3    0  503 -0.30683303335E+02 -0.24291204256E+02 -0.66000311034E+03  0.66117904032E+03  0.47000000000E+01 0.  1.
         11    1    4    4    0    0  0.71014484511E+01  0.30124162128E+02 -0.28215030316E+03  0.28384271928E+03  0.00000000000E+00 0. -1.
        -12    1    4    4    0    0  0.78961155652E+02 -0.15643920669E+02 -0.31479481232E+03  0.32492363752E+03  0.00000000000E+00 0.  1.
</event>
<event>
12    1  0.1066489E+000  0.1802254E+03  0.7818608E-02  0.1168087E+00
         21   -1    0    0  501  502  0.00000000000E+00  0.00000000000E+00  0.48531962894E+03  0.48531962894E+03  0.00000000000E+00 0. -1.
         21   -1    0    0  502  503 -0.00000000000E+00 -0.00000000000E+00 -0.10909913137E+03  0.10909913137E+03  0.00000000000E+00 0.  1.
         -6    2    1    2    0  503 -0.44232990040E+02 -0.17081470031E+02  0.10033166252E+01  0.17816265754E+03  0.17173407313E+03 0.  0.
        -24    2    3    3    0    0 -0.39593217258E+02 -0.50049259914E+02  0.54574644338E+02  0.11491410172E+03  0.78449395778E+02 0.  0.
          6    2    1    2  501    0  0.44232990040E+02  0.17081470031E+02  0.37521718095E+03  0.41625610277E+03  0.17387603683E+03 0.  0.
         24    2    5    5    0    0  0.80803644275E+02 -0.35629586686E+02  0.25407689219E+03  0.27909587598E+03  0.74436177151E+02 0.  0.
          5    1    5    5  501    0 -0.36570654235E+02  0.52711056717E+02  0.12114028876E+03  0.13716022679E+03  0.47000000000E+01 0. -1.
        -13    1    6    6    0    0  0.81035758023E+02 -0.36933971549E+02  0.14604394143E+03  0.17105480163E+03  0.00000000000E+00 0.  1.
         14    1    6    6    0    0 -0.23211374837E+00  0.13043848624E+01  0.10803295076E+03  0.10804107435E+03  0.00000000000E+00 0. -1.
         -5    1    3    3    0  503 -0.46397727812E+01  0.32967789883E+02 -0.53571327713E+02  0.63248555827E+02  0.47000000000E+01 0.  1.
         13    1    4    4    0    0 -0.49288430230E+02 -0.14713993929E+02  0.58691974541E+02  0.78042288840E+02  0.00000000000E+00 0. -1.
        -14    1    4    4    0    0  0.96952129717E+01 -0.35335265985E+02 -0.41173302028E+01  0.36871812877E+02  0.00000000000E+00 0.  1.
</event>
<event>
12    1  0.1066489E+000  0.1750580E+03  0.7818608E-02  0.1174324E+00
         21   -1    0    0  501  502  0.00000000000E+00  0.00000000000E+00  0.30053362165E+02  0.30053362165E+02  0.00000000000E+00 0.  1.
         21   -1    0    0  502  503 -0.00000000000E+00 -0.00000000000E+00 -0.11110305171E+04  0.11110305171E+04  0.00000000000E+00 0.  1.
         -6    2    1    2    0  503  0.17433993167E+02  0.27206628483E+02 -0.35542032952E+03  0.39619302427E+03  0.17204986804E+03 0.  0.
        -24    2    3    3    0    0 -0.21345247148E+02 -0.91521833437E+01 -0.31175201350E+03  0.32723793381E+03  0.96726239272E+02 0.  0.
          6    2    1    2  501    0 -0.17433993167E+02 -0.27206628483E+02 -0.72555682544E+03  0.74489085502E+03  0.16548575225E+03 0.  0.
         24    2    5    5    0    0 -0.17632844388E+01 -0.50749679720E+02 -0.22823623453E+03  0.24674458481E+03  0.78819237629E+02 0.  0.
          5    1    5    5  501    0 -0.15670708728E+02  0.23543051237E+02 -0.49732059091E+03  0.49814627020E+03  0.47000000000E+01 0. -1.
        -11    1    6    6    0    0 -0.27182617846E+02 -0.16194893235E+01 -0.13984278344E+03  0.14246937053E+03  0.00000000000E+00 0.  1.
         12    1    6    6    0    0  0.25419333407E+02 -0.49130190397E+02 -0.88393451088E+02  0.10427521429E+03  0.00000000000E+00 0. -1.
         -5    1    3    3    0  503  0.38779240315E+02  0.36358811827E+02 -0.43668316015E+02  0.68955090461E+02  0.47000000000E+01 0.  1.
         11    1    4    4    0    0  0.30661399289E+02 -0.34877674404E-01 -0.39976246284E+02  0.50380778972E+02  0.00000000000E+00 0. -1.
        -12    1    4    4    0    0 -0.52006646437E+02 -0.91173056693E+01 -0.27177576722E+03  0.27685715484E+03  0.00000000000E+00 0.  1.
</event>
<event>
12    1  0.1066489E+000  0.1943467E+03  0.7818608E-02  0.1155667E+00
         21   -1    0    0  503  502  0.00000000000E+00  0.00000000000E+00  0.24688063215E+03  0.24688063215E+03  0.00000000000E+00 0.  1.
         21   -1    0    0  501  503 -0.00000000000E+00 -0.00000000000E+00 -0.17083021969E+03  0.17083021969E+03  0.00000000000E+00 0.  1.
          6    2    1    2  501    0 -0.59787235214E+02  0.52510309368E+02  0.11271533370E+03  0.22466725261E+03  0.17730984704E+03 0.  0.
         24    2    3    3    0    0 -0.72455236731E+02 -0.20555277924E+02  0.29698629318E+02  0.11325396114E+03  0.79197034988E+02 0.  0.
         -6    2    1    2    0  502  0.59787235214E+02 -0.52510309368E+02 -0.36664921234E+02  0.19304359923E+03  0.17201647791E+03 0.  0.
        -24    2    5    5    0    0 -0.31982294048E+02 -0.29504627605E+02 -0.39627858505E+00  0.91611787982E+02  0.80617445245E+02 0.  0.
          5    1    3    3  501    0  0.12668001516E+02  0.73065587293E+02  0.83016704380E+02  0.11141329146E+03  0.47000000000E+01 0. -1.
        -13    1    4    4    0    0  0.25052453619E+01  0.21350209242E+02 -0.22740888682E+01  0.21616641025E+02  0.00000000000E+00 0.  1.
         14    1    4    4    0    0 -0.74960482092E+02 -0.41905487166E+02  0.31972718186E+02  0.91637320118E+02  0.00000000000E+00 0. -1.
         -5    1    5    5    0  502  0.91769529262E+02 -0.23005681763E+02 -0.36268642649E+02  0.10143181125E+03  0.47000000000E+01 0.  1.
         11    1    6    6    0    0  0.20027389948E+02 -0.10902723507E+02 -0.22576780244E+02  0.32088576381E+02  0.00000000000E+00 0. -1.
        -12    1    6    6    0    0 -0.52009683995E+02 -0.18601904098E+02  0.22180501659E+02  0.59523211601E+02  0.00000000000E+00 0.  1.
</event>
<event>
12    1  0.1066489E+000  0.1808390E+03  0.7818608E-02  0.1167256E+00
         21   -1    0    0  503  502  0.00000000000E+00  0.00000000000E+00  0.28555639131E+03  0.28555639131E+03  0.00000000000E+00 0. -1.
         21   -1    0    0  501  503 -0.00000000000E+00 -0.00000000000E+00 -0.16335941815E+03  0.16335941815E+03  0.00000000000E+00 0. -1.
          6    2    1    2  501    0 -0.48079935877E+02 -0.26801743378E+02  0.18455629597E+03  0.25762696122E+03  0.17111578268E+03 0.  0.
         24    2    3    3    0    0  0.88068959607E+01  0.10991068371E+01  0.17774387511E+03  0.19372807111E+03  0.76543523199E+02 0.  0.
         -6    2    1    2    0  502  0.48079935877E+02  0.26801743378E+02 -0.62359322808E+02  0.19128884824E+03  0.17225772737E+03 0.  0.
        -24    2    5    5    0    0  0.15595406339E+02  0.72579086599E+02  0.54066723357E+01  0.10316887372E+03  0.71439792050E+02 0.  0.
          5    1    3    3  501    0 -0.56886831838E+02 -0.27900850215E+02  0.68124208617E+01  0.63898890109E+02  0.47000000000E+01 0. -1.
        -11    1    4    4    0    0 -0.18546964599E+02  0.87451011435E+01  0.15754947938E+03  0.15887827146E+03  0.00000000000E+00 0.  1.
         12    1    4    4    0    0  0.27353860559E+02 -0.76459943064E+01  0.20194395729E+02  0.34849799645E+02  0.00000000000E+00 0. -1.
         -5    1    5    5    0  502  0.32484529538E+02 -0.45777343222E+02 -0.67765995144E+02  0.88119974521E+02  0.47000000000E+01 0.  1.
         13    1    6    6    0    0 -0.12288533364E+02  0.60680185376E+02 -0.18437364259E+02  0.64598988772E+02  0.00000000000E+00 0. -1.
        -14    1    6    6    0    0  0.27883939703E+02  0.11898901223E+02  0.23844036595E+02  0.38569884947E+02  0.00000000000E+00 0.  1.
</event>
<event>
12    1  0.1066489E+000  0.2253980E+03  0.7818608E-02  0.1130323E+00
         21   -1    0    0  501  502  0.00000000000E+00  0.00000000000E+00  0.66216259211E+02  0.66216259211E+02  0.00000000000E+00 0.  1.
         21   -1    0    0  502  503 -0.00000000000E+00 -0.00000000000E+00 -0.81180262454E+03  0.81180262454E+03  0.00000000000E+00 0. -1.
         -6    2    1    2    0  503 -0.14164451446E+03 -0.35003321622E+02 -0.25988607059E+03  0.34256669292E+03  0.16888685091E+03 0.  0.
        -24    2    3    3    0    0 -0.48775714343E+02  0.22414856316E+02 -0.56214546015E+02  0.11142681943E+03  0.79839619311E+02 0.  0.
          6    2    1    2  501    0  0.14164451446E+03  0.35003321622E+02 -0.48570029474E+03  0.53545219083E+03  0.17180183746E+03 0.  0.
         24    2    5    5    0    0  0.62154171326E+02  0.22610922663E+02 -0.10918226241E+03  0.15040647293E+03  0.79542101041E+02 0.  0.
          5    1    5    5  501    0  0.79490343137E+02  0.12392398959E+02 -0.37651803233E+03  0.38504571790E+03  0.47000000000E+01 0. -1.
        -13    1    6    6    0    0  0.78029258574E+02  0.29912690307E+02 -0.76250198461E+02  0.11312571326E+03  0.00000000000E+00 0.  1.
         14    1    6    6    0    0 -0.15875087248E+02 -0.73017676435E+01 -0.32932063949E+02  0.37280759673E+02  0.00000000000E+00 0. -1.
         -5    1    3    3    0  503 -0.92868800120E+02 -0.57418177938E+02 -0.20367152458E+03  0.23113987349E+03  0.47000000000E+01 0.  1.
         11    1    4    4    0    0 -0.83991339619E+01 -0.68018915910E+01 -0.60449987076E+02  0.61408567138E+02  0.00000000000E+00 0. -1.
        -12    1    4    4    0    0 -0.40376580381E+02  0.29216747907E+02  0.42354410607E+01  0.50018252294E+02  0.00000000000E+00 0.  1.
</event>
<event>
12    1  0.1066489E+000  0.4306465E+03  0.7818608E-02  0.1033663E+00
         21   -1    0    0  503  502  0.00000000000E+00  0.00000000000E+00  0.30408277575E+03  0.30408277575E+03  0.00000000000E+00 0.  1.
         21   -1    0    0  501  503 -0.00000000000E+00 -0.00000000000E+00 -0.86547917510E+03  0.86547917510E+03  0.00000000000E+00 0.  1.
          6    2    1    2  501    0  0.11642581355E+03 -0.37727659879E+03  0.37145656461E+02  0.43224551630E+03  0.17194122399E+03 0.  0.
         24    2    3    3    0    0  0.53899667653E+02 -0.26745949399E+03 -0.37400015313E+02  0.28545157021E+03  0.75127110226E+02 0.  0.
         -6    2    1    2    0  502 -0.11642581355E+03  0.37727659879E+03 -0.59854205581E+03  0.73731643455E+03  0.17172748769E+03 0.  0.
        -24    2    5    5    0    0 -0.90363683788E+02  0.12243383299E+03 -0.19968562426E+03  0.26325672008E+03  0.79209300750E+02 0.  0.
          5    1    3    3  501    0  0.62526145893E+02 -0.10981710480E+03  0.74545671774E+02  0.14679394609E+03  0.47000000000E+01 0. -1.
        -13    1    4    4    0    0  0.32565491498E+02 -0.85570205854E+02 -0.45287479566E+02  0.10214561749E+03  0.00000000000E+00 0.  1.
         14    1    4    4    0    0  0.21334176155E+02 -0.18188928814E+03  0.78874642537E+01  0.18330595272E+03  0.00000000000E+00 0. -1.
         -5    1    5    5    0  502 -0.26062129758E+02  0.25484276580E+03 -0.39885643155E+03  0.47405971447E+03  0.47000000000E+01 0.  1.
         11    1    6    6    0    0 -0.23887399363E+02  0.91571012830E+02 -0.13870746615E+03  0.16791551270E+03  0.00000000000E+00 0. -1.
        -12    1    6    6    0    0 -0.66476284425E+02  0.30862820160E+02 -0.60978158102E+02  0.95341207380E+02  0.00000000000E+00 0.  1.
</event>
<event>
12    1  0.1066489E+000  0.2119805E+03  0.7818608E-02  0.1140513E+00
         21   -1    0    0  501  502  0.00000000000E+00  0.00000000000E+00  0.10932097175E+04  0.10932097175E+04  0.00000000000E+00 0. -1.
         21   -1    0    0  502  503 -0.00000000000E+00 -0.00000000000E+00 -0.64825633400E+02  0.64825633400E+02  0.00000000000E+00 0. -1.
         -6    2    1    2    0  503 -0.11143039593E+03 -0.41203886758E+02  0.87005237835E+03  0.89550369202E+03  0.17555975601E+03 0.  0.
        -24    2    3    3    0    0 -0.40232745493E+02 -0.54742661093E+02  0.24191416080E+03  0.26318089931E+03  0.78270631859E+02 0.  0.
          6    2    1    2  501    0  0.11143039593E+03  0.41203886758E+02  0.15833170570E+03  0.26253165883E+03  0.17245129584E+03 0.  0.
         24    2    5    5    0    0  0.10846025487E+03  0.71632882652E+02  0.17234468574E+03  0.22857287295E+03  0.75152982510E+02 0.  0.
          5    1    5    5  501    0  0.29701410557E+01 -0.30428995894E+02 -0.14012980040E+02  0.33958785882E+02  0.47000000000E+01 0. -1.
        -13    1    6    6    0    0  0.17842512432E+02  0.54696634348E+02  0.74678015294E+02  0.94270265869E+02  0.00000000000E+00 0.  1.
         14    1    6    6    0    0  0.90617742442E+02  0.16936248304E+02  0.97666670448E+02  0.13430260708E+03  0.00000000000E+00 0. -1.
         -5    1    3    3    0  503 -0.71197650437E+02  0.13538774335E+02  0.62813821755E+03  0.63232279272E+03  0.47000000000E+01 0.  1.
         11    1    4    4    0    0 -0.61197602748E+01 -0.43931948388E+02  0.21184813699E+03  0.21644191069E+03  0.00000000000E+00 0. -1.
        -12    1    4    4    0    0 -0.34112985218E+02 -0.10810712705E+02  0.30066023808E+02  0.46738988621E+02  0.00000000000E+00 0.  1.
</event>
<event>
12    1  0.1066489E+000  0.3765663E+03  0.7818608E-02  0.1052252E+00
         21   -1    0    0  501  502  0.00000000000E+00  0.00000000000E+00  0.40708892321E+03  0.40708892321E+03  0.00000000000E+00 0.  1.
         21   -1    0    0  502  503 -0.00000000000E+00 -0.00000000000E+00 -0.42558300519E+03  0.42558300519E+03  0.00000000000E+00 0.  1.
         -6    2    1    2    0  503 -0.18417882803E+03  0.27991710062E+03 -0.18709335877E+03  0.42008512475E+03  0.17085714274E+03 0.  0.
        -24    2    3    3    0    0 -0.76593855439E+02  0.12472994243E+03 -0.19228681353E+02  0.16738328400E+03  0.78887542399E+02 0.  0.
          6    2    1    2  501    0  0.18417882803E+03 -0.27991710062E+03  0.16859927679E+03  0.41258680365E+03  0.17183343827E+03 0.  0.
         24    2    5    5    0    0  0.15280544247E+03 -0.21815159611E+03  0.61886621957E+02  0.28527243852E+03  0.81306752912E+02 0.  0.
          5    1    5    5  501    0  0.31373385554E+02 -0.61765504507E+02  0.10671265483E+03  0.12731436513E+03  0.47000000000E+01 0. -1.
        -13    1    6    6    0    0  0.42120837424E+02 -0.36452598646E+02  0.45428252322E+02  0.71879642475E+02  0.00000000000E+00 0.  1.
         14    1    6    6    0    0  0.11068460505E+03 -0.18169899746E+03  0.16458369636E+02  0.21339279605E+03  0.00000000000E+00 0. -1.
         -5    1    3    3    0  503 -0.10758497259E+03  0.15518715819E+03 -0.16786467742E+03  0.25270184075E+03  0.47000000000E+01 0.  1.
         11    1    4    4    0    0 -0.58439219144E+02  0.13249229071E+03 -0.88523984097E+01  0.14507830434E+03  0.00000000000E+00 0. -1.
        -12    1    4    4    0    0 -0.18154636296E+02 -0.77623482821E+01 -0.10376282943E+02  0.22304979659E+02  0.00000000000E+00 0.  1.
</event>
<event>
12    1  0.1066489E+000  0.3920341E+03  0.7818608E-02  0.1046636E+00
         21   -1    0    0  501  502  0.00000000000E+00  0.00000000000E+00  0.13761100582E+04  0.13761100582E+04  0.00000000000E+00 0. -1.
         21   -1    0    0  502  503 -0.00000000000E+00 -0.00000000000E+00 -0.11489546243E+03  0.11489546243E+03  0.00000000000E+00 0. -1.
         -6    2    1    2    0  503  0.26989848245E+02 -0.35032887299E+03  0.50269296539E+03  0.63748797317E+03  0.17387330829E+03 0.  0.
        -24    2    3    3    0    0  0.55759696100E+02 -0.11003519148E+03  0.22614031049E+03  0.26996624804E+03  0.80780244970E+02 0.  0.
          6    2    1    2  501    0 -0.26989848245E+02  0.35032887299E+03  0.75852163035E+03  0.85351754743E+03  0.17227410981E+03 0.  0.
         24    2    5    5    0    0  0.26729582710E+02  0.19328510373E+03  0.53422726791E+03  0.57445021909E+03  0.80750718400E+02 0.  0.
          5    1    5    5  501    0 -0.53719430955E+02  0.15704376926E+03  0.22429436244E+03  0.27906732834E+03  0.47000000000E+01 0. -1.
        -11    1    6    6    0    0 -0.23148718245E+02  0.11714975221E+03  0.32670835879E+03  0.34784806928E+03  0.00000000000E+00 0.  1.
         12    1    6    6    0    0  0.49878300955E+02  0.76135351519E+02  0.20751890912E+03  0.22660214981E+03  0.00000000000E+00 0. -1.
         -5    1    3    3    0  503 -0.28769847855E+02 -0.24029368150E+03  0.27655265490E+03  0.36752172514E+03  0.47000000000E+01 0.  1.
         13    1    4    4    0    0  0.56064605660E+02 -0.11596145925E+03  0.16884819740E+03  0.21236763832E+03  0.00000000000E+00 0. -1.
        -14    1    4    4    0    0 -0.30490956010E+00  0.59262677663E+01  0.57292113092E+02  0.57598609723E+02  0.00000000000E+00 0.  1.
</event>
<event>
12    1  0.1066489E+000  0.2737567E+03  0.7818608E-02  0.1099297E+00
         21   -1    0    0  503  502  0.00000000000E+00  0.00000000000E+00  0.10196944020E+03  0.10196944020E+03  0.00000000000E+00 0. -1.
         21   -1    0    0  501  503 -0.00000000000E+00 -0.00000000000E+00 -0.11659838663E+04  0.11659838663E+04  0.00000000000E+00 0. -1.
          6    2    1    2  501    0 -0.10951976383E+03  0.18291711709E+03 -0.91808444926E+03  0.95773035050E+03  0.17004445859E+03 0.  0.
         24    2    3    3    0    0 -0.11324214240E+03  0.12649858812E+03 -0.84279065534E+03  0.86345335481E+03  0.80186854272E+02 0.  0.
         -6    2    1    2    0  502  0.10951976383E+03 -0.18291711709E+03 -0.14592997681E+03  0.31022295597E+03  0.17172499494E+03 0.  0.
        -24    2    5    5    0    0 -0.92962805118E+01 -0.60687759746E+02 -0.72596079507E+02  0.12459639892E+03  0.80527304990E+02 0.  0.
          5    1    3    3  501    0  0.37223785635E+01  0.56418528965E+02 -0.75293793925E+02  0.94276995690E+02  0.47000000000E+01 0. -1.
        -11    1    4    4    0    0 -0.76842564795E+02  0.30981119697E+02 -0.45103831400E+03  0.45858496512E+03  0.00000000000E+00 0.  1.
         12    1    4    4    0    0 -0.36399577603E+02  0.95517468426E+02 -0.39175234134E+03  0.40486838969E+03  0.00000000000E+00 0. -1.
         -5    1    5    5    0  502  0.11881604435E+03 -0.12222935734E+03 -0.73333897307E+02  0.18562655706E+03  0.47000000000E+01 0.  1.
         11    1    6    6    0    0  0.19256499310E+02 -0.70178868590E+01 -0.58784254608E+02  0.62254735494E+02  0.00000000000E+00 0. -1.
        -12    1    6    6    0    0 -0.28552779822E+02 -0.53669872887E+02 -0.13811824899E+02  0.62341663423E+02  0.00000000000E+00 0.  1.
</event>
<event>
12    1  0.1066489E+000  0.2117167E+03  0.7818608E-02  0.1140237E+00
         21   -1    0    0  501  502  0.00000000000E+00  0.00000000000E+00  0.14516311443E+04  0.14516311443E+04  0.00000000000E+00 0. -1.
         21   -1    0    0  502  503 -0.00000000000E+00 -0.00000000000E+00 -0.31138366055E+02  0.31138366055E+02  0.00000000000E+00 0. -1.
         -6    2    1    2    0  503 -0.49135267110E+02  0.11282327691E+03  0.78042865334E+03  0.80863640943E+03  0.17228056599E+03 0.  0.
        -24    2    3    3    0    0  0.18230918918E+02  0.36140985615E+02  0.19895523432E+03  0.21825364898E+03  0.80080789092E+02 0.  0.
          6    2    1    2  501    0  0.49135267110E+02 -0.11282327691E+03  0.64006412487E+03  0.67413310088E+03  0.17213363262E+03 0.  0.
         24    2    5    5    0    0 -0.13036528988E+02 -0.16405907979E+02  0.15831215513E+03  0.17888700892E+03  0.80614630143E+02 0.  0.
          5    1    5    5  501    0  0.62171796098E+02 -0.96417368933E+02  0.48175196974E+03  0.49524609196E+03  0.47000000000E+01 0. -1.
        -11    1    6    6    0    0  0.24833321985E+02 -0.33530672238E+02  0.80429549972E+02  0.90608566760E+02  0.00000000000E+00 0.  1.
         12    1    6    6    0    0 -0.37869850973E+02  0.17124764260E+02  0.77882605159E+02  0.88278442159E+02  0.00000000000E+00 0. -1.
         -5    1    3    3    0  503 -0.67366186028E+02  0.76682291298E+02  0.58147341902E+03  0.59038276046E+03  0.47000000000E+01 0.  1.
         13    1    4    4    0    0 -0.57849635118E+01  0.45594484069E+01  0.16739364050E+03  0.16755561838E+03  0.00000000000E+00 0. -1.
        -14    1    4    4    0    0  0.24015882430E+02  0.31581537208E+02  0.31561593823E+02  0.50698030592E+02  0.00000000000E+00 0.  1.
</event>
<event>
12    1  0.1066489E+000  0.1799219E+03  0.7818608E-02  0.1167925E+00
         21   -1    0    0  501  502  0.00000000000E+00  0.00000000000E+00  0.17467590947E+03  0.17467590947E+03  0.00000000000E+00 0.  1.
         21   -1    0    0  502  503 -0.00000000000E+00 -0.00000000000E+00 -0.35415622243E+03  0.35415622243E+03  0.00000000000E+00 0.  1.
         -6    2    1    2    0  503 -0.44376710323E+02  0.35792951831E+02  0.92956368372E+02  0.20234530324E+03  0.17044737458E+03 0.  0.
        -24    2    3    3    0    0 -0.59728231604E+02  0.42207915957E+02  0.97857917560E+00  0.10875671058E+03  0.80486611677E+02 0.  0.
          6    2    1    2  501    0  0.44376710323E+02 -0.35792951831E+02 -0.27243668132E+03  0.32648682866E+03  0.17065015716E+03 0.  0.
         24    2    5    5    0    0  0.89910897366E+02 -0.10634670005E+01 -0.15466488601E+03  0.19544567071E+03  0.78693600799E+02 0.  0.
          5    1    5    5  501    0 -0.45534187044E+02 -0.34729484830E+02 -0.11777179531E+03  0.13104115795E+03  0.47000000000E+01 0. -1.
        -13    1    6    6    0    0 -0.10644105631E+02  0.10565911364E+02 -0.38762894439E+02  0.41563174241E+02  0.00000000000E+00 0.  1.
         14    1    6    6    0    0  0.10055500300E+03 -0.11629378365E+02 -0.11590199157E+03  0.15388249647E+03  0.00000000000E+00 0. -1.
         -5    1    3    3    0  503  0.15351521282E+02 -0.64149641260E+01  0.91977789196E+02  0.93588592658E+02  0.47000000000E+01 0.  1.
         11    1    4    4    0    0 -0.60011282876E+02  0.57938803868E+02  0.18254399842E+02  0.85390176131E+02  0.00000000000E+00 0. -1.
        -12    1    4    4    0    0  0.28305127188E+00 -0.15730887912E+02 -0.17275820666E+02  0.23366534450E+02  0.00000000000E+00 0.  1.
</event>
<event>
12    1  0.1066489E+000  0.3600120E+03  0.7818608E-02  0.1058604E+00
         21   -1    0    0  501  502  0.00000000000E+00  0.00000000000E+00  0.72947489147E+02  0.72947489147E+02  0.00000000000E+00 0. -1.
         21   -1    0    0  502  503 -0.00000000000E+00 -0.00000000000E+00 -0.19109915508E+04  0.19109915508E+04  0.00000000000E+00 0. -1.
         -6    2    1    2    0  503  0.29184740539E+03  0.12107115949E+03 -0.65456912023E+03  0.74691779012E+03  0.17202417955E+03 0.  0.
        -24    2    3    3    0    0  0.21550987920E+03  0.10133069970E+03 -0.60183686000E+03  0.65194471538E+03  0.78178559185E+02 0.  0.
          6    2    1    2  501    0 -0.29184740539E+03 -0.12107115949E+03 -0.11834749414E+04  0.12370212498E+04  0.17255579344E+03 0.  0.
         24    2    5    5    0    0 -0.28524138466E+03 -0.14116763557E+03 -0.10026499421E+04  0.10549023924E+04  0.78874597785E+02 0.  0.
          5    1    5    5  501    0 -0.66060207345E+01  0.20096476084E+02 -0.18082499936E+03  0.18211885749E+03  0.47000000000E+01 0. -1.
        -11    1    6    6    0    0 -0.10478229792E+03 -0.86507274603E+02 -0.49702802323E+03  0.51526662457E+03  0.00000000000E+00 0.  1.
         12    1    6    6    0    0 -0.18045908674E+03 -0.54660360966E+02 -0.50562191886E+03  0.53963576779E+03  0.00000000000E+00 0. -1.
         -5    1    3    3    0  503  0.76337526193E+02  0.19740459782E+02 -0.52732260227E+02  0.94973074744E+02  0.47000000000E+01 0.  1.
         13    1    4    4    0    0  0.20651504132E+02  0.71413811779E+01 -0.15093374698E+02  0.26557370122E+02  0.00000000000E+00 0. -1.
        -14    1    4    4    0    0  0.19485837507E+03  0.94189318525E+02 -0.58674348530E+03  0.62538734526E+03  0.00000000000E+00 0.  1.
</event>
<event>
12    1  0.1066489E+000  0.1935445E+03  0.7818608E-02  0.1155374E+00
         21   -1    0    0  501  502  0.00000000000E+00  0.00000000000E+00  0.92762624011E+03  0.92762624011E+03  0.00000000000E+00 0. -1.
         21   -1    0    0  502  503 -0.00000000000E+00 -0.00000000000E+00 -0.42899983628E+02  0.42899983628E+02  0.00000000000E+00 0. -1.
         -6    2    1    2    0  503  0.60138192475E+02 -0.65035205830E+02  0.32290069411E+03  0.37629779900E+03  0.17172360084E+03 0.  0.
        -24    2    3    3    0    0  0.64336950685E+02 -0.87103941086E+02  0.15004653057E+03  0.20192661302E+03  0.80833507499E+02 0.  0.
          6    2    1    2  501    0 -0.60138192475E+02  0.65035205830E+02  0.56182556237E+03  0.59422842473E+03  0.17208508953E+03 0.  0.
         24    2    5    5    0    0 -0.46077332991E+02  0.14463357461E+02  0.13161307839E+03  0.16080012503E+03  0.78755117171E+02 0.  0.
          5    1    5    5  501    0 -0.14060859484E+02  0.50571848369E+02  0.43021248397E+03  0.43342829970E+03  0.47000000000E+01 0. -1.
        -11    1    6    6    0    0 -0.61677989710E+02 -0.45359039273E+01  0.11662430949E+03  0.13200749374E+03  0.00000000000E+00 0.  1.
         12    1    6    6    0    0  0.15600656719E+02  0.18999261388E+02  0.14988768902E+02  0.28792631289E+02  0.00000000000E+00 0. -1.
         -5    1    3    3    0  503 -0.41987582094E+01  0.22068735256E+02  0.17285416355E+03  0.17437118598E+03  0.47000000000E+01 0.  1.
         11    1    4    4    0    0 -0.96007958692E+01 -0.30271389907E+02  0.93047808169E+01  0.33092465522E+02  0.00000000000E+00 0. -1.
        -12    1    4    4    0    0  0.73937746554E+02 -0.56832551178E+02  0.14074174975E+03  0.16883414750E+03  0.00000000000E+00 0.  1.
</event>
<event>
12    1  0.1066489E+000  0.1780033E+03  0.7818608E-02  0.1169988E+00
         21   -1    0    0  503  502  0.00000000000E+00  0.00000000000E+00  0.18584691424E+03  0.18584691424E+03  0.00000000000E+00 0. -1.
         21   -1    0    0  501  503 -0.00000000000E+00 -0.00000000000E+00 -0.17013673883E+03  0.17013673883E+03  0.00000000000E+00 0. -1.
          6    2    1    2  501    0 -0.18404846896E+02  0.41125121548E+02  0.18184801346E+02  0.17892972711E+03  0.17220669625E+03 0.  0.
         24    2    3    3    0    0  0.50833643950E+01  0.23026166770E+02  0.78040267423E+02  0.11196678920E+03  0.76747857270E+02 0.  0.
         -6    2    1    2    0  502  0.18404846896E+02 -0.41125121548E+02 -0.24746259379E+01  0.17705392596E+03  0.17120734479E+03 0.  0.
        -24    2    5    5    0    0 -0.52958036989E+02 -0.42043360879E+02 -0.91057885116E+01  0.10522380221E+03  0.80105775647E+02 0.  0.
          5    1    3    3  501    0 -0.23488211291E+02  0.18098954778E+02 -0.59855466077E+02  0.66962937906E+02  0.47000000000E+01 0. -1.
        -11    1    4    4    0    0  0.11770187374E+02 -0.16204951651E+02 -0.43257707140E+01  0.20490243071E+02  0.00000000000E+00 0.  1.
         12    1    4    4    0    0 -0.66868229791E+01  0.39231118420E+02  0.82366038137E+02  0.91476546133E+02  0.00000000000E+00 0. -1.
         -5    1    5    5    0  502  0.71362883885E+02  0.91823933179E+00  0.66311625737E+01  0.71830123743E+02  0.47000000000E+01 0.  1.
         13    1    6    6    0    0  0.18436842449E+02 -0.11867216769E+02 -0.16386082132E+02  0.27372462092E+02  0.00000000000E+00 0. -1.
        -14    1    6    6    0    0 -0.71394879439E+02 -0.30176144110E+02  0.72802936209E+01  0.77851340121E+02  0.00000000000E+00 0.  1.
</event>
<event>
12    1  0.1066489E+000  0.3818773E+03  0.7818608E-02  0.1050521E+00
         21   -1    0    0  501  502  0.00000000000E+00  0.00000000000E+00  0.23368196503E+03  0.23368196503E+03  0.00000000000E+00 0. -1.
         21   -1    0    0  502  503 -0.00000000000E+00 -0.00000000000E+00 -0.70237903789E+03  0.70237903789E+03  0.00000000000E+00 0.  1.
         -6    2    1    2    0  503  0.50162894943E+02  0.33426879437E+03 -0.74031152451E+02  0.38898696308E+03  0.17770285027E+03 0.  0.
        -24    2    3    3    0    0 -0.20187473713E+02  0.95660000485E+02 -0.59447270390E+02  0.13975191236E+03  0.80238701788E+02 0.  0.
          6    2    1    2  501    0 -0.50162894943E+02 -0.33426879437E+03 -0.39466592041E+03  0.54707403984E+03  0.17110486087E+03 0.  0.
         24    2    5    5    0    0 -0.28008653524E+02 -0.58241591638E+02 -0.11244410777E+03  0.15165898121E+03  0.78614257872E+02 0.  0.
          5    1    5    5  501    0 -0.22154241419E+02 -0.27602720273E+03 -0.28222181264E+03  0.39541505863E+03  0.47000000000E+01 0. -1.
        -11    1    6    6    0    0  0.16606477085E+02 -0.11185603730E+02  0.19990639895E+01  0.20121855502E+02  0.00000000000E+00 0.  1.
         12    1    6    6    0    0 -0.44615130609E+02 -0.47055987908E+02 -0.11444317176E+03  0.13153712571E+03  0.00000000000E+00 0. -1.
         -5    1    3    3    0  503  0.70350368655E+02  0.23860879389E+03 -0.14583882062E+02  0.24923505072E+03  0.47000000000E+01 0.  1.
         11    1    4    4    0    0 -0.20478693862E+02  0.92764561568E+02 -0.16154999282E+02  0.96361946778E+02  0.00000000000E+00 0. -1.
        -12    1    4    4    0    0  0.29122014991E+00  0.28954389171E+01 -0.43292271108E+02  0.43389965584E+02  0.00000000000E+00 0.  1.
</event>
<event>
12    1  0.1066489E+000  0.3802759E+03  0.7818608E-02  0.1050855E+00
         21   -1    0    0  501  502  0.00000000000E+00  0.00000000000E+00  0.26002038585E+03  0.26002038585E+03  0.00000000000E+00 0. -1.
         21   -1    0    0  502  503 -0.00000000000E+00 -0.00000000000E+00 -0.84770495095E+03  0.84770495095E+03  0.00000000000E+00 0.  1.
         -6    2    1    2    0  503  0.30929400057E+03 -0.13916816994E+03  0.31242156894E+02  0.38130946534E+03  0.17143592880E+03 0.  0.
        -24    2    3    3    0    0  0.54594082630E+02 -0.24932816003E+02  0.19568470101E+02  0.10188124692E+03  0.79966894904E+02 0.  0.
          6    2    1    2  501    0 -0.30929400057E+03  0.13916816994E+03 -0.61892672200E+03  0.72641587145E+03  0.17198596684E+03 0.  0.
         24    2    5    5    0    0 -0.51707092733E+02  0.51671379617E+02 -0.15447932161E+03  0.18814068057E+03  0.78673375215E+02 0.  0.
          5    1    5    5  501    0 -0.25758690783E+03  0.87496790319E+02 -0.46444740038E+03  0.53827519089E+03  0.47000000000E+01 0. -1.
        -13    1    6    6    0    0 -0.16421818360E+02  0.33843835539E+02 -0.14167737677E+03  0.14658635820E+03  0.00000000000E+00 0.  1.
         14    1    6    6    0    0 -0.35285274372E+02  0.17827544079E+02 -0.12801944841E+02  0.41554322364E+02  0.00000000000E+00 0. -1.
         -5    1    3    3    0  503  0.25469991794E+03 -0.11423535393E+03  0.11673686793E+02  0.27942821842E+03  0.47000000000E+01 0.  1.
         11    1    4    4    0    0  0.56173832829E+02 -0.38077438939E+02  0.39073166643E+02  0.78307746759E+02  0.00000000000E+00 0. -1.
        -12    1    4    4    0    0 -0.15797501995E+01  0.13144622936E+02 -0.19504696542E+02  0.23573500165E+02  0.00000000000E+00 0.  1.
</event>
<event>
12    1  0.1066489E+000  0.2101425E+03  0.7818608E-02  0.1141706E+00
         21   -1    0    0  503  502  0.00000000000E+00  0.00000000000E+00  0.33236191659E+03  0.33236191659E+03  0.00000000000E+00 0. -1.
         21   -1    0    0  501  503 -0.00000000000E+00 -0.00000000000E+00 -0.14729821004E+03  0.14729821004E+03  0.00000000000E+00 0. -1.
          6    2    1    2  501    0 -0.98023154425E+02 -0.68476248347E+02  0.16941106894E+03  0.26893550718E+03  0.17125612792E+03 0.  0.
         24    2    3    3    0    0 -0.10114623090E+03  0.71085036811E+01  0.13332555020E+03  0.18498872041E+03  0.78511359008E+02 0.  0.
         -6    2    1    2    0  502  0.98023154425E+02  0.68476248347E+02  0.15652637611E+02  0.21072461945E+03  0.17280718962E+03 0.  0.
        -24    2    5    5    0    0  0.85930242936E+02 -0.21562880637E+02  0.48519796888E+01  0.11911660960E+03  0.79474904867E+02 0.  0.
          5    1    3    3  501    0  0.31230764742E+01 -0.75584752028E+02  0.36085518740E+02  0.83946786767E+02  0.47000000000E+01 0. -1.
        -11    1    4    4    0    0  0.56840220788E+01 -0.16302538549E+02  0.29547177549E+02  0.34221580490E+02  0.00000000000E+00 0.  1.
         12    1    4    4    0    0 -0.10683025298E+03  0.23411042230E+02  0.10377837265E+03  0.15076713992E+03  0.00000000000E+00 0. -1.
         -5    1    5    5    0  502  0.12092911489E+02  0.90039128983E+02  0.10800657922E+02  0.91608009846E+02  0.47000000000E+01 0.  1.
         13    1    6    6    0    0 -0.10233859134E+02 -0.11019266036E+02  0.15735334335E+02  0.21765956064E+02  0.00000000000E+00 0. -1.
        -14    1    6    6    0    0  0.96164102070E+02 -0.10543614600E+02 -0.10883354647E+02  0.97350653537E+02  0.00000000000E+00 0.  1.
</event>
<event>
12    1  0.1066489E+000  0.1911564E+03  0.7818608E-02  0.1158837E+00
         21   -1    0    0  503  502  0.00000000000E+00  0.00000000000E+00  0.88252605591E+02  0.88252605591E+02  0.00000000000E+00 0. -1.
         21   -1    0    0  501  503 -0.00000000000E+00 -0.00000000000E+00 -0.43049586290E+03  0.43049586290E+03  0.00000000000E+00 0. -1.
          6    2    1    2  501    0  0.80880632374E+02  0.15070062639E+02 -0.10026998682E+03  0.21037883585E+03  0.16563936983E+03 0.  0.
         24    2    3    3    0    0 -0.89405516719E+01 -0.16152364779E+02 -0.67310595778E+02  0.10962618559E+03  0.84536098270E+02 0.  0.
         -6    2    1    2    0  502 -0.80880632374E+02 -0.15070062639E+02 -0.24197327049E+03  0.30836963264E+03  0.17254559751E+03 0.  0.
        -24    2    5    5    0    0 -0.86005597843E+02  0.14898800256E+02 -0.24968187497E+03  0.27665353897E+03  0.81099968099E+02 0.  0.
          5    1    3    3  501    0  0.89821184046E+02  0.31222427418E+02 -0.32959391039E+02  0.10075265026E+03  0.47000000000E+01 0. -1.
        -13    1    4    4    0    0  0.20997231813E+02 -0.20880316977E+01  0.11588940259E+02  0.24073785670E+02  0.00000000000E+00 0.  1.
         14    1    4    4    0    0 -0.29937783484E+02 -0.14064333081E+02 -0.78899536037E+02  0.85552399919E+02  0.00000000000E+00 0. -1.
         -5    1    5    5    0  502  0.51249654691E+01 -0.29968862896E+02  0.77086044834E+01  0.31716093665E+02  0.47000000000E+01 0.  1.
         11    1    6    6    0    0  0.59781902186E+01  0.25035121509E+02 -0.41556775929E+02  0.48882120381E+02  0.00000000000E+00 0. -1.
        -12    1    6    6    0    0 -0.91983788062E+02 -0.10136321253E+02 -0.20812509904E+03  0.22777141859E+03  0.00000000000E+00 0.  1.
</event>
<event>
12    1  0.1066489E+000  0.2685299E+03  0.7818608E-02  0.1102331E+00
         21   -1    0    0  501  502  0.00000000000E+00  0.00000000000E+00  0.51126316762E+03  0.51126316762E+03  0.00000000000E+00 0. -1.
         21   -1    0    0  502  503 -0.00000000000E+00 -0.00000000000E+00 -0.22580735401E+03  0.22580735401E+03  0.00000000000E+00 0. -1.
         -6    2    1    2    0  503  0.19234587803E+03  0.70237387203E+02  0.36928979990E+03  0.45575856069E+03  0.17149542843E+03 0.  0.
        -24    2    3    3    0    0  0.27917793340E+02  0.63465989645E+01  0.17769215148E+03  0.19527751197E+03  0.75757002865E+02 0.  0.
          6    2    1    2  501    0 -0.19234587803E+03 -0.70237387203E+02 -0.83833986294E+02  0.28131196094E+03  0.17371832014E+03 0.  0.
         24    2    5    5    0    0 -0.50920434582E+02 -0.75525589807E+02 -0.67573385532E+02  0.13877909358E+03  0.79977928255E+02 0.  0.
          5    1    5    5  501    0 -0.14142544345E+03  0.52882026047E+01 -0.16260600762E+02  0.14253286736E+03  0.47000000000E+01 0. -1.
        -11    1    6    6    0    0 -0.33214702431E+02 -0.40604380030E+02  0.85745046025E+01  0.53155002251E+02  0.00000000000E+00 0.  1.
         12    1    6    6    0    0 -0.17705732152E+02 -0.34921209778E+02 -0.76147890135E+02  0.85624091325E+02  0.00000000000E+00 0. -1.
         -5    1    3    3    0  503  0.16442808469E+03  0.63890788238E+02  0.19159764842E+03  0.26048104871E+03  0.47000000000E+01 0.  1.
         11    1    4    4    0    0  0.47662613027E+02  0.15400088394E+01  0.16395298781E+03  0.17074741145E+03  0.00000000000E+00 0. -1.
        -12    1    4    4    0    0 -0.19744819688E+02  0.48065901250E+01  0.13739163670E+02  0.24530100519E+02  0.00000000000E+00 0.  1.
</event>
<event>
12    1  0.1066489E+000  0.1988255E+03  0.7818608E-02  0.1151258E+00
         21   -1    0    0  503  502  0.00000000000E+00  0.00000000000E+00  0.10192206883E+04  0.10192206883E+04  0.00000000000E+00 0. -1.
         21   -1    0    0  501  503 -0.00000000000E+00 -0.00000000000E+00 -0.38381694068E+02  0.38381694068E+02  0.00000000000E+00 0. -1.
          6    2    1    2  501    0  0.93436131949E+02 -0.22731284790E+02  0.46451422383E+03  0.50431867927E+03  0.17122162264E+03 0.  0.
         24    2    3    3    0    0  0.36092595182E+00 -0.55833154855E+02  0.24017269478E+03  0.25914539478E+03  0.79724154858E+02 0.  0.
         -6    2    1    2    0  502 -0.93436131949E+02  0.22731284790E+02  0.51632477039E+03  0.55328370309E+03  0.17402461182E+03 0.  0.
        -24    2    5    5    0    0 -0.11550957567E+03  0.60755184136E+02  0.42763090451E+03  0.45417898229E+03  0.79854260942E+02 0.  0.
          5    1    3    3  501    0  0.93075205998E+02  0.33101870065E+02  0.22434152905E+03  0.24517328450E+03  0.47000000000E+01 0. -1.
        -13    1    4    4    0    0 -0.46767271823E+01 -0.52103178444E+02  0.63112971789E+02  0.81974753364E+02  0.00000000000E+00 0.  1.
         14    1    4    4    0    0  0.50376531341E+01 -0.37299764114E+01  0.17705972299E+03  0.17717064141E+03  0.00000000000E+00 0. -1.
         -5    1    5    5    0  502  0.22073443719E+02 -0.38023899347E+02  0.88693865888E+02  0.99104720802E+02  0.47000000000E+01 0.  1.
         13    1    6    6    0    0 -0.38072770081E+02  0.25910780739E+02  0.53771769355E+02  0.70797652219E+02  0.00000000000E+00 0. -1.
        -14    1    6    6    0    0 -0.77436805587E+02  0.34844403398E+02  0.37385913515E+03  0.38338133007E+03  0.00000000000E+00 0.  1.
</event>
<event>
12    1  0.1066489E+000  0.1983733E+03  0.7818608E-02  0.1151277E+00
         21   -1    0    0  503  502  0.00000000000E+00  0.00000000000E+00  0.38371356371E+02  0.38371356371E+02  0.00000000000E+00 0. -1.
         21   -1    0    0  501  503 -0.00000000000E+00 -0.00000000000E+00 -0.17676205869E+04  0.17676205869E+04  0.00000000000E+00 0. -1.
          6    2    1    2  501    0  0.16765704534E+02  0.97054330196E+02 -0.27711567769E+03  0.34037132310E+03  0.17134441021E+03 0.  0.
         24    2    3    3    0    0  0.72906957661E+02  0.42406078420E+02 -0.13871051527E+03  0.18126019619E+03  0.80628479537E+02 0.  0.
         -6    2    1    2    0  502 -0.16765704534E+02 -0.97054330196E+02 -0.14521335528E+04  0.14656206202E+04  0.17219557230E+03 0.  0.
        -24    2    5    5    0    0  0.60049278313E+01 -0.92942961038E+02 -0.14193057096E+04  0.14251834795E+04  0.89692807535E+02 0.  0.
          5    1    3    3  501    0 -0.56141253127E+02  0.54648251775E+02 -0.13840516242E+03  0.15911112692E+03  0.47000000000E+01 0. -1.
        -11    1    4    4    0    0  0.61674968087E+02  0.43318643743E+02 -0.14837180901E+03  0.16641664668E+03  0.00000000000E+00 0.  1.
         12    1    4    4    0    0  0.11231989574E+02 -0.91256532333E+00  0.96612937366E+01  0.14843549505E+02  0.00000000000E+00 0. -1.
         -5    1    5    5    0  502 -0.22770632365E+02 -0.41113691577E+01 -0.32827843218E+02  0.40437140663E+02  0.47000000000E+01 0.  1.
         11    1    6    6    0    0 -0.30436648437E+02 -0.84258406136E+02 -0.86952266106E+03  0.87412557832E+03  0.00000000000E+00 0. -1.
        -12    1    6    6    0    0  0.36441576268E+02 -0.86845549022E+01 -0.54978304854E+03  0.55105790117E+03  0.00000000000E+00 0.  1.
</event>
<event>
12    1  0.1066489E+000  0.1843245E+03  0.7818608E-02  0.1165300E+00
         21   -1    0    0  503  502  0.00000000000E+00  0.00000000000E+00  0.48019400795E+02  0.48019400795E+02  0.00000000000E+00 0. -1.
         21   -1    0    0  501  503 -0.00000000000E+00 -0.00000000000E+00 -0.68512576970E+03  0.68512576970E+03  0.00000000000E+00 0. -1.
          6    2    1    2  501    0  0.12275600087E+02 -0.45622037559E+02 -0.33806436138E+03  0.38185948211E+03  0.17116393014E+03 0.  0.
         24    2    3    3    0    0  0.32475626562E+02 -0.12997534340E+02 -0.33060677322E+03  0.34248811052E+03  0.82302279005E+02 0.  0.
         -6    2    1    2    0  502 -0.12275600087E+02  0.45622037559E+02 -0.29904200753E+03  0.35128568838E+03  0.17816692152E+03 0.  0.
        -24    2    5    5    0    0  0.33265499207E+02 -0.34881006147E+02 -0.14913494356E+03  0.17507856707E+03  0.78025606254E+02 0.  0.
          5    1    3    3  501    0 -0.20200026476E+02 -0.32624503219E+02 -0.74575881532E+01  0.39371371591E+02  0.47000000000E+01 0. -1.
        -13    1    4    4    0    0  0.15680218248E+02 -0.64420683257E+01 -0.69367532558E+01  0.18316332448E+02  0.00000000000E+00 0.  1.
         14    1    4    4    0    0  0.16795408315E+02 -0.65554660140E+01 -0.32367001997E+03  0.32417177808E+03  0.00000000000E+00 0. -1.
         -5    1    5    5    0  502 -0.45541099294E+02  0.80503043706E+02 -0.14990706398E+03  0.17620712131E+03  0.47000000000E+01 0.  1.
         13    1    6    6    0    0 -0.13012264389E+02 -0.89964228691E+01  0.10039615118E+01  0.15851264546E+02  0.00000000000E+00 0. -1.
        -14    1    6    6    0    0  0.46277763597E+02 -0.25884583278E+02 -0.15013890507E+03  0.15922730253E+03  0.00000000000E+00 0.  1.
</event>
<event>
12    1  0.1066489E+000  0.1774538E+03  0.7818608E-02  0.1171110E+00
         21   -1    0    0  503  502  0.00000000000E+00  0.00000000000E+00  0.98515920829E+02  0.98515920829E+02  0.00000000000E+00 0.  1.
         21   -1    0    0  501  503 -0.00000000000E+00 -0.00000000000E+00 -0.44001327768E+03  0.44001327768E+03  0.00000000000E+00 0.  1.
          6    2    1    2  501    0 -0.40287373634E+02 -0.17404343350E+02 -0.27646920343E+02  0.17959451740E+03  0.17194142850E+03 0.  0.
         24    2    3    3    0    0 -0.47960155126E+02 -0.86839273054E+01  0.45723324246E+02  0.10516199747E+03  0.81196282295E+02 0.  0.
         -6    2    1    2    0  502  0.40287373634E+02  0.17404343350E+02 -0.31385043651E+03  0.35893468111E+03  0.16854087091E+03 0.  0.
        -24    2    5    5    0    0  0.43665054664E+02  0.63684090195E+02 -0.13655296408E+03  0.17560517605E+03  0.78918727269E+02 0.  0.
          5    1    3    3  501    0  0.76727814919E+01 -0.87204160446E+01 -0.73370244589E+02  0.74432519928E+02  0.47000000000E+01 0. -1.
        -11    1    4    4    0    0 -0.77821713755E+01  0.22290298959E+02 -0.13487162230E+02  0.27190497679E+02  0.00000000000E+00 0.  1.
         12    1    4    4    0    0 -0.40177983751E+02 -0.30974226264E+02  0.59210486476E+02  0.77971499791E+02  0.00000000000E+00 0. -1.
         -5    1    5    5    0  502 -0.33776810295E+01 -0.46279746845E+02 -0.17729747242E+03  0.18332950506E+03  0.47000000000E+01 0.  1.
         11    1    6    6    0    0  0.24099972918E+01  0.67181221520E+02 -0.68706473913E+02  0.96123379931E+02  0.00000000000E+00 0. -1.
        -12    1    6    6    0    0  0.41255057372E+02 -0.34971313250E+01 -0.67846490171E+02  0.79481796122E+02  0.00000000000E+00 0.  1.
</event>
<event>
12    1  0.1066489E+000  0.1873371E+03  0.7818608E-02  0.1161071E+00
         21   -1    0    0  501  502  0.00000000000E+00  0.00000000000E+00  0.10916552273E+03  0.10916552273E+03  0.00000000000E+00 0.  1.
         21   -1    0    0  502  503 -0.00000000000E+00 -0.00000000000E+00 -0.32015643090E+03  0.32015643090E+03  0.00000000000E+00 0.  1.
         -6    2    1    2    0  503 -0.60192336006E+02 -0.42228310532E+02 -0.10243092978E+03  0.21280301008E+03  0.17142543044E+03 0.  0.
        -24    2    3    3    0    0 -0.74793265325E+02 -0.25042369017E+02 -0.13331533442E+03  0.17427405769E+03  0.79858099219E+02 0.  0.
          6    2    1    2  501    0  0.60192336006E+02  0.42228310532E+02 -0.10855997839E+03  0.21651894355E+03  0.17230448770E+03 0.  0.
         24    2    5    5    0    0  0.65278333024E+02 -0.20196841146E+02 -0.18314850518E+02  0.10656877287E+03  0.79701295137E+02 0.  0.
          5    1    5    5  501    0 -0.50859970176E+01  0.62425151678E+02 -0.90245127874E+02  0.10995017068E+03  0.47000000000E+01 0. -1.
        -11    1    6    6    0    0  0.59502445205E+02 -0.18067180582E+02  0.21867378219E+02  0.65917723183E+02  0.00000000000E+00 0.  1.
         12    1    6    6    0    0  0.57758878194E+01 -0.21296605632E+01 -0.40182228737E+02  0.40651049685E+02  0.00000000000E+00 0. -1.
         -5    1    3    3    0  503  0.14600929319E+02 -0.17185941515E+02  0.30884404633E+02  0.38528952390E+02  0.47000000000E+01 0.  1.
         11    1    4    4    0    0 -0.34840553785E+02 -0.32567795500E+02 -0.16305158907E+02  0.50402219185E+02  0.00000000000E+00 0. -1.
        -12    1    4    4    0    0 -0.39952711540E+02  0.75254264830E+01 -0.11701017551E+03  0.12387183851E+03  0.00000000000E+00 0.  1.
</event>
<event>
12    1  0.1066489E+000  0.3202353E+03  0.7818608E-02  0.1075599E+00
         21   -1    0    0  501  502  0.00000000000E+00  0.00000000000E+00  0.47751834828E+03  0.47751834828E+03  0.00000000000E+00 0.  1.
         21   -1    0    0  502  503 -0.00000000000E+00 -0.00000000000E+00 -0.22679636598E+03  0.22679636598E+03  0.00000000000E+00 0.  1.
         -6    2    1    2    0  503  0.26375020676E+03  0.48376267990E+02  0.20752807711E+03  0.38117946222E+03  0.17414202467E+03 0.  0.
        -24    2    3    3    0    0  0.62800218008E+02 -0.12215589686E+02  0.10822896019E+03  0.14894105924E+03  0.79855139414E+02 0.  0.
          6    2    1    2  501    0 -0.26375020676E+03 -0.48376267990E+02  0.43193905191E+02  0.32313525204E+03  0.17506068318E+03 0.  0.
         24    2    5    5    0    0 -0.64751036065E+02  0.12684608642E+02  0.37429295698E+02  0.11484597888E+03  0.86226740167E+02 0.  0.
          5    1    5    5  501    0 -0.19899917069E+03 -0.61060876632E+02  0.57646094925E+01  0.20828927316E+03  0.47000000000E+01 0. -1.
        -11    1    6    6    0    0  0.11168452544E+02 -0.12204487627E+00 -0.17153121808E+02  0.20468972006E+02  0.00000000000E+00 0.  1.
         12    1    6    6    0    0 -0.75919488610E+02  0.12806653518E+02  0.54582417507E+02  0.94377006871E+02  0.00000000000E+00 0. -1.
         -5    1    3    3    0  503  0.20094998875E+03  0.60591857676E+02  0.99299116923E+02  0.23223840298E+03  0.47000000000E+01 0.  1.
         11    1    4    4    0    0  0.41729621013E+02 -0.31210399867E+02  0.10872552244E+03  0.12056819464E+03  0.00000000000E+00 0. -1.
        -12    1    4    4    0    0  0.21070596995E+02  0.18994810181E+02 -0.49656224777E+00  0.28372864600E+02  0.00000000000E+00 0.  1.
</event>
<event>
12    1  0.1066489E+000  0.2328484E+03  0.7818608E-02  0.1124940E+00
         21   -1    0    0  501  502  0.00000000000E+00  0.00000000000E+00  0.63268540956E+02  0.63268540956E+02  0.00000000000E+00 0.  1.
         21   -1    0    0  502  503 -0.00000000000E+00 -0.00000000000E+00 -0.10343085010E+04  0.10343085010E+04  0.00000000000E+00 0.  1.
         -6    2    1    2    0  503  0.92813435781E+02  0.12526782863E+03 -0.71807996385E+03  0.75488887685E+03  0.17295091547E+03 0.  0.
        -24    2    3    3    0    0  0.80183448929E+02  0.14223139962E+03 -0.44310398660E+03  0.47906074672E+03  0.80615752724E+02 0.  0.
          6    2    1    2  501    0 -0.92813435781E+02 -0.12526782863E+03 -0.25295999624E+03  0.34268816515E+03  0.17070458718E+03 0.  0.
         24    2    5    5    0    0 -0.83278625820E+02 -0.60860655102E+02 -0.24399010515E+03  0.27679624190E+03  0.80284738679E+02 0.  0.
          5    1    5    5  501    0 -0.95348099614E+01 -0.64407173531E+02 -0.89698910980E+01  0.65891923250E+02  0.47000000000E+01 0. -1.
        -13    1    6    6    0    0  0.11797937108E+02 -0.23692497739E+02 -0.32154251193E+02  0.41646388065E+02  0.00000000000E+00 0.  1.
         14    1    6    6    0    0 -0.95076562927E+02 -0.37168157363E+02 -0.21183585395E+03  0.23514985384E+03  0.00000000000E+00 0. -1.
         -5    1    3    3    0  503  0.12629986852E+02 -0.16963570986E+02 -0.27497597725E+03  0.27582813013E+03  0.47000000000E+01 0.  1.
         13    1    4    4    0    0  0.60605971784E+02  0.32032409801E+02 -0.13829891234E+03  0.15435591420E+03  0.00000000000E+00 0. -1.
        -14    1    4    4    0    0  0.19577477145E+02  0.11019898982E+03 -0.30480507426E+03  0.32470483252E+03  0.00000000000E+00 0.  1.
</event>
<event>
12    1  0.1066489E+000  0.1743708E+03  0.7818608E-02  0.1173742E+00
         21   -1    0    0  501  502  0.00000000000E+00  0.00000000000E+00  0.53993669658E+02  0.53993669658E+02  0.00000000000E+00 0.  1.
         21   -1    0    0  502  503 -0.00000000000E+00 -0.00000000000E+00 -0.68768155152E+03  0.68768155152E+03  0.00000000000E+00 0.  1.
         -6    2    1    2    0  503 -0.16366437759E+02 -0.80242590719E+01 -0.15490654901E+03  0.23212961342E+03  0.17191820579E+03 0.  0.
        -24    2    3    3    0    0  0.52636203265E+02 -0.17338190418E+02 -0.12273430389E+03  0.15528394248E+03  0.77318889677E+02 0.  0.
          6    2    1    2  501    0  0.16366437759E+02  0.80242590719E+01 -0.47878133285E+03  0.50954560776E+03  0.17341543379E+03 0.  0.
         24    2    5    5    0    0  0.45019868086E+02 -0.16528173552E+02 -0.45555233296E+03  0.46498646220E+03  0.79903147087E+02 0.  0.
          5    1    5    5  501    0 -0.28653430326E+02  0.24552432624E+02 -0.23228999890E+02  0.44559145561E+02  0.47000000000E+01 0. -1.
        -13    1    6    6    0    0 -0.15893685388E+02  0.16452701981E+02 -0.14577685165E+03  0.14756080480E+03  0.00000000000E+00 0.  1.
         14    1    6    6    0    0  0.60913553474E+02 -0.32980875532E+02 -0.30977548132E+03  0.31742565740E+03  0.00000000000E+00 0. -1.
         -5    1    3    3    0  503 -0.69002641025E+02  0.93139313458E+01 -0.32172245117E+02  0.76845670934E+02  0.47000000000E+01 0.  1.
         11    1    4    4    0    0  0.26131081377E+02 -0.47966311507E+02 -0.70029910649E+02  0.88813224460E+02  0.00000000000E+00 0. -1.
        -12    1    4    4    0    0  0.26505121888E+02  0.30628121089E+02 -0.52704393242E+02  0.66470718025E+02  0.00000000000E+00 0.  1.
</event>
<event>
12    1  0.1066489E+000  0.3752487E+03  0.7818608E-02  0.1052775E+00
         21   -1    0    0  503  502  0.00000000000E+00  0.00000000000E+00  0.15354039099E+03  0.15354039099E+03  0.00000000000E+00 0. -1.
         21   -1    0    0  501  503 -0.00000000000E+00 -0.00000000000E+00 -0.10377678987E+04  0.10377678987E+04  0.00000000000E+00 0. -1.
          6    2    1    2  501    0  0.31556959383E+03  0.97748838781E+02 -0.23784693644E+03  0.44427775221E+03  0.17796783952E+03 0.  0.
         24    2    3    3    0    0  0.22241351054E+03  0.44465490525E+02 -0.23577002398E+03  0.33683672364E+03  0.80165607745E+02 0.  0.
         -6    2    1    2    0  502 -0.31556959383E+03 -0.97748838781E+02 -0.64638057128E+03  0.74703053747E+03  0.17637396906E+03 0.  0.
        -24    2    5    5    0    0 -0.28668746790E+03 -0.75534587134E+02 -0.43431171539E+03  0.53180289099E+03  0.79325094607E+02 0.  0.
          5    1    3    3  501    0  0.93156083295E+02  0.53283348256E+02 -0.20769124588E+01  0.10744102858E+03  0.47000000000E+01 0. -1.
        -13    1    4    4    0    0  0.17857460704E+03  0.42854500979E+02 -0.13812820407E+03  0.22979294875E+03  0.00000000000E+00 0.  1.
         14    1    4    4    0    0  0.43838903495E+02  0.16109895460E+01 -0.97641819910E+02  0.10704377489E+03  0.00000000000E+00 0. -1.
         -5    1    5    5    0  502 -0.28882125930E+02 -0.22214251646E+02 -0.21206885589E+03  0.21522764648E+03  0.47000000000E+01 0.  1.
         13    1    6    6    0    0 -0.14427816892E+02 -0.95229361399E+01 -0.70718806211E+02  0.72801083542E+02  0.00000000000E+00 0. -1.
        -14    1    6    6    0    0 -0.27225965101E+03 -0.66011650994E+02 -0.36359290918E+03  0.45900180745E+03  0.00000000000E+00 0.  1.
</event>
<event>
12    1  0.1066489E+000  0.3234706E+03  0.7818608E-02  0.1074222E+00
         21   -1    0    0  501  502  0.00000000000E+00  0.00000000000E+00  0.31246916907E+03  0.31246916907E+03  0.00000000000E+00 0. -1.
         21   -1    0    0  502  503 -0.00000000000E+00 -0.00000000000E+00 -0.37399623416E+03  0.37399623416E+03  0.00000000000E+00 0.  1.
         -6    2    1    2    0  503  0.32371117546E+02 -0.27073639058E+03  0.82246036175E+02  0.33376286459E+03  0.17403205705E+03 0.  0.
        -24    2    3    3    0    0 -0.39950483571E+02 -0.19313585771E+03  0.31343293907E+02  0.21601127921E+03  0.82346645362E+02 0.  0.
          6    2    1    2  501    0 -0.32371117546E+02  0.27073639058E+03 -0.14377310126E+03  0.35270253864E+03  0.17141264155E+03 0.  0.
         24    2    5    5    0    0 -0.11208456823E+02  0.28313221039E+03 -0.14270691160E+03  0.32770771281E+03  0.82082911476E+02 0.  0.
          5    1    5    5  501    0 -0.21162660723E+02 -0.12395819808E+02 -0.10661896553E+01  0.24994825824E+02  0.47000000000E+01 0. -1.
        -11    1    6    6    0    0 -0.13088002783E+02  0.16479634549E+03 -0.37861425165E+02  0.16959545636E+03  0.00000000000E+00 0.  1.
         12    1    6    6    0    0  0.18795459599E+01  0.11833586490E+03 -0.10484548644E+03  0.15811225645E+03  0.00000000000E+00 0. -1.
         -5    1    3    3    0  503  0.72321601117E+02 -0.77600532868E+02  0.50902742268E+02  0.11775158538E+03  0.47000000000E+01 0.  1.
         11    1    4    4    0    0 -0.60855973918E+02 -0.12514418603E+03  0.22941636241E+01  0.13917535718E+03  0.00000000000E+00 0. -1.
        -12    1    4    4    0    0  0.20905490348E+02 -0.67991671676E+02  0.29049130283E+02  0.76835922030E+02  0.00000000000E+00 0.  1.
</event>
<event>
12    1  0.1066489E+000  0.3388022E+03  0.7818608E-02  0.1067368E+00
         21   -1    0    0  503  502  0.00000000000E+00  0.00000000000E+00  0.94757396250E+03  0.94757396250E+03  0.00000000000E+00 0.  1.
         21   -1    0    0  501  503 -0.00000000000E+00 -0.00000000000E+00 -0.14183320493E+03  0.14183320493E+03  0.00000000000E+00 0.  1.
          6    2    1    2  501    0  0.18649087725E+03 -0.22355570498E+03  0.19407151797E+03  0.39044932679E+03  0.17329432240E+03 0.  0.
         24    2    3    3    0    0  0.31069789292E+02 -0.12657120506E+03  0.11962624877E+03  0.19264665767E+03  0.76267250879E+02 0.  0.
         -6    2    1    2    0  502 -0.18649087725E+03  0.22355570498E+03  0.61166923959E+03  0.69895784064E+03  0.17218247242E+03 0.  0.
        -24    2    5    5    0    0 -0.86023953048E+02  0.10929380848E+03  0.17841487669E+03  0.23974022685E+03  0.79361521360E+02 0.  0.
          5    1    3    3  501    0  0.15542108796E+03 -0.96984499918E+02  0.74445269198E+02  0.19780266912E+03  0.47000000000E+01 0. -1.
        -11    1    4    4    0    0  0.35180271115E+02 -0.22794457397E+02  0.13215722443E+02  0.43953317093E+02  0.00000000000E+00 0.  1.
         12    1    4    4    0    0 -0.41104818237E+01 -0.10377674766E+03  0.10641052633E+03  0.14869334057E+03  0.00000000000E+00 0. -1.
         -5    1    5    5    0  502 -0.10046692420E+03  0.11426189649E+03  0.43325436290E+03  0.45921761379E+03  0.47000000000E+01 0.  1.
         11    1    6    6    0    0 -0.90175057069E+02  0.79298940287E+02  0.17032082556E+03  0.20839636865E+03  0.00000000000E+00 0. -1.
        -12    1    6    6    0    0  0.41511040209E+01  0.29994868198E+02  0.80940511314E+01  0.31343858194E+02  0.00000000000E+00 0.  1.
</event>
<event>
12    1  0.1066489E+000  0.3053924E+03  0.7818608E-02  0.1082801E+00
         21   -1    0    0  501  502  0.00000000000E+00  0.00000000000E+00  0.92995652634E+03  0.92995652634E+03  0.00000000000E+00 0.  1.
         21   -1    0    0  502  503 -0.00000000000E+00 -0.00000000000E+00 -0.11306927412E+03  0.11306927412E+03  0.00000000000E+00 0.  1.
         -6    2    1    2    0  503  0.86294141006E+02  0.23560984809E+03  0.58678033835E+03  0.66064675985E+03  0.17083411997E+03 0.  0.
        -24    2    3    3    0    0 -0.30333239681E+01  0.14867548561E+03  0.25803687675E+03  0.30903428436E+03  0.82495806392E+02 0.  0.
          6    2    1    2  501    0 -0.86294141006E+02 -0.23560984809E+03  0.23010691387E+03  0.38237904061E+03  0.17408578230E+03 0.  0.
         24    2    5    5    0    0 -0.87690948777E+01 -0.20395568597E+03  0.14911201166E+03  0.26578408814E+03  0.82048586980E+02 0.  0.
          5    1    5    5  501    0 -0.77525046129E+02 -0.31654162122E+02  0.80994902216E+02  0.11659495247E+03  0.47000000000E+01 0. -1.
        -11    1    6    6    0    0  0.32981281125E+02 -0.47740359095E+02  0.45509481191E+02  0.73742929623E+02  0.00000000000E+00 0.  1.
         12    1    6    6    0    0 -0.41750376002E+02 -0.15621532687E+03  0.10360253047E+03  0.19204115852E+03  0.00000000000E+00 0. -1.
         -5    1    3    3    0  503  0.89327464974E+02  0.86934362476E+02  0.32874346160E+03  0.35161247549E+03  0.47000000000E+01 0.  1.
         11    1    4    4    0    0 -0.22102137419E+02  0.96785337317E+02  0.97103747924E+02  0.13887060113E+03  0.00000000000E+00 0. -1.
        -12    1    4    4    0    0  0.19068813451E+02  0.51890148293E+02  0.16093312883E+03  0.17016368323E+03  0.00000000000E+00 0.  1.
</event>
<event>
12    1  0.1066489E+000  0.2441499E+03  0.7818608E-02  0.1117266E+00
         21   -1    0    0  503  502  0.00000000000E+00  0.00000000000E+00  0.37142717667E+03  0.37142717667E+03  0.00000000000E+00 0.  1.
         21   -1    0    0  501  503 -0.00000000000E+00 -0.00000000000E+00 -0.24746754004E+03  0.24746754004E+03  0.00000000000E+00 0.  1.
          6    2    1    2  501    0  0.15144080967E+03 -0.84203332389E+02  0.24641720963E+03  0.34688705874E+03  0.17200194855E+03 0.  0.
         24    2    3    3    0    0  0.39587485890E+02 -0.57792673048E+02  0.19516151897E+03  0.22095880618E+03  0.76338806947E+02 0.  0.
         -6    2    1    2    0  502 -0.15144080967E+03  0.84203332389E+02 -0.12245757300E+03  0.27200765797E+03  0.17019926200E+03 0.  0.
        -24    2    5    5    0    0 -0.22934677177E+02  0.61325488231E+02 -0.17172944788E+02  0.10424543105E+03  0.79280419636E+02 0.  0.
          5    1    3    3  501    0  0.11185332378E+03 -0.26410659340E+02  0.51255690657E+02  0.12592825256E+03  0.47000000000E+01 0. -1.
        -13    1    4    4    0    0 -0.15962470040E+02  0.29948468540E+01  0.12176133269E+02  0.20298467402E+02  0.00000000000E+00 0.  1.
         14    1    4    4    0    0  0.55549955930E+02 -0.60787519902E+02  0.18298538570E+03  0.20066033878E+03  0.00000000000E+00 0. -1.
         -5    1    5    5    0  502 -0.12850613250E+03  0.22877844158E+02 -0.10528462822E+03  0.16776222692E+03  0.47000000000E+01 0.  1.
         11    1    6    6    0    0 -0.19416131456E+02  0.56379631890E+02 -0.45669932991E+02  0.75109199384E+02  0.00000000000E+00 0. -1.
        -12    1    6    6    0    0 -0.35185457217E+01  0.49458563414E+01  0.28496988203E+02  0.29136231664E+02  0.00000000000E+00 0.  1.
</event>
<event>
12    1  0.1066489E+000  0.1994996E+03  0.7818608E-02  0.1150555E+00
         21   -1    0    0  503  502  0.00000000000E+00  0.00000000000E+00  0.66418399196E+02  0.66418399196E+02  0.00000000000E+00 0.  1.
         21   -1    0    0  501  503 -0.00000000000E+00 -0.00000000000E+00 -0.66725455852E+03  0.66725455852E+03  0.00000000000E+00 0.  1.
          6    2    1    2  501    0  0.86305237462E+02  0.53197437283E+02 -0.17986497462E+03  0.26861030842E+03  0.17181829749E+03 0.  0.
         24    2    3    3    0    0  0.64389328902E+02  0.68845238397E+02 -0.19974349279E+03  0.23481080824E+03  0.79705710126E+02 0.  0.
         -6    2    1    2    0  502 -0.86305237462E+02 -0.53197437283E+02 -0.42097118471E+03  0.46506264929E+03  0.16967017435E+03 0.  0.
        -24    2    5    5    0    0 -0.90748945478E+02 -0.26257105956E+02 -0.41943486569E+03  0.43731416701E+03  0.79957910096E+02 0.  0.
          5    1    3    3  501    0  0.21915908560E+02 -0.15647801113E+02  0.19878518178E+02  0.33799500183E+02  0.47000000000E+01 0. -1.
        -11    1    4    4    0    0 -0.14414339585E+02  0.19569361570E+02 -0.16596780213E+02  0.29431041629E+02  0.00000000000E+00 0.  1.
         12    1    4    4    0    0  0.78803668488E+02  0.49275876827E+02 -0.18314671258E+03  0.20537976661E+03  0.00000000000E+00 0. -1.
         -5    1    5    5    0  502  0.44437080158E+01 -0.26940331327E+02 -0.15363190148E+01  0.27748482284E+02  0.47000000000E+01 0.  1.
         13    1    6    6    0    0 -0.19831673234E+02  0.14734570375E+02 -0.27744306893E+02  0.37150361942E+02  0.00000000000E+00 0. -1.
        -14    1    6    6    0    0 -0.70917272244E+02 -0.40991676331E+02 -0.39169055880E+03  0.40016380507E+03  0.00000000000E+00 0.  1.
</event>
<event>
12    1  0.1066489E+000  0.1921900E+03  0.7818608E-02  0.1156601E+00
         21   -1    0    0  501  502  0.00000000000E+00  0.00000000000E+00  0.64714147392E+02  0.64714147392E+02  0.00000000000E+00 0.  1.
         21   -1    0    0  502  503 -0.00000000000E+00 -0.00000000000E+00 -0.91067280144E+03  0.91067280144E+03  0.00000000000E+00 0.  1.
         -6    2    1    2    0  503  0.31337898702E+02  0.76499341859E+02 -0.12475496109E+03  0.22913052591E+03  0.17350154001E+03 0.  0.
        -24    2    3    3    0    0 -0.39929799256E+02  0.79328085769E+02 -0.60317234008E+02  0.13289437243E+03  0.78328867248E+02 0.  0.
          6    2    1    2  501    0 -0.31337898702E+02 -0.76499341859E+02 -0.72120369296E+03  0.74625642293E+03  0.17300193301E+03 0.  0.
         24    2    5    5    0    0  0.43491495611E+02 -0.14648103905E+02 -0.30112440168E+03  0.31507929593E+03  0.80579031359E+02 0.  0.
          5    1    5    5  501    0 -0.74829394313E+02 -0.61851237955E+02 -0.42007929128E+03  0.43117712701E+03  0.47000000000E+01 0. -1.
        -13    1    6    6    0    0 -0.97478601467E+01  0.24199682367E+02 -0.68536115138E+02  0.73333788136E+02  0.00000000000E+00 0.  1.
         14    1    6    6    0    0  0.53239355758E+02 -0.38847786272E+02 -0.23258828654E+03  0.24174550779E+03  0.00000000000E+00 0. -1.
         -5    1    3    3    0  503  0.71267697959E+02 -0.28287439101E+01 -0.64437727082E+02  0.96236153476E+02  0.47000000000E+01 0.  1.
         11    1    4    4    0    0 -0.47218189813E+01  0.59520625244E+02  0.70532716670E+00  0.59711790213E+02  0.00000000000E+00 0. -1.
        -12    1    4    4    0    0 -0.35207980275E+02  0.19807460525E+02 -0.61022561175E+02  0.73182582216E+02  0.00000000000E+00 0.  1.
</event>
<event>
12    1  0.1066489E+000  0.1995916E+03  0.7818608E-02  0.1151815E+00
         21   -1    0    0  501  502  0.00000000000E+00  0.00000000000E+00  0.20052717689E+03  0.20052717689E+03  0.00000000000E+00 0.  1.
         21   -1    0    0  502  503 -0.00000000000E+00 -0.00000000000E+00 -0.20566752608E+03  0.20566752608E+03  0.00000000000E+00 0.  1.
         -6    2    1    2    0  503 -0.73520684283E+02  0.38975031601E+02 -0.57172098615E+02  0.19993250435E+03  0.17256886548E+03 0.  0.
        -24    2    3    3    0    0 -0.70794142928E+02  0.51221420750E+02  0.21153629642E+02  0.12046919344E+03  0.80186694056E+02 0.  0.
          6    2    1    2  501    0  0.73520684283E+02 -0.38975031601E+02  0.52031749425E+02  0.20626219861E+03  0.18141788093E+03 0.  0.
         24    2    5    5    0    0 -0.20253107907E+02  0.23459951067E+02  0.78261122421E+01  0.85151177141E+02  0.78923489860E+02 0.  0.
          5    1    5    5  501    0  0.93773792191E+02 -0.62434982669E+02  0.44205637183E+02  0.12111102147E+03  0.47000000000E+01 0. -1.
        -13    1    6    6    0    0 -0.42883977770E+02  0.97151960459E+01  0.27767197487E+02  0.52004209828E+02  0.00000000000E+00 0.  1.
         14    1    6    6    0    0  0.22630869863E+02  0.13744755021E+02 -0.19941085244E+02  0.33146967313E+02  0.00000000000E+00 0. -1.
         -5    1    3    3    0  503 -0.27265413550E+01 -0.12246389149E+02 -0.78325728257E+02  0.79463310917E+02  0.47000000000E+01 0.  1.
         13    1    4    4    0    0 -0.54595607846E+02  0.13714454285E+01  0.36697559832E+02  0.65797204776E+02  0.00000000000E+00 0. -1.
        -14    1    4    4    0    0 -0.16198535082E+02  0.49849975322E+02 -0.15543930190E+02  0.54671988661E+02  0.00000000000E+00 0.  1.
</event>
<event>
12    1  0.1066489E+000  0.1849419E+03  0.7818608E-02  0.1163544E+00
         21   -1    0    0  501  502  0.00000000000E+00  0.00000000000E+00  0.16385018543E+03  0.16385018543E+03  0.00000000000E+00 0. -1.
         21   -1    0    0  502  503 -0.00000000000E+00 -0.00000000000E+00 -0.21340707816E+03  0.21340707816E+03  0.00000000000E+00 0. -1.
         -6    2    1    2    0  503 -0.59606930272E+02  0.27236779840E+02 -0.58250476084E+02  0.19211110021E+03  0.17093486638E+03 0.  0.
        -24    2    3    3    0    0 -0.69343485740E+01 -0.21969130302E+02  0.19759676902E+02  0.85794138132E+02  0.80246254929E+02 0.  0.
          6    2    1    2  501    0  0.59606930272E+02 -0.27236779840E+02  0.86935833544E+01  0.18514616338E+03  0.17294130539E+03 0.  0.
         24    2    5    5    0    0 -0.35996356225E+01 -0.70790460453E+02 -0.42377645689E+01  0.10716345487E+03  0.80260829446E+02 0.  0.
          5    1    5    5  501    0  0.63206565895E+02  0.43553680612E+02  0.12931347923E+02  0.77982708508E+02  0.47000000000E+01 0. -1.
        -13    1    6    6    0    0 -0.41619905583E+02 -0.43820410511E+02 -0.36400953423E+01  0.60544985030E+02  0.00000000000E+00 0.  1.
         14    1    6    6    0    0  0.38020269961E+02 -0.26970049941E+02 -0.59766922665E+00  0.46618469840E+02  0.00000000000E+00 0. -1.
         -5    1    3    3    0  503 -0.52672581698E+02  0.49205910142E+02 -0.78010152986E+02  0.10631696207E+03  0.47000000000E+01 0.  1.
         11    1    4    4    0    0 -0.26492173105E+01 -0.36201679527E+02 -0.21327977407E+02  0.42100624380E+02  0.00000000000E+00 0. -1.
        -12    1    4    4    0    0 -0.42851312635E+01  0.14232549226E+02  0.41087654308E+02  0.43693513752E+02  0.00000000000E+00 0.  1.
</event>
<event>
12    1  0.1066489E+000  0.2365484E+03  0.7818608E-02  0.1122605E+00
         21   -1    0    0  501  502  0.00000000000E+00  0.00000000000E+00  0.82437928118E+03  0.82437928118E+03  0.00000000000E+00 0. -1.
         21   -1    0    0  502  503 -0.00000000000E+00 -0.00000000000E+00 -0.68429498443E+02  0.68429498443E+02  0.00000000000E+00 0. -1.
         -6    2    1    2    0  503 -0.16130103301E+03  0.17509563056E+01  0.31238598460E+03  0.39011207757E+03  0.16906016856E+03 0.  0.
        -24    2    3    3    0    0 -0.50252384877E+02  0.51633511357E+02  0.10864933246E+03  0.15272887477E+03  0.79561988797E+02 0.  0.
          6    2    1    2  501    0  0.16130103301E+03 -0.17509563056E+01  0.44356379814E+03  0.50269670205E+03  0.17301457204E+03 0.  0.
         24    2    5    5    0    0  0.17133843554E+03 -0.47345662127E+01  0.27331049327E+03  0.33205693765E+03  0.78637831203E+02 0.  0.
          5    1    5    5  501    0 -0.10037402534E+02  0.29836099072E+01  0.17025330487E+03  0.17063976441E+03  0.47000000000E+01 0. -1.
        -11    1    6    6    0    0  0.97269377361E+02 -0.35092652107E+02  0.11496611362E+03  0.15462869489E+03  0.00000000000E+00 0.  1.
         12    1    6    6    0    0  0.74069058183E+02  0.30358085894E+02  0.15834437965E+03  0.17742824275E+03  0.00000000000E+00 0. -1.
         -5    1    3    3    0  503 -0.11104864813E+03 -0.49882555052E+02  0.20373665214E+03  0.23738320281E+03  0.47000000000E+01 0.  1.
         11    1    4    4    0    0  0.19441963590E+02  0.15603179208E+01  0.98099389962E+01  0.21832531767E+02  0.00000000000E+00 0. -1.
        -12    1    4    4    0    0 -0.69694348468E+02  0.50073193437E+02  0.98839393468E+02  0.13089634300E+03  0.00000000000E+00 0.  1.
</event>
<event>
12    1  0.1066489E+000  0.1754156E+03  0.7818608E-02  0.1172567E+00
         21   -1    0    0  501  502  0.00000000000E+00  0.00000000000E+00  0.18194032361E+03  0.18194032361E+03  0.00000000000E+00 0.  1.
         21   -1    0    0  502  503 -0.00000000000E+00 -0.00000000000E+00 -0.19462204901E+03  0.19462204901E+03  0.00000000000E+00 0.  1.
         -6    2    1    2    0  503 -0.29144023901E+02  0.11106526162E+02  0.63072032719E+02  0.18641003540E+03  0.17262065616E+03 0.  0.
        -24    2    3    3    0    0 -0.58854794347E+02  0.49521296973E+02  0.74129224582E+02  0.13638228321E+03  0.84786435035E+02 0.  0.
          6    2    1    2  501    0  0.29144023901E+02 -0.11106526162E+02 -0.75753758114E+02  0.19015233722E+03  0.17159997211E+03 0.  0.
         24    2    5    5    0    0  0.66492860420E+02 -0.38539440092E+02 -0.14368676076E+02  0.11309574339E+03  0.81716579659E+02 0.  0.
          5    1    5    5  501    0 -0.37348836518E+02  0.27432913930E+02 -0.61385082038E+02  0.77056593830E+02  0.47000000000E+01 0. -1.
        -13    1    6    6    0    0 -0.15894678603E+01 -0.35223266912E+02 -0.26181479651E+02  0.43916680394E+02  0.00000000000E+00 0.  1.
         14    1    6    6    0    0  0.68082328280E+02 -0.33161731796E+01  0.11812803575E+02  0.69179062995E+02  0.00000000000E+00 0. -1.
         -5    1    3    3    0  503  0.29710770445E+02 -0.38414770811E+02 -0.11057191863E+02  0.50027752186E+02  0.47000000000E+01 0.  1.
         13    1    4    4    0    0 -0.46575684922E+02  0.69129946399E+02  0.33922817130E+02  0.89994452258E+02  0.00000000000E+00 0. -1.
        -14    1    4    4    0    0 -0.12279109425E+02 -0.19608649427E+02  0.40206407452E+02  0.46387830956E+02  0.00000000000E+00 0.  1.
</event>
<event>
12    1  0.1066489E+000  0.4965705E+03  0.7818608E-02  0.1014704E+00
         21   -1    0    0  503  502  0.00000000000E+00  0.00000000000E+00  0.46318600444E+03  0.46318600444E+03  0.00000000000E+00 0.  1.
         21   -1    0    0  501  503 -0.00000000000E+00 -0.00000000000E+00 -0.54296201580E+03  0.54296201580E+03  0.00000000000E+00 0. -1.
          6    2    1    2  501    0  0.11024025222E+02 -0.46531656123E+03  0.31806510878E+02  0.49719525141E+03  0.17190239264E+03 0.  0.
         24    2    3    3    0    0  0.80933393344E+01 -0.40763240094E+03  0.78051514439E+02  0.42305523776E+03  0.81572169602E+02 0.  0.
         -6    2    1    2    0  502 -0.11024025222E+02  0.46531656123E+03 -0.11158252223E+03  0.50895276884E+03  0.17303534421E+03 0.  0.
        -24    2    5    5    0    0 -0.44046215658E+02  0.12652040762E+03 -0.42243406099E+02  0.16152896166E+03  0.79747209598E+02 0.  0.
          5    1    3    3  501    0  0.29306858880E+01 -0.57684160295E+02 -0.46245003562E+02  0.74140013644E+02  0.47000000000E+01 0. -1.
        -13    1    4    4    0    0  0.11802095077E+02 -0.32893255870E+03  0.29394081386E+02  0.33045412638E+03  0.00000000000E+00 0.  1.
         14    1    4    4    0    0 -0.37087557423E+01 -0.78699842241E+02  0.48657433053E+02  0.92601111382E+02  0.00000000000E+00 0. -1.
         -5    1    5    5    0  502  0.33022190436E+02  0.33879615361E+03 -0.69339116130E+02  0.34742380717E+03  0.47000000000E+01 0.  1.
         11    1    6    6    0    0  0.23271779011E+02  0.26995254072E+02 -0.12251070204E+02  0.37688302719E+02  0.00000000000E+00 0. -1.
        -12    1    6    6    0    0 -0.67317994668E+02  0.99525153549E+02 -0.29992335895E+02  0.12384065894E+03  0.00000000000E+00 0.  1.
</event>
<event>
12    1  0.1066489E+000  0.1725052E+03  0.7818608E-02  0.1175610E+00
         21   -1    0    0  501  502  0.00000000000E+00  0.00000000000E+00  0.13743118055E+03  0.13743118055E+03  0.00000000000E+00 0. -1.
         21   -1    0    0  502  503 -0.00000000000E+00 -0.00000000000E+00 -0.25083003172E+03  0.25083003172E+03  0.00000000000E+00 0. -1.
         -6    2    1    2    0  503  0.81083247607E+01 -0.15340243607E+02  0.17045628721E+02  0.17198870646E+03  0.17026007661E+03 0.  0.
        -24    2    3    3    0    0  0.64546568828E+02 -0.35244453007E+02 -0.30817968481E+01  0.10867475693E+03  0.79951699839E+02 0.  0.
          6    2    1    2  501    0 -0.81083247607E+01  0.15340243607E+02 -0.13044447989E+03  0.21627250580E+03  0.17163031908E+03 0.  0.
         24    2    5    5    0    0 -0.65003922078E+02  0.36140926526E+02 -0.73178852433E+02  0.13277867674E+03  0.82117940165E+02 0.  0.
          5    1    5    5  501    0  0.56895597317E+02 -0.20800682919E+02 -0.57265627456E+02  0.83493829065E+02  0.47000000000E+01 0. -1.
        -11    1    6    6    0    0 -0.17224467449E+02 -0.61169751841E+00 -0.70352393243E+02  0.72432835701E+02  0.00000000000E+00 0.  1.
         12    1    6    6    0    0 -0.47779454629E+02  0.36752624045E+02 -0.28264591903E+01  0.60345841036E+02  0.00000000000E+00 0. -1.
         -5    1    3    3    0  503 -0.56438244067E+02  0.19904209400E+02  0.20127425569E+02  0.63313949532E+02  0.47000000000E+01 0.  1.
         13    1    4    4    0    0 -0.10440194775E+02  0.67037974167E+01 -0.17600710888E+02  0.21534242278E+02  0.00000000000E+00 0. -1.
        -14    1    4    4    0    0  0.74986763603E+02 -0.41948250424E+02  0.14518914040E+02  0.87140514654E+02  0.00000000000E+00 0.  1.
</event>
<event>
12    1  0.1066489E+000  0.2070525E+03  0.7818608E-02  0.1143996E+00
         21   -1    0    0  501  502  0.00000000000E+00  0.00000000000E+00  0.22318082797E+03  0.22318082797E+03  0.00000000000E+00 0.  1.
         21   -1    0    0  502  503 -0.00000000000E+00 -0.00000000000E+00 -0.24594929855E+03  0.24594929855E+03  0.00000000000E+00 0.  1.
         -6    2    1    2    0  503 -0.76134607040E+02 -0.88134672075E+02  0.98739360691E+02  0.22905746434E+03  0.17074443420E+03 0.  0.
        -24    2    3    3    0    0 -0.84829871804E+02 -0.10340470602E+02  0.20318189235E+02  0.11815428339E+03  0.79022613142E+02 0.  0.
          6    2    1    2  501    0  0.76134607040E+02  0.88134672075E+02 -0.12150783126E+03  0.24007266218E+03  0.17119150463E+03 0.  0.
         24    2    5    5    0    0  0.82097190817E+02  0.68255774884E+01 -0.73101329147E+02  0.14514110412E+03  0.94528294888E+02 0.  0.
          5    1    5    5  501    0 -0.59625837778E+01  0.81309094586E+02 -0.48406502117E+02  0.94931558056E+02  0.47000000000E+01 0. -1.
        -11    1    6    6    0    0  0.35162021110E+02  0.15586328517E+02  0.17863158361E+02  0.42407473301E+02  0.00000000000E+00 0.  1.
         12    1    6    6    0    0  0.46935169708E+02 -0.87607510287E+01 -0.90964487508E+02  0.10273363082E+03  0.00000000000E+00 0. -1.
         -5    1    3    3    0  503  0.86952647644E+01 -0.77794201473E+02  0.78421171456E+02  0.11090318095E+03  0.47000000000E+01 0.  1.
         13    1    4    4    0    0 -0.49309877526E+02 -0.23631597619E+02  0.46738675018E+02  0.71933442640E+02  0.00000000000E+00 0. -1.
        -14    1    4    4    0    0 -0.35519994278E+02  0.13291127018E+02 -0.26420485783E+02  0.46220840753E+02  0.00000000000E+00 0.  1.
</event>
<event>
12    1  0.1066489E+000  0.1782293E+03  0.7818608E-02  0.1170147E+00
         21   -1    0    0  501  502  0.00000000000E+00  0.00000000000E+00  0.25615080992E+03  0.25615080992E+03  0.00000000000E+00 0. -1.
         21   -1    0    0  502  503 -0.00000000000E+00 -0.00000000000E+00 -0.13730024766E+03  0.13730024766E+03  0.00000000000E+00 0. -1.
         -6    2    1    2    0  503  0.19069816917E+02  0.35866004587E+02  0.12413236278E+03  0.21514352024E+03  0.17096158226E+03 0.  0.
        -24    2    3    3    0    0  0.73169692812E+02  0.42587753555E+02  0.56486341173E+02  0.12813747033E+03  0.77852320868E+02 0.  0.
          6    2    1    2  501    0 -0.19069816917E+02 -0.35866004587E+02 -0.52818005325E+01  0.17830753734E+03  0.17353861891E+03 0.  0.
         24    2    5    5    0    0 -0.17692312814E+02  0.95485175053E+01  0.40317576685E+02  0.11376476441E+03  0.10446397711E+03 0.  0.
          5    1    5    5  501    0 -0.13775041035E+01 -0.45414522093E+02 -0.45599377218E+02  0.64542772927E+02  0.47000000000E+01 0. -1.
        -13    1    6    6    0    0  0.34357282978E+02 -0.26169953111E+02  0.14424421992E+02  0.45534089310E+02  0.00000000000E+00 0.  1.
         14    1    6    6    0    0 -0.52049595791E+02  0.35718470617E+02  0.25893154693E+02  0.68230675104E+02  0.00000000000E+00 0. -1.
         -5    1    3    3    0  503 -0.54099875895E+02 -0.67217489673E+01  0.67646021611E+02  0.87006049909E+02  0.47000000000E+01 0.  1.
         13    1    4    4    0    0  0.42607051249E+02  0.19585362528E+02 -0.13136896995E+02  0.48698309049E+02  0.00000000000E+00 0. -1.
        -14    1    4    4    0    0  0.30562641562E+02  0.23002391026E+02  0.69623238168E+02  0.79439161282E+02  0.00000000000E+00 0.  1.
</event>
<event>
12    1  0.1066489E+000  0.2950371E+03  0.7818608E-02  0.1087947E+00
         21   -1    0    0  501  502  0.00000000000E+00  0.00000000000E+00  0.46772751991E+03  0.46772751991E+03  0.00000000000E+00 0. -1.
         21   -1    0    0  502  503 -0.00000000000E+00 -0.00000000000E+00 -0.30096530080E+03  0.30096530080E+03  0.00000000000E+00 0. -1.
         -6    2    1    2    0  503 -0.12742588944E+02  0.23929904997E+03 -0.15519995189E+03  0.33199323140E+03  0.16942866268E+03 0.  0.
        -24    2    3    3    0    0 -0.27959006799E+02  0.41344903182E+02 -0.42805231210E+02  0.10380022791E+03  0.80318692817E+02 0.  0.
          6    2    1    2  501    0  0.12742588944E+02 -0.23929904997E+03  0.32196217100E+03  0.43669958932E+03  0.17210602217E+03 0.  0.
         24    2    5    5    0    0  0.65788564039E+02 -0.15393053678E+03  0.15805765937E+03  0.24437580647E+03  0.81942454132E+02 0.  0.
          5    1    5    5  501    0 -0.53045975095E+02 -0.85368513182E+02  0.16390451163E+03  0.19232378285E+03  0.47000000000E+01 0. -1.
        -11    1    6    6    0    0  0.23861853926E+02 -0.68567897797E+02  0.17522964693E+02  0.74686002522E+02  0.00000000000E+00 0.  1.
         12    1    6    6    0    0  0.41926710113E+02 -0.85362638986E+02  0.14053469468E+03  0.16968980395E+03  0.00000000000E+00 0. -1.
         -5    1    3    3    0  503  0.15216417855E+02  0.19795414678E+03 -0.11239472068E+03  0.22819300348E+03  0.47000000000E+01 0.  1.
         11    1    4    4    0    0 -0.33032263305E+02  0.37661520410E+02 -0.64242251928E+02  0.81465253154E+02  0.00000000000E+00 0. -1.
        -12    1    4    4    0    0  0.50732565068E+01  0.36833827722E+01  0.21437020719E+02  0.22334974760E+02  0.00000000000E+00 0.  1.
</event>
<event>
12    1  0.1066489E+000  0.2479188E+03  0.7818608E-02  0.1114676E+00
         21   -1    0    0  503  502  0.00000000000E+00  0.00000000000E+00  0.58168257836E+03  0.58168257836E+03  0.00000000000E+00 0. -1.
         21   -1    0    0  501  503 -0.00000000000E+00 -0.00000000000E+00 -0.11802546901E+03  0.11802546901E+03  0.00000000000E+00 0. -1.
          6    2    1    2  501    0  0.17928785099E+03  0.44477471981E+01  0.34550763712E+03  0.42507554292E+03  0.17073304867E+03 0.  0.
         24    2    3    3    0    0  0.12863605585E+03 -0.10501064046E+01  0.11835301895E+03  0.19222979719E+03  0.79978248581E+02 0.  0.
         -6    2    1    2    0  502 -0.17928785099E+03 -0.44477471981E+01  0.11814947223E+03  0.27463250446E+03  0.17117183983E+03 0.  0.
        -24    2    5    5    0    0 -0.86217021500E+02 -0.63646276705E+02  0.59145051337E+02  0.14945160782E+03  0.85752099969E+02 0.  0.
          5    1    3    3  501    0  0.50651795142E+02  0.54978536028E+01  0.22715461817E+03  0.23284574572E+03  0.47000000000E+01 0. -1.
        -13    1    4    4    0    0  0.24384909339E+02  0.21641642490E+02  0.65496059082E+02  0.73162273396E+02  0.00000000000E+00 0.  1.
         14    1    4    4    0    0  0.10425114651E+03 -0.22691748895E+02  0.52856959868E+02  0.11906752380E+03  0.00000000000E+00 0. -1.
         -5    1    5    5    0  502 -0.93070829490E+02  0.59198529507E+02  0.59004420889E+02  0.12518089663E+03  0.47000000000E+01 0.  1.
         11    1    6    6    0    0 -0.10371030258E+02 -0.33444077900E+02 -0.15996814997E+02  0.38496268718E+02  0.00000000000E+00 0. -1.
        -12    1    6    6    0    0 -0.75845991242E+02 -0.30202198805E+02  0.75141866334E+02  0.11095533911E+03  0.00000000000E+00 0.  1.
</event>
<event>
12    1  0.1066489E+000  0.1770905E+03  0.7818608E-02  0.1171158E+00
         21   -1    0    0  503  502  0.00000000000E+00  0.00000000000E+00  0.19310904118E+03  0.19310904118E+03  0.00000000000E+00 0. -1.
         21   -1    0    0  501  503 -0.00000000000E+00 -0.00000000000E+00 -0.16106858614E+03  0.16106858614E+03  0.00000000000E+00 0. -1.
          6    2    1    2  501    0 -0.37362800178E+02 -0.18112287573E+02  0.26170351168E+02  0.17698989461E+03  0.17004852753E+03 0.  0.
         24    2    3    3    0    0 -0.18351808293E+02  0.24731223397E+02 -0.39490093599E+02  0.96179200689E+02  0.82113024999E+02 0.  0.
         -6    2    1    2    0  502  0.37362800178E+02  0.18112287573E+02  0.58701038642E+01  0.17718773271E+03  0.17215400288E+03 0.  0.
        -24    2    5    5    0    0 -0.13878638059E+02 -0.44856021813E+02 -0.76308514244E+01  0.94755586234E+02  0.81949447477E+02 0.  0.
          5    1    3    3  501    0 -0.19010991885E+02 -0.42843510970E+02  0.65660444767E+02  0.80810693919E+02  0.47000000000E+01 0. -1.
        -13    1    4    4    0    0  0.41720377816E+01  0.14800209602E+02  0.23763425476E+02  0.28304637321E+02  0.00000000000E+00 0.  1.
         14    1    4    4    0    0 -0.22523846075E+02  0.99310137943E+01 -0.63253519075E+02  0.67874563368E+02  0.00000000000E+00 0. -1.
         -5    1    5    5    0  502  0.51241438237E+02  0.62968309386E+02  0.13500955289E+02  0.82432146480E+02  0.47000000000E+01 0.  1.
         11    1    6    6    0    0 -0.25201038373E+02  0.17358123275E+02  0.25441245719E+01  0.30706177693E+02  0.00000000000E+00 0. -1.
        -12    1    6    6    0    0  0.11322400314E+02 -0.62214145088E+02 -0.10174975996E+02  0.64049408540E+02  0.00000000000E+00 0.  1.
</event>
<event>
12    1  0.1066489E+000  0.2452216E+03  0.7818608E-02  0.1116685E+00
         21   -1    0    0  501  502  0.00000000000E+00  0.00000000000E+00  0.11721616252E+04  0.11721616252E+04  0.00000000000E+00 0. -1.
         21   -1    0    0  502  503 -0.00000000000E+00 -0.00000000000E+00 -0.66166572009E+02  0.66166572009E+02  0.00000000000E+00 0.  1.
         -6    2    1    2    0  503 -0.16853452561E+03 -0.47604229543E+02  0.85226126900E+03  0.88683872627E+03  0.17164966292E+03 0.  0.
        -24    2    3    3    0    0 -0.14227793691E+03  0.27535828773E+02  0.58268803745E+03  0.60572086134E+03  0.79819669745E+02 0.  0.
          6    2    1    2  501    0  0.16853452561E+03  0.47604229543E+02  0.25373378422E+03  0.35148947097E+03  0.16880155791E+03 0.  0.
         24    2    5    5    0    0  0.13405145356E+02  0.21489693762E+02  0.69218023407E+02  0.10897091583E+03  0.80262200773E+02 0.  0.
          5    1    5    5  501    0  0.15512938025E+03  0.26114535781E+02  0.18451576081E+03  0.24251855513E+03  0.47000000000E+01 0. -1.
        -13    1    6    6    0    0  0.11622781382E+02 -0.28861213698E+02  0.40184100921E+02  0.50821458755E+02  0.00000000000E+00 0.  1.
         14    1    6    6    0    0  0.17823639738E+01  0.50350907461E+02  0.29033922486E+02  0.58149457077E+02  0.00000000000E+00 0. -1.
         -5    1    3    3    0  503 -0.26256588702E+02 -0.75140058316E+02  0.26957323154E+03  0.28111786492E+03  0.47000000000E+01 0.  1.
         11    1    4    4    0    0 -0.12147006708E+03  0.45581919680E+02  0.38854737927E+03  0.40963612455E+03  0.00000000000E+00 0. -1.
        -12    1    4    4    0    0 -0.20807869829E+02 -0.18046090907E+02  0.19414065818E+03  0.19608473679E+03  0.00000000000E+00 0.  1.
</event>
<event>
12    1  0.1066489E+000  0.1981640E+03  0.7818608E-02  0.1151367E+00
         21   -1    0    0  503  502  0.00000000000E+00  0.00000000000E+00  0.30669527182E+03  0.30669527182E+03  0.00000000000E+00 0.  1.
         21   -1    0    0  501  503 -0.00000000000E+00 -0.00000000000E+00 -0.29518464990E+03  0.29518464990E+03  0.00000000000E+00 0.  1.
          6    2    1    2  501    0 -0.92760289705E+02  0.30117629917E+02  0.23235375934E+03  0.30538045296E+03  0.17250335820E+03 0.  0.
         24    2    3    3    0    0 -0.78682865115E+02 -0.45111255614E+02  0.12807249265E+03  0.17594231451E+03  0.79543170776E+02 0.  0.
         -6    2    1    2    0  502  0.92760289705E+02 -0.30117629917E+02 -0.22084313742E+03  0.29649946876E+03  0.17212989471E+03 0.  0.
        -24    2    5    5    0    0  0.77167549073E+02  0.36789756676E+02 -0.18611417098E+03  0.21937668970E+03  0.78608717814E+02 0.  0.
          5    1    3    3  501    0 -0.14077424590E+02  0.75228885530E+02  0.10428126669E+03  0.12943813845E+03  0.47000000000E+01 0. -1.
        -11    1    4    4    0    0 -0.70299564411E+02  0.10301950881E+01  0.55669836464E+02  0.89678429682E+02  0.00000000000E+00 0.  1.
         12    1    4    4    0    0 -0.83833007044E+01 -0.46141450702E+02  0.72402656184E+02  0.86263884831E+02  0.00000000000E+00 0. -1.
         -5    1    5    5    0  502  0.15592740631E+02 -0.66907386592E+02 -0.34728966437E+02  0.77122779066E+02  0.47000000000E+01 0.  1.
         13    1    6    6    0    0  0.28582132557E+02  0.55422703270E+02 -0.82353936427E+02  0.10329949266E+03  0.00000000000E+00 0. -1.
        -14    1    6    6    0    0  0.48585416516E+02 -0.18632946595E+02 -0.10376023455E+03  0.11607719703E+03  0.00000000000E+00 0.  1.
</event>
<event>
12    1  0.1066489E+000  0.1931468E+03  0.7818608E-02  0.1156585E+00
         21   -1    0    0  501  502  0.00000000000E+00  0.00000000000E+00  0.17718672935E+04  0.17718672935E+04  0.00000000000E+00 0.  1.
         21   -1    0    0  502  503 -0.00000000000E+00 -0.00000000000E+00 -0.29825396856E+02  0.29825396856E+02  0.00000000000E+00 0.  1.
         -6    2    1    2    0  503  0.62660691083E+02  0.57744561172E+02  0.13653875174E+04  0.13784029316E+04  0.16867356842E+03 0.  0.
        -24    2    3    3    0    0 -0.26303268752E+02  0.55462672660E+02  0.70047237801E+03  0.70754227116E+03  0.78654581050E+02 0.  0.
          6    2    1    2  501    0 -0.62660691083E+02 -0.57744561172E+02  0.37665437922E+03  0.42328975871E+03  0.17333465288E+03 0.  0.
         24    2    5    5    0    0 -0.10053885633E+03 -0.45175578337E+02  0.19831495786E+03  0.24047899879E+03  0.79702144493E+02 0.  0.
          5    1    5    5  501    0  0.37878165247E+02 -0.12568982835E+02  0.17833942136E+03  0.18281075992E+03  0.47000000000E+01 0. -1.
        -11    1    6    6    0    0 -0.31345623679E+02 -0.24044720292E+02  0.13076725264E+02  0.41613668925E+02  0.00000000000E+00 0.  1.
         12    1    6    6    0    0 -0.69193232651E+02 -0.21130858045E+02  0.18523823260E+03  0.19886532986E+03  0.00000000000E+00 0. -1.
         -5    1    3    3    0  503  0.88963959835E+02  0.22818885121E+01  0.66491513937E+03  0.67086066045E+03  0.47000000000E+01 0.  1.
         11    1    4    4    0    0  0.16752377372E+02  0.32925667511E+02  0.13430810414E+03  0.13929611827E+03  0.00000000000E+00 0. -1.
        -12    1    4    4    0    0 -0.43055646124E+02  0.22537005149E+02  0.56616427387E+03  0.56824615288E+03  0.00000000000E+00 0.  1.
</event>
<event>
12    1  0.1066489E+000  0.2300203E+03  0.7818608E-02  0.1126626E+00
         21   -1    0    0  501  502  0.00000000000E+00  0.00000000000E+00  0.22265177454E+03  0.22265177454E+03  0.00000000000E+00 0. -1.
         21   -1    0    0  502  503 -0.00000000000E+00 -0.00000000000E+00 -0.39708984192E+03  0.39708984192E+03  0.00000000000E+00 0. -1.
         -6    2    1    2    0  503  0.98457067226E+02 -0.11724267532E+03  0.10914406659E+03  0.25460031194E+03  0.17166610780E+03 0.  0.
        -24    2    3    3    0    0 -0.18412638497E+01 -0.15880937693E+02  0.19845552744E+02  0.86284324453E+02  0.82435091120E+02 0.  0.
          6    2    1    2  501    0 -0.98457067226E+02  0.11724267532E+03 -0.28358213397E+03  0.36514130451E+03  0.17166743008E+03 0.  0.
         24    2    5    5    0    0 -0.20888359671E+02  0.10763231066E+03 -0.10911100240E+03  0.17390446378E+03  0.79476498478E+02 0.  0.
          5    1    5    5  501    0 -0.77568707555E+02  0.96103646552E+01 -0.17447113157E+03  0.19123684073E+03  0.47000000000E+01 0. -1.
        -11    1    6    6    0    0  0.25747382267E+02  0.20917400714E+02 -0.11107564538E+02  0.34983472329E+02  0.00000000000E+00 0.  1.
         12    1    6    6    0    0 -0.46635741938E+02  0.86714909946E+02 -0.98003437865E+02  0.13892099145E+03  0.00000000000E+00 0. -1.
         -5    1    3    3    0  503  0.10029833108E+03 -0.10136173762E+03  0.89298513844E+02  0.16831598749E+03  0.47000000000E+01 0.  1.
         13    1    4    4    0    0 -0.55700198287E+01 -0.27349154630E+02 -0.26444761322E+02  0.38449015348E+02  0.00000000000E+00 0. -1.
        -14    1    4    4    0    0  0.37287559790E+01  0.11468216937E+02  0.46290314066E+02  0.47835309105E+02  0.00000000000E+00 0.  1.
</event>
<event>
12    1  0.1066489E+000  0.1805052E+03  0.7818608E-02  0.1167627E+00
         21   -1    0    0  501  502  0.00000000000E+00  0.00000000000E+00  0.16463401561E+03  0.16463401561E+03  0.00000000000E+00 0.  1.
         21   -1    0    0  502  503 -0.00000000000E+00 -0.00000000000E+00 -0.20800097635E+03  0.20800097635E+03  0.00000000000E+00 0.  1.
         -6    2    1    2    0  503 -0.15302732309E+00 -0.57004034012E+02 -0.65431969358E+02  0.19078618181E+03  0.16990744905E+03 0.  0.
        -24    2    3    3    0    0  0.21007038197E+02 -0.95804611461E+02 -0.72196405794E+02  0.14582974975E+03  0.80213313550E+02 0.  0.
          6    2    1    2  501    0  0.15302732309E+00  0.57004034012E+02  0.22065008618E+02  0.18184881015E+03  0.17126774897E+03 0.  0.
         24    2    5    5    0    0 -0.32610672750E+02  0.26383402838E+02 -0.40709501710E+02  0.10455836933E+03  0.86692843675E+02 0.  0.
          5    1    5    5  501    0  0.32763700073E+02  0.30620631174E+02  0.62774510328E+02  0.77290440825E+02  0.47000000000E+01 0. -1.
        -11    1    6    6    0    0 -0.33475738723E+02 -0.14341224221E+02  0.11635179049E+02  0.38231834728E+02  0.00000000000E+00 0.  1.
         12    1    6    6    0    0  0.86506597242E+00  0.40724627059E+02 -0.52344680759E+02  0.66326534600E+02  0.00000000000E+00 0. -1.
         -5    1    3    3    0  503 -0.21160065520E+02  0.38800577449E+02  0.67644364355E+01  0.44956432059E+02  0.47000000000E+01 0.  1.
         11    1    4    4    0    0  0.13968571400E+02 -0.66426560613E+02 -0.33876914078E+00  0.67880215869E+02  0.00000000000E+00 0. -1.
        -12    1    4    4    0    0  0.70384667973E+01 -0.29378050847E+02 -0.71857636653E+02  0.77949533878E+02  0.00000000000E+00 0.  1.
</event>
<event>
12    1  0.1066489E+000  0.1827336E+03  0.7818608E-02  0.1165481E+00
         21   -1    0    0  501  502  0.00000000000E+00  0.00000000000E+00  0.13171609433E+02  0.13171609433E+02  0.00000000000E+00 0. -1.
         21   -1    0    0  502  503 -0.00000000000E+00 -0.00000000000E+00 -0.30712265925E+04  0.30712265925E+04  0.00000000000E+00 0. -1.
         -6    2    1    2    0  503  0.57575652930E+02 -0.10999447302E+02 -0.87867701178E+03  0.89747694881E+03  0.17307697409E+03 0.  0.
        -24    2    3    3    0    0 -0.14658305110E+02  0.37789734589E+02 -0.54893995285E+03  0.55638055921E+03  0.81125365246E+02 0.  0.
          6    2    1    2  501    0 -0.57575652930E+02  0.10999447302E+02 -0.21793779713E+04  0.21869212531E+04  0.17175646125E+03 0.  0.
         24    2    5    5    0    0 -0.92204509259E+02  0.45932422483E+02 -0.14416844502E+04  0.14475747230E+04  0.80044150107E+02 0.  0.
          5    1    5    5  501    0  0.34628856328E+02 -0.34932975181E+02 -0.73769352111E+03  0.73934653007E+03  0.47000000000E+01 0. -1.
        -11    1    6    6    0    0 -0.90226104421E+02  0.19895914946E+02 -0.79289450559E+03  0.79825954072E+03  0.00000000000E+00 0.  1.
         12    1    6    6    0    0 -0.19784048373E+01  0.26036507537E+02 -0.64878994456E+03  0.64931518231E+03  0.00000000000E+00 0. -1.
         -5    1    3    3    0  503  0.72233958040E+02 -0.48789181891E+02 -0.32973705893E+03  0.34109638959E+03  0.47000000000E+01 0.  1.
         11    1    4    4    0    0  0.21392609271E+02  0.33195019726E+02 -0.12996735715E+03  0.13583470466E+03  0.00000000000E+00 0. -1.
        -12    1    4    4    0    0 -0.36050914381E+02  0.45947148625E+01 -0.41897259570E+03  0.42054585455E+03  0.00000000000E+00 0.  1.
</event>
<event>
12    1  0.1066489E+000  0.1976800E+03  0.7818608E-02  0.1151896E+00
         21   -1    0    0  503  502  0.00000000000E+00  0.00000000000E+00  0.18591639869E+02  0.18591639869E+02  0.00000000000E+00 0. -1.
         21   -1    0    0  501  503 -0.00000000000E+00 -0.00000000000E+00 -0.20946351647E+04  0.20946351647E+04  0.00000000000E+00 0. -1.
          6    2    1    2  501    0  0.51732802094E+01  0.95225406069E+02 -0.10719476123E+04  0.10900225083E+04  0.17315526058E+03 0.  0.
         24    2    3    3    0    0 -0.43862796534E+01  0.54915822064E+02 -0.27000708555E+03  0.28699888087E+03  0.80184439953E+02 0.  0.
         -6    2    1    2    0  502 -0.51732802094E+01 -0.95225406069E+02 -0.10040959125E+04  0.10232042962E+04  0.17217371919E+03 0.  0.
        -24    2    5    5    0    0 -0.48778931878E+02 -0.65346050078E+02 -0.88873985287E+03  0.89622658456E+03  0.81939455361E+02 0.  0.
          5    1    3    3  501    0  0.95595598629E+01  0.40309584005E+02 -0.80194052674E+03  0.80302362740E+03  0.47000000000E+01 0. -1.
        -11    1    4    4    0    0  0.37468446562E+02  0.18685531782E+02 -0.11134501940E+03  0.11895691208E+03  0.00000000000E+00 0.  1.
         12    1    4    4    0    0 -0.41854726215E+02  0.36230290282E+02 -0.15866206615E+03  0.16804196879E+03  0.00000000000E+00 0. -1.
         -5    1    5    5    0  502  0.43605651668E+02 -0.29879355990E+02 -0.11535605963E+03  0.12697771169E+03  0.47000000000E+01 0.  1.
         11    1    6    6    0    0  0.18198980714E+02 -0.34545487304E+02 -0.22026947651E+03  0.22370345522E+03  0.00000000000E+00 0. -1.
        -12    1    6    6    0    0 -0.66977912592E+02 -0.30800562775E+02 -0.66847037635E+03  0.67252312934E+03  0.00000000000E+00 0.  1.
</event>
<event>
12    1  0.1066489E+000  0.1862806E+03  0.7818608E-02  0.1162752E+00
         21   -1    0    0  503  502  0.00000000000E+00  0.00000000000E+00  0.61626938593E+02  0.61626938593E+02  0.00000000000E+00 0. -1.
         21   -1    0    0  501  503 -0.00000000000E+00 -0.00000000000E+00 -0.56588420498E+03  0.56588420498E+03  0.00000000000E+00 0. -1.
          6    2    1    2  501    0 -0.16218440373E+02  0.68790461680E+02 -0.29943487771E+03  0.35064893458E+03  0.16822087832E+03 0.  0.
         24    2    3    3    0    0 -0.63606198953E+02  0.67934522088E+02 -0.14763115211E+03  0.19154898674E+03  0.78963342195E+02 0.  0.
         -6    2    1    2    0  502  0.16218440373E+02 -0.68790461680E+02 -0.20482238868E+03  0.27686220900E+03  0.17235227426E+03 0.  0.
        -24    2    5    5    0    0 -0.44935239005E+02 -0.23766280388E+02 -0.58156469293E+02  0.11163530044E+03  0.80599339922E+02 0.  0.
          5    1    3    3  501    0  0.47387758580E+02  0.85593959193E+00 -0.15180372560E+03  0.15909994784E+03  0.47000000000E+01 0. -1.
        -13    1    4    4    0    0  0.34482572771E+01  0.90595810461E+01 -0.77368671905E+02  0.77973571672E+02  0.00000000000E+00 0.  1.
         14    1    4    4    0    0 -0.67054456230E+02  0.58874941042E+02 -0.70262480208E+02  0.11357541507E+03  0.00000000000E+00 0. -1.
         -5    1    5    5    0  502  0.61153679377E+02 -0.45024181292E+02 -0.14666591938E+03  0.16522690856E+03  0.47000000000E+01 0.  1.
         11    1    6    6    0    0 -0.29039693942E+02 -0.36468624965E+02 -0.72883543339E+02  0.86517485636E+02  0.00000000000E+00 0. -1.
        -12    1    6    6    0    0 -0.15895545062E+02  0.12702344577E+02  0.14727074046E+02  0.25117814804E+02  0.00000000000E+00 0.  1.
</event>
<event>
12    1  0.1066489E+000  0.1817151E+03  0.7818608E-02  0.1168373E+00
         21   -1    0    0  501  502  0.00000000000E+00  0.00000000000E+00  0.48240717312E+03  0.48240717312E+03  0.00000000000E+00 0.  1.
         21   -1    0    0  502  503 -0.00000000000E+00 -0.00000000000E+00 -0.65110234508E+02  0.65110234508E+02  0.00000000000E+00 0.  1.
         -6    2    1    2    0  503 -0.77203261594E+01  0.54054599835E+02  0.19817537080E+03  0.26285157010E+03  0.16381687065E+03 0.  0.
        -24    2    3    3    0    0  0.27916176310E+02  0.71322737785E+02  0.19315237073E+03  0.22265866741E+03  0.80017485781E+02 0.  0.
          6    2    1    2  501    0  0.77203261594E+01 -0.54054599835E+02  0.21912156781E+03  0.28466583753E+03  0.17331726509E+03 0.  0.
         24    2    5    5    0    0  0.25077535322E+02  0.34884366712E+02  0.10231382320E+03  0.13675521695E+03  0.79925397249E+02 0.  0.
          5    1    5    5  501    0 -0.17357209162E+02 -0.88938966547E+02  0.11680774461E+03  0.14791062058E+03  0.47000000000E+01 0. -1.
        -13    1    6    6    0    0 -0.12305461959E+02  0.33662229856E+02  0.90803959407E+02  0.97621356049E+02  0.00000000000E+00 0.  1.
         14    1    6    6    0    0  0.37382997281E+02  0.12221368558E+01  0.11509863794E+02  0.39133860898E+02  0.00000000000E+00 0. -1.
         -5    1    3    3    0  503 -0.35636502470E+02 -0.17268137950E+02  0.50230000727E+01  0.40192902685E+02  0.47000000000E+01 0.  1.
         11    1    4    4    0    0  0.61966134850E+01  0.84850575732E+02  0.15241110300E+03  0.17454845327E+03  0.00000000000E+00 0. -1.
        -12    1    4    4    0    0  0.21719562825E+02 -0.13527837946E+02  0.40741267728E+02  0.48110214143E+02  0.00000000000E+00 0.  1.
</event>
<event>
12    1  0.1066489E+000  0.2621884E+03  0.7818608E-02  0.1105854E+00
         21   -1    0    0  501  502  0.00000000000E+00  0.00000000000E+00  0.41499178768E+02  0.41499178768E+02  0.00000000000E+00 0.  1.
         21   -1    0    0  502  503 -0.00000000000E+00 -0.00000000000E+00 -0.16909094872E+04  0.16909094872E+04  0.00000000000E+00 0.  1.
         -6    2    1    2    0  503 -0.16490344896E+02  0.19729771998E+03 -0.94991122478E+03  0.98543091081E+03  0.17188491277E+03 0.  0.
        -24    2    3    3    0    0 -0.27058595608E+02  0.11799345651E+03 -0.82112332448E+03  0.83374285132E+03  0.78924044170E+02 0.  0.
          6    2    1    2  501    0  0.16490344896E+02 -0.19729771998E+03 -0.69949908364E+03  0.74697775515E+03  0.17169297272E+03 0.  0.
         24    2    5    5    0    0 -0.11412313734E+02 -0.18835051879E+03 -0.43490914346E+03  0.48072874160E+03  0.79674344069E+02 0.  0.
          5    1    5    5  501    0  0.27902658630E+02 -0.89472011904E+01 -0.26458994018E+03  0.26624901354E+03  0.47000000000E+01 0. -1.
        -11    1    6    6    0    0  0.39379135636E+00  0.44795074037E+01  0.36120925694E+00  0.45112670437E+01  0.00000000000E+00 0.  1.
         12    1    6    6    0    0 -0.11806105090E+02 -0.19283002620E+03 -0.43527035272E+03  0.47621747456E+03  0.00000000000E+00 0. -1.
         -5    1    3    3    0  503  0.10568250712E+02  0.79304263476E+02 -0.12878790029E+03  0.15168805949E+03  0.47000000000E+01 0.  1.
         11    1    4    4    0    0  0.20634460273E+01  0.42210261289E+02 -0.52480998065E+03  0.52650876513E+03  0.00000000000E+00 0. -1.
        -12    1    4    4    0    0 -0.29122041636E+02  0.75783195217E+02 -0.29631334384E+03  0.30723408620E+03  0.00000000000E+00 0.  1.
</event>
<event>
12    1  0.1066489E+000  0.2196761E+03  0.7818608E-02  0.1134712E+00
         21   -1    0    0  503  502  0.00000000000E+00  0.00000000000E+00  0.11291113855E+03  0.11291113855E+03  0.00000000000E+00 0. -1.
         21   -1    0    0  501  503 -0.00000000000E+00 -0.00000000000E+00 -0.43397864782E+03  0.43397864782E+03  0.00000000000E+00 0. -1.
          6    2    1    2  501    0 -0.10284084005E+03  0.81009171093E+02 -0.11499185988E+03  0.24795301870E+03  0.17640534986E+03 0.  0.
         24    2    3    3    0    0 -0.23551677779E+02  0.17894074303E+02  0.12251035470E+02  0.85216633355E+02  0.78974092644E+02 0.  0.
         -6    2    1    2    0  502  0.10284084005E+03 -0.81009171093E+02 -0.20607564939E+03  0.29893676768E+03  0.17250302495E+03 0.  0.
        -24    2    5    5    0    0  0.42066280388E+02 -0.10619785373E+03 -0.18108671107E+03  0.22840625036E+03  0.79557917231E+02 0.  0.
          5    1    3    3  501    0 -0.79289162274E+02  0.63115096790E+02 -0.12724289535E+03  0.16273638534E+03  0.47000000000E+01 0. -1.
        -13    1    4    4    0    0  0.84654538308E+01 -0.17823572673E+02 -0.19461244466E+02  0.27714322787E+02  0.00000000000E+00 0.  1.
         14    1    4    4    0    0 -0.32017131610E+02  0.35717646975E+02  0.31712279936E+02  0.57502310568E+02  0.00000000000E+00 0. -1.
         -5    1    5    5    0  502  0.60774559666E+02  0.25188682635E+02 -0.24988938318E+02  0.70530517322E+02  0.47000000000E+01 0.  1.
         13    1    6    6    0    0  0.46777275852E+02 -0.18569281010E+02 -0.80307751541E+02  0.94774820975E+02  0.00000000000E+00 0. -1.
        -14    1    6    6    0    0 -0.47109954644E+01 -0.87628572718E+02 -0.10077895953E+03  0.13363142938E+03  0.00000000000E+00 0.  1.
</event>
<event>
12    1  0.1066489E+000  0.1960837E+03  0.7818608E-02  0.1153407E+00
         21   -1    0    0  501  502  0.00000000000E+00  0.00000000000E+00  0.10005541912E+03  0.10005541912E+03  0.00000000000E+00 0. -1.
         21   -1    0    0  502  503 -0.00000000000E+00 -0.00000000000E+00 -0.43276353327E+03  0.43276353327E+03  0.00000000000E+00 0. -1.
         -6    2    1    2    0  503  0.86069082155E+02 -0.23341544325E+02 -0.25870336338E+03  0.32461709017E+03  0.17463135576E+03 0.  0.
        -24    2    3    3    0    0  0.43679089359E+02 -0.50669852163E+02 -0.64548941870E+02  0.12396371420E+03  0.82006949556E+02 0.  0.
          6    2    1    2  501    0 -0.86069082155E+02  0.23341544325E+02 -0.74004750773E+02  0.20820186221E+03  0.17296993293E+03 0.  0.
         24    2    5    5    0    0 -0.80356855406E+02 -0.35464891000E+02 -0.21584834474E+02  0.12907687251E+03  0.92086650682E+02 0.  0.
          5    1    5    5  501    0 -0.57122267493E+01  0.58806435326E+02 -0.52419916299E+02  0.79124989699E+02  0.47000000000E+01 0. -1.
        -11    1    6    6    0    0 -0.49932899214E+02  0.11378992599E+02 -0.45320217569E+02  0.68386387659E+02  0.00000000000E+00 0.  1.
         12    1    6    6    0    0 -0.30423956191E+02 -0.46843883599E+02  0.23735383095E+02  0.60690484853E+02  0.00000000000E+00 0. -1.
         -5    1    3    3    0  503  0.42389992796E+02  0.27328307838E+02 -0.19415442151E+03  0.20065337597E+03  0.47000000000E+01 0.  1.
         11    1    4    4    0    0 -0.18282283256E+02  0.31712612841E+00 -0.33028650207E+02  0.37752273899E+02  0.00000000000E+00 0. -1.
        -12    1    4    4    0    0  0.61961372616E+02 -0.50986978292E+02 -0.31520291663E+02  0.86211440298E+02  0.00000000000E+00 0.  1.
</event>
<event>
12    1  0.1066489E+000  0.2009842E+03  0.7818608E-02  0.1149520E+00
         21   -1    0    0  501  502  0.00000000000E+00  0.00000000000E+00  0.79699459559E+03  0.79699459559E+03  0.00000000000E+00 0. -1.
         21   -1    0    0  502  503 -0.00000000000E+00 -0.00000000000E+00 -0.63845921612E+02  0.63845921612E+02  0.00000000000E+00 0. -1.
         -6    2    1    2    0  503 -0.43617018980E+02 -0.91413300216E+02  0.56937536415E+03  0.60380705142E+03  0.17359669995E+03 0.  0.
        -24    2    3    3    0    0 -0.67653812290E+02 -0.68476484411E+02  0.22464674601E+03  0.25744917996E+03  0.80918802108E+02 0.  0.
          6    2    1    2  501    0  0.43617018980E+02  0.91413300216E+02  0.16377330983E+03  0.25703346579E+03  0.17025178332E+03 0.  0.
         24    2    5    5    0    0 -0.14231750868E+02  0.10379607596E+03  0.14199858903E+03  0.19381921286E+03  0.80163082945E+02 0.  0.
          5    1    5    5  501    0  0.57848769848E+02 -0.12382775746E+02  0.21774720794E+02  0.63214252933E+02  0.47000000000E+01 0. -1.
        -11    1    6    6    0    0 -0.18246193684E+02  0.87555076948E+02  0.54495015420E+02  0.10473071082E+03  0.00000000000E+00 0.  1.
         12    1    6    6    0    0  0.40144428162E+01  0.16240999014E+02  0.87503573613E+02  0.89088502037E+02  0.00000000000E+00 0. -1.
         -5    1    3    3    0  503  0.24036793310E+02 -0.22936815804E+02  0.34472861814E+03  0.34635787145E+03  0.47000000000E+01 0.  1.
         11    1    4    4    0    0 -0.45940096043E+02 -0.11726693688E+02  0.16733626470E+03  0.17392364202E+03  0.00000000000E+00 0. -1.
        -12    1    4    4    0    0 -0.21713716247E+02 -0.56749790723E+02  0.57310481310E+02  0.83525537942E+02  0.00000000000E+00 0.  1.
</event>
<event>
12    1  0.1066489E+000  0.1908927E+03  0.7818608E-02  0.1157672E+00
         21   -1    0    0  501  502  0.00000000000E+00  0.00000000000E+00  0.16745841525E+03  0.16745841525E+03  0.00000000000E+00 0.  1.
         21   -1    0    0  502  503 -0.00000000000E+00 -0.00000000000E+00 -0.26447469822E+03  0.26447469822E+03  0.00000000000E+00 0.  1.
         -6    2    1    2    0  503 -0.23989850697E+02  0.81089536564E+02  0.42479081220E+02  0.19550348049E+03  0.17107341308E+03 0.  0.
        -24    2    3    3    0    0 -0.29232618165E+02  0.92399972963E+01 -0.32945017753E+02  0.91096930838E+02  0.79204501757E+02 0.  0.
          6    2    1    2  501    0  0.23989850697E+02 -0.81089536564E+02 -0.13949536419E+03  0.23642963299E+03  0.17114026075E+03 0.  0.
         24    2    5    5    0    0 -0.11544384232E+02  0.19172320358E+02 -0.50319724250E+02  0.97542964934E+02  0.80509034799E+02 0.  0.
          5    1    5    5  501    0  0.35534234929E+02 -0.10026185692E+03 -0.89175639940E+02  0.13888666806E+03  0.47000000000E+01 0. -1.
        -11    1    6    6    0    0  0.23190287181E+02  0.37545371185E+02 -0.23824151038E+02  0.50150119538E+02  0.00000000000E+00 0.  1.
         12    1    6    6    0    0 -0.34734671413E+02 -0.18373050828E+02 -0.26495573212E+02  0.47392845396E+02  0.00000000000E+00 0. -1.
         -5    1    3    3    0  503  0.52427674678E+01  0.71849539268E+02  0.75424098972E+02  0.10440654965E+03  0.47000000000E+01 0.  1.
         11    1    4    4    0    0 -0.46264247201E+02  0.24337233507E+02 -0.41538220605E+02  0.66769044286E+02  0.00000000000E+00 0. -1.
        -12    1    4    4    0    0  0.17031629036E+02 -0.15097236211E+02  0.85932028525E+01  0.24327886552E+02  0.00000000000E+00 0.  1.
</event>
<event>
12    1  0.1066489E+000  0.2283107E+03  0.7818608E-02  0.1128696E+00
         21   -1    0    0  503  502  0.00000000000E+00  0.00000000000E+00  0.13953178550E+03  0.13953178550E+03  0.00000000000E+00 0. -1.
         21   -1    0    0  501  503 -0.00000000000E+00 -0.00000000000E+00 -0.39980513859E+03  0.39980513859E+03  0.00000000000E+00 0. -1.
          6    2    1    2  501    0  0.43765637186E+02 -0.13448841168E+03 -0.50197932638E+02  0.22908303475E+03  0.17307986739E+03 0.  0.
         24    2    3    3    0    0  0.26224359435E+02 -0.71884082450E+02  0.39249548535E+02  0.11840358611E+03  0.81387000225E+02 0.  0.
         -6    2    1    2    0  502 -0.43765637186E+02  0.13448841168E+03 -0.21007542045E+03  0.31025388933E+03  0.17922954470E+03 0.  0.
        -24    2    5    5    0    0 -0.72994800080E+00  0.47259334235E+02 -0.10069520317E+02  0.87800674964E+02  0.73304746015E+02 0.  0.
          5    1    3    3  501    0  0.17541277751E+02 -0.62604329232E+02 -0.89447481173E+02  0.11067944864E+03  0.47000000000E+01 0. -1.
        -13    1    4    4    0    0  0.47308167318E+02 -0.76015369897E+02  0.36715275523E+02  0.96769884841E+02  0.00000000000E+00 0.  1.
         14    1    4    4    0    0 -0.21083807883E+02  0.41312874462E+01  0.25342730116E+01  0.21633701267E+02  0.00000000000E+00 0. -1.
         -5    1    5    5    0  502 -0.43035689185E+02  0.87229077447E+02 -0.20000590013E+03  0.22245321437E+03  0.47000000000E+01 0.  1.
         13    1    6    6    0    0 -0.23008868297E+02 -0.22296808248E+01 -0.22351871957E+02  0.32155647667E+02  0.00000000000E+00 0. -1.
        -14    1    6    6    0    0  0.22278920296E+02  0.49489015060E+02  0.12282351640E+02  0.55645027298E+02  0.00000000000E+00 0.  1.
</event>
<event>
12    1  0.1256096E+000  0.5494689E+03  0.7818608E-02  0.1001635E+00
         21   -1    0    0  503  502  0.00000000000E+00  0.00000000000E+00  0.64484113094E+03  0.64484113094E+03  0.00000000000E+00 0. -1.
         21   -1    0    0  501  503 -0.00000000000E+00 -0.00000000000E+00 -0.88187666560E+03  0.88187666560E+03  0.00000000000E+00 0. -1.
          6    2    1    2  501    0  0.35130577070E+03 -0.38469963140E+03  0.40445688368E+03  0.68227662129E+03  0.17466100392E+03 0.  0.
         24    2    3    3    0    0  0.35046299828E+03 -0.38900673136E+03  0.41307552830E+03  0.67152337013E+03  0.78496460727E+02 0.  0.
         -6    2    1    2    0  502 -0.35130577070E+03  0.38469963140E+03 -0.64149241834E+03  0.84444117525E+03  0.17366296308E+03 0.  0.
        -24    2    5    5    0    0 -0.67309202242E+02  0.90215118308E+02 -0.14472410084E+03  0.20087608094E+03  0.82078244688E+02 0.  0.
          5    1    3    3  501    0  0.84277241391E+00  0.43070999631E+01 -0.86186446224E+01  0.10753251162E+02  0.47000000000E+01 0. -1.
        -11    1    4    4    0    0  0.21247731087E+03 -0.17806103173E+03  0.20823421161E+03  0.34671865473E+03  0.00000000000E+00 0.  1.
         12    1    4    4    0    0  0.13798568741E+03 -0.21094569963E+03  0.20484131669E+03  0.32480471540E+03  0.00000000000E+00 0. -1.
         -5    1    5    5    0  502 -0.28399656845E+03  0.29448451309E+03 -0.49676831750E+03  0.64356509431E+03  0.47000000000E+01 0.  1.
         13    1    6    6    0    0 -0.66227295326E+02  0.33737615080E+02 -0.11531089246E+03  0.13718922420E+03  0.00000000000E+00 0. -1.
        -14    1    6    6    0    0 -0.10819069154E+01  0.56477503228E+02 -0.29413208380E+02  0.63686856733E+02  0.00000000000E+00 0.  1.
</event>
<event>
12    1  0.1066489E+000  0.1760479E+03  0.7818608E-02  0.1172839E+00
         21   -1    0    0  501  502  0.00000000000E+00  0.00000000000E+00  0.23588502106E+03  0.23588502106E+03  0.00000000000E+00 0.  1.
         21   -1    0    0  502  503 -0.00000000000E+00 -0.00000000000E+00 -0.16145305726E+03  0.16145305726E+03  0.00000000000E+00 0.  1.
         -6    2    1    2    0  503 -0.25940983986E+02 -0.24681278341E+02 -0.53601457111E+02  0.17965613518E+03  0.16769350182E+03 0.  0.
        -24    2    3    3    0    0  0.32561721578E+02  0.16685328455E+02  0.14627885898E+01  0.89168987638E+02  0.81303768106E+02 0.  0.
          6    2    1    2  501    0  0.25940983986E+02  0.24681278341E+02  0.12803342091E+03  0.21768194314E+03  0.17236812741E+03 0.  0.
         24    2    5    5    0    0  0.43155499105E+02 -0.12290829576E+02  0.10733524206E+02  0.93405509077E+02  0.81215263279E+02 0.  0.
          5    1    5    5  501    0 -0.17214515118E+02  0.36972107917E+02  0.11729989671E+03  0.12427643406E+03  0.47000000000E+01 0. -1.
        -11    1    6    6    0    0 -0.11582044921E+02 -0.31191982766E+02 -0.43717970783E+01  0.33558846272E+02  0.00000000000E+00 0.  1.
         12    1    6    6    0    0  0.54737544026E+02  0.18901153189E+02  0.15105321284E+02  0.59846662805E+02  0.00000000000E+00 0. -1.
         -5    1    3    3    0  503 -0.58502705564E+02 -0.41366606795E+02 -0.55064245701E+02  0.90487147544E+02  0.47000000000E+01 0.  1.
         13    1    4    4    0    0 -0.10306015414E+02  0.29522971671E+02 -0.22390470980E+02  0.38459758199E+02  0.00000000000E+00 0. -1.
        -14    1    4    4    0    0  0.42867736992E+02 -0.12837643217E+02  0.23853259570E+02  0.50709229439E+02  0.00000000000E+00 0.  1.
</event>
<event>
12    1  0.1066489E+000  0.3080377E+03  0.7818608E-02  0.1081418E+00
         21   -1    0    0  501  502  0.00000000000E+00  0.00000000000E+00  0.34843429395E+03  0.34843429395E+03  0.00000000000E+00 0. -1.
         21   -1    0    0  502  503 -0.00000000000E+00 -0.00000000000E+00 -0.30387263035E+03  0.30387263035E+03  0.00000000000E+00 0. -1.
         -6    2    1    2    0  503  0.12533351152E+03 -0.22267860663E+03  0.12888369725E+03  0.33293658104E+03  0.17012204036E+03 0.  0.
        -24    2    3    3    0    0  0.90469023569E+02 -0.12903116421E+03  0.15235230025E+03  0.23018327784E+03  0.70281095916E+02 0.  0.
          6    2    1    2  501    0 -0.12533351152E+03  0.22267860663E+03 -0.84322033654E+02  0.31937034326E+03  0.17202604405E+03 0.  0.
         24    2    5    5    0    0 -0.91706067733E+02  0.24055191178E+03 -0.73703180327E+02  0.27955690259E+03  0.80278751064E+02 0.  0.
          5    1    5    5  501    0 -0.33627443783E+02 -0.17873305147E+02 -0.10618853327E+02  0.39813440673E+02  0.47000000000E+01 0. -1.
        -13    1    6    6    0    0 -0.92037695696E+02  0.20046439627E+03 -0.87292309249E+02  0.23722744120E+03  0.00000000000E+00 0.  1.
         14    1    6    6    0    0  0.33162796247E+00  0.40087515507E+02  0.13589128923E+02  0.42329461389E+02  0.00000000000E+00 0. -1.
         -5    1    3    3    0  503  0.34864487947E+02 -0.93647442424E+02 -0.23468602996E+02  0.10275330320E+03  0.47000000000E+01 0.  1.
         11    1    4    4    0    0  0.26340539987E+02 -0.18284378646E+02  0.72670603807E+02  0.79430215957E+02  0.00000000000E+00 0. -1.
        -12    1    4    4    0    0  0.64128483582E+02 -0.11074678556E+03  0.79681696440E+02  0.15075306188E+03  0.00000000000E+00 0.  1.
</event>
<event>
12    1  0.1066489E+000  0.3700989E+03  0.7818608E-02  0.1054712E+00
         21   -1    0    0  501  502  0.00000000000E+00  0.00000000000E+00  0.44723577415E+03  0.44723577415E+03  0.00000000000E+00 0. -1.
         21   -1    0    0  502  503 -0.00000000000E+00 -0.00000000000E+00 -0.32591882271E+03  0.32591882271E+03  0.00000000000E+00 0.  1.
         -6    2    1    2    0  503  0.18863080119E+03  0.26740730378E+03 -0.35403204235E+02  0.37178839697E+03  0.17287272768E+03 0.  0.
        -24    2    3    3    0    0  0.45067729065E+02  0.51724041075E+02 -0.39851726969E+02  0.11261373608E+03  0.79920064967E+02 0.  0.
          6    2    1    2  501    0 -0.18863080119E+03 -0.26740730378E+03  0.15672015567E+03  0.40136619988E+03  0.17159654409E+03 0.  0.
         24    2    5    5    0    0 -0.11877283660E+03 -0.25978969305E+03  0.10757630222E+03  0.31548621653E+03  0.79757261033E+02 0.  0.
          5    1    5    5  501    0 -0.69857964587E+02 -0.76176107275E+01  0.49143853453E+02  0.85879983358E+02  0.47000000000E+01 0. -1.
        -11    1    6    6    0    0 -0.56412939824E+02 -0.62702895983E+02  0.44221652166E+01  0.84460810377E+02  0.00000000000E+00 0.  1.
         12    1    6    6    0    0 -0.62359896775E+02 -0.19708679707E+03  0.10315413701E+03  0.23102540615E+03  0.00000000000E+00 0. -1.
         -5    1    3    3    0  503  0.14356307212E+03  0.21568326271E+03  0.44485227334E+01  0.25917466088E+03  0.47000000000E+01 0.  1.
         11    1    4    4    0    0  0.63633568973E+02  0.30205288094E+02 -0.95730698435E+01  0.71086104095E+02  0.00000000000E+00 0. -1.
        -12    1    4    4    0    0 -0.18565839908E+02  0.21518752981E+02 -0.30278657125E+02  0.41527631990E+02  0.00000000000E+00 0.  1.
</event>
<event>
12    1  0.1066489E+000  0.2875586E+03  0.7818608E-02  0.1091658E+00
         21   -1    0    0  501  502  0.00000000000E+00  0.00000000000E+00  0.21022453452E+03  0.21022453452E+03  0.00000000000E+00 0.  1.
         21   -1    0    0  502  503 -0.00000000000E+00 -0.00000000000E+00 -0.41323751742E+03  0.41323751742E+03  0.00000000000E+00 0.  1.
         -6    2    1    2    0  503  0.20940983295E+03 -0.96158595932E+02 -0.17043537316E+03  0.33427259470E+03  0.17202034018E+03 0.  0.
        -24    2    3    3    0    0  0.17539758796E+03 -0.32200910523E+02 -0.17526358798E+03  0.26152082502E+03  0.76645966299E+02 0.  0.
          6    2    1    2  501    0 -0.20940983295E+03  0.96158595932E+02 -0.32577609738E+02  0.28918945724E+03  0.17166912307E+03 0.  0.
         24    2    5    5    0    0 -0.11638092767E+03  0.20249175708E+02  0.40194161005E+02  0.14871014235E+03  0.80898618130E+02 0.  0.
          5    1    5    5  501    0 -0.93028905283E+02  0.75909420225E+02 -0.72771770743E+02  0.14047931490E+03  0.47000000000E+01 0. -1.
        -13    1    6    6    0    0 -0.12871175225E+03  0.21351570312E+02  0.33806652214E+02  0.13477942890E+03  0.00000000000E+00 0.  1.
         14    1    6    6    0    0  0.12330824574E+02 -0.11023946044E+01  0.63875087907E+01  0.13930713445E+02  0.00000000000E+00 0. -1.
         -5    1    3    3    0  503  0.34012244997E+02 -0.63957685409E+02  0.48282148214E+01  0.72751769675E+02  0.47000000000E+01 0.  1.
         13    1    4    4    0    0  0.15892002884E+03 -0.49997883599E+02 -0.13462268356E+03  0.21419297575E+03  0.00000000000E+00 0. -1.
        -14    1    4    4    0    0  0.16477559117E+02  0.17796973076E+02 -0.40640904414E+02  0.47327849272E+02  0.00000000000E+00 0.  1.
</event>
<event>
12    1  0.1066489E+000  0.2111083E+03  0.7818608E-02  0.1141647E+00
         21   -1    0    0  501  502  0.00000000000E+00  0.00000000000E+00  0.28421925196E+04  0.28421925196E+04  0.00000000000E+00 0. -1.
         21   -1    0    0  502  503 -0.00000000000E+00 -0.00000000000E+00 -0.16286604974E+02  0.16286604974E+02  0.00000000000E+00 0. -1.
         -6    2    1    2    0  503  0.76848740028E+02  0.85245557909E+02  0.17753369367E+04  0.17878444989E+04  0.17718402613E+03 0.  0.
        -24    2    3    3    0    0  0.12369276950E+02 -0.23547304757E+02  0.63771175777E+03  0.64320192322E+03  0.79529575969E+02 0.  0.
          6    2    1    2  501    0 -0.76848740028E+02 -0.85245557909E+02  0.10505689779E+04  0.10706346257E+04  0.17143742450E+03 0.  0.
         24    2    5    5    0    0 -0.11063685011E+03 -0.31948372352E+02  0.80088008944E+03  0.81305190622E+03  0.79895390717E+02 0.  0.
          5    1    5    5  501    0  0.33788110083E+02 -0.53297185557E+02  0.24968888842E+03  0.25758271947E+03  0.47000000000E+01 0. -1.
        -11    1    6    6    0    0 -0.67801060926E+02 -0.38342538516E+02  0.28803069945E+03  0.29837697288E+03  0.00000000000E+00 0.  1.
         12    1    6    6    0    0 -0.42835789185E+02  0.63941661643E+01  0.51284938999E+03  0.51467493334E+03  0.00000000000E+00 0. -1.
         -5    1    3    3    0  503  0.64479463078E+02  0.10879286267E+03  0.11376251790E+04  0.11446425756E+04  0.47000000000E+01 0.  1.
         11    1    4    4    0    0  0.35220282565E+02 -0.12691055662E+02  0.14222247645E+03  0.14706720914E+03  0.00000000000E+00 0. -1.
        -12    1    4    4    0    0 -0.22851005615E+02 -0.10856249095E+02  0.49548928132E+03  0.49613471407E+03  0.00000000000E+00 0.  1.
</event>
<event>
12    1  0.1066489E+000  0.1740247E+03  0.7818608E-02  0.1173968E+00
         21   -1    0    0  503  502  0.00000000000E+00  0.00000000000E+00  0.86785308624E+02  0.86785308624E+02  0.00000000000E+00 0.  1.
         21   -1    0    0  501  503 -0.00000000000E+00 -0.00000000000E+00 -0.38489143745E+03  0.38489143745E+03  0.00000000000E+00 0.  1.
          6    2    1    2  501    0  0.87776673438E+01  0.22250308957E+02 -0.74626492712E+02  0.18843170775E+03  0.17136298135E+03 0.  0.
         24    2    3    3    0    0 -0.59137764931E+02  0.11757647285E+01 -0.22706448627E+02  0.10025901734E+03  0.77702188424E+02 0.  0.
         -6    2    1    2    0  502 -0.87776673438E+01 -0.22250308957E+02 -0.22347963611E+03  0.28324503832E+03  0.17237308457E+03 0.  0.
        -24    2    5    5    0    0 -0.64700860685E+02 -0.52483128710E+02 -0.17837853923E+03  0.20515774176E+03  0.57707153595E+02 0.  0.
          5    1    3    3  501    0  0.67915432275E+02  0.21074544229E+02 -0.51920044085E+02  0.88172690406E+02  0.47000000000E+01 0. -1.
        -11    1    4    4    0    0 -0.70420852293E+02  0.14423056098E+02 -0.33996142087E+02  0.79516404985E+02  0.00000000000E+00 0.  1.
         12    1    4    4    0    0  0.11283087362E+02 -0.13247291370E+02  0.11289693460E+02  0.20742612359E+02  0.00000000000E+00 0. -1.
         -5    1    5    5    0  502  0.55923193341E+02  0.30232819753E+02 -0.45101096885E+02  0.78087296559E+02  0.47000000000E+01 0.  1.
         11    1    6    6    0    0 -0.68341002376E+02 -0.27635227255E+02 -0.11097437707E+03  0.13322728983E+03  0.00000000000E+00 0. -1.
        -12    1    6    6    0    0  0.36401416910E+01 -0.24847901455E+02 -0.67404162157E+02  0.71930451927E+02  0.00000000000E+00 0.  1.
</event>
<event>
12    1  0.1066489E+000  0.1827454E+03  0.7818608E-02  0.1165336E+00
         21   -1    0    0  501  502  0.00000000000E+00  0.00000000000E+00  0.93907746054E+02  0.93907746054E+02  0.00000000000E+00 0. -1.
         21   -1    0    0  502  503 -0.00000000000E+00 -0.00000000000E+00 -0.51531147342E+03  0.51531147342E+03  0.00000000000E+00 0. -1.
         -6    2    1    2    0  503  0.58340300021E+02 -0.48298826024E+01 -0.38125354874E+03  0.42278853564E+03  0.17311545011E+03 0.  0.
        -24    2    3    3    0    0 -0.54746152762E+01  0.39286511948E+02 -0.11444955530E+03  0.14489456197E+03  0.79513092934E+02 0.  0.
          6    2    1    2  501    0 -0.58340300021E+02  0.48298826024E+01 -0.40150178619E+02  0.18643068383E+03  0.17238748405E+03 0.  0.
         24    2    5    5    0    0 -0.48794896324E+02  0.65574099589E+02 -0.52955743141E+02  0.12344618485E+03  0.75853446711E+02 0.  0.
          5    1    5    5  501    0 -0.95454036974E+01 -0.60744216987E+02  0.12805564522E+02  0.62984498981E+02  0.47000000000E+01 0. -1.
        -11    1    6    6    0    0  0.93847208471E+01  0.41994846907E+02 -0.28492883081E+01  0.43124918505E+02  0.00000000000E+00 0.  1.
         12    1    6    6    0    0 -0.58179617171E+02  0.23579252682E+02 -0.50106454833E+02  0.80321266344E+02  0.00000000000E+00 0. -1.
         -5    1    3    3    0  503  0.63814915298E+02 -0.44116394551E+02 -0.26680399345E+03  0.27789397367E+03  0.47000000000E+01 0.  1.
         11    1    4    4    0    0 -0.12333049091E+02 -0.15392906207E+02 -0.73869778566E+02  0.76457765117E+02  0.00000000000E+00 0. -1.
        -12    1    4    4    0    0  0.68584338150E+01  0.54679418155E+02 -0.40579776732E+02  0.68436796855E+02  0.00000000000E+00 0.  1.
</event>
<event>
12    1  0.1066489E+000  0.1923604E+03  0.7818608E-02  0.1156521E+00
         21   -1    0    0  501  502  0.00000000000E+00  0.00000000000E+00  0.23857986632E+03  0.23857986632E+03  0.00000000000E+00 0. -1.
         21   -1    0    0  502  503 -0.00000000000E+00 -0.00000000000E+00 -0.19419658076E+03  0.19419658076E+03  0.00000000000E+00 0. -1.
         -6    2    1    2    0  503  0.38109638741E+02 -0.74344701414E+02  0.12002096225E+03  0.22607958250E+03  0.17241655098E+03 0.  0.
        -24    2    3    3    0    0  0.48823564315E+02 -0.10253007621E+03  0.46043885685E+02  0.14605520240E+03  0.79472798997E+02 0.  0.
          6    2    1    2  501    0 -0.38109638741E+02  0.74344701414E+02 -0.75637676688E+02  0.20669686459E+03  0.17327162636E+03 0.  0.
         24    2    5    5    0    0  0.15774026562E+02  0.82831349268E+02 -0.94090505142E+02  0.14892083620E+03  0.78832353517E+02 0.  0.
          5    1    5    5  501    0 -0.53883665302E+02 -0.84866478538E+01  0.18452828454E+02  0.57776028387E+02  0.47000000000E+01 0. -1.
        -13    1    6    6    0    0  0.22300390269E+02  0.88616015653E+02 -0.10214201489E+03  0.13705143867E+03  0.00000000000E+00 0.  1.
         14    1    6    6    0    0 -0.65263637073E+01 -0.57846663850E+01  0.80515097487E+01  0.11869397527E+02  0.00000000000E+00 0. -1.
         -5    1    3    3    0  503 -0.10713925574E+02  0.28185374791E+02  0.73977076564E+02  0.80024380099E+02  0.47000000000E+01 0.  1.
         13    1    4    4    0    0  0.33451041992E+02 -0.10807189948E+03  0.56702728964E+02  0.12654527703E+03  0.00000000000E+00 0. -1.
        -14    1    4    4    0    0  0.15372522323E+02  0.55418232751E+01 -0.10658843279E+02  0.19509925367E+02  0.00000000000E+00 0.  1.
</event>
<event>
12    1  0.1066489E+000  0.2805290E+03  0.7818608E-02  0.1095605E+00
         21   -1    0    0  503  502  0.00000000000E+00  0.00000000000E+00  0.29591781563E+03  0.29591781563E+03  0.00000000000E+00 0. -1.
         21   -1    0    0  501  503 -0.00000000000E+00 -0.00000000000E+00 -0.26496773917E+03  0.26496773917E+03  0.00000000000E+00 0. -1.
          6    2    1    2  501    0 -0.47417297510E+02 -0.21600798350E+03  0.40084793395E+01  0.28055762040E+03  0.17259392058E+03 0.  0.
         24    2    3    3    0    0 -0.79081841732E+02 -0.84060081259E+02 -0.19673819125E+02  0.14273224710E+03  0.81641902538E+02 0.  0.
         -6    2    1    2    0  502  0.47417297510E+02  0.21600798350E+03  0.26941597117E+02  0.28032793440E+03  0.17014714841E+03 0.  0.
        -24    2    5    5    0    0  0.75645846307E+02  0.22055768780E+03  0.40457212340E+02  0.24835431040E+03  0.75333191583E+02 0.  0.
          5    1    3    3  501    0  0.31664544222E+02 -0.13194790224E+03  0.23682298465E+02  0.13782537330E+03  0.47000000000E+01 0. -1.
        -11    1    4    4    0    0 -0.29875363327E+02 -0.45805699679E+02  0.30591221428E+02  0.62661968414E+02  0.00000000000E+00 0.  1.
         12    1    4    4    0    0 -0.49206478405E+02 -0.38254381579E+02 -0.50265040553E+02  0.80070278686E+02  0.00000000000E+00 0. -1.
         -5    1    5    5    0  502 -0.28228548797E+02 -0.45497043066E+01 -0.13515615224E+02  0.31973623994E+02  0.47000000000E+01 0.  1.
         13    1    6    6    0    0  0.53434175410E+02  0.62915134800E+02  0.33257102912E+02  0.88991910772E+02  0.00000000000E+00 0. -1.
        -14    1    6    6    0    0  0.22211670897E+02  0.15764255300E+03  0.72001094283E+01  0.15936239963E+03  0.00000000000E+00 0.  1.
</event>
<event>
12    1  0.2359191E+000  0.4206567E+03  0.7818608E-02  0.1036860E+00
         21   -1    0    0  503  502  0.00000000000E+00  0.00000000000E+00  0.12316740153E+04  0.12316740153E+04  0.00000000000E+00 0.  1.
         21   -1    0    0  501  503 -0.00000000000E+00 -0.00000000000E+00 -0.11621664998E+04  0.11621664998E+04  0.00000000000E+00 0. -1.
          6    2    1    2  501    0  0.33347710178E+03  0.18964929608E+03  0.11552686986E+04  0.12294396381E+04  0.17234333484E+03 0.  0.
         24    2    3    3    0    0  0.29730291994E+03  0.15989619688E+03  0.11146653310E+04  0.11672741992E+04  0.78066868469E+02 0.  0.
         -6    2    1    2    0  502 -0.33347710178E+03 -0.18964929608E+03 -0.10857611831E+04  0.11644008769E+04  0.17256367681E+03 0.  0.
        -24    2    5    5    0    0 -0.18996589471E+03 -0.70136233400E+02 -0.74045403273E+03  0.77179680563E+03  0.79949998128E+02 0.  0.
          5    1    3    3  501    0  0.36174181844E+02  0.29753099195E+02  0.40603367520E+02  0.62165438933E+02  0.47000000000E+01 0. -1.
        -11    1    4    4    0    0  0.56392434732E+02  0.55876629302E+02  0.34816105397E+03  0.35709721911E+03  0.00000000000E+00 0.  1.
         12    1    4    4    0    0  0.24091048521E+03  0.10401956758E+03  0.76650427707E+03  0.81017698010E+03  0.00000000000E+00 0. -1.
         -5    1    5    5    0  502 -0.14351120707E+03 -0.11951306268E+03 -0.34530715034E+03  0.39260407127E+03  0.47000000000E+01 0.  1.
         13    1    6    6    0    0 -0.17623715694E+03 -0.34819962010E+02 -0.62287282829E+03  0.64826115529E+03  0.00000000000E+00 0. -1.
        -14    1    6    6    0    0 -0.13728737771E+02 -0.35316271390E+02 -0.11758120445E+03  0.12353565034E+03  0.00000000000E+00 0.  1.
</event>
<event>
12    1  0.1066489E+000  0.2148326E+03  0.7818608E-02  0.1137855E+00
         21   -1    0    0  501  502  0.00000000000E+00  0.00000000000E+00  0.34371412116E+03  0.34371412116E+03  0.00000000000E+00 0.  1.
         21   -1    0    0  502  503 -0.00000000000E+00 -0.00000000000E+00 -0.19286403537E+03  0.19286403537E+03  0.00000000000E+00 0.  1.
         -6    2    1    2    0  503  0.94597710791E+02  0.86278982897E+02  0.22357689374E+03  0.31006399834E+03  0.17251163983E+03 0.  0.
        -24    2    3    3    0    0  0.88047072250E+02  0.11217912569E+03  0.23022170956E+03  0.28213602242E+03  0.79134419958E+02 0.  0.
          6    2    1    2  501    0 -0.94597710791E+02 -0.86278982897E+02 -0.72726807942E+02  0.22651415819E+03  0.17212404100E+03 0.  0.
         24    2    5    5    0    0  0.15907884338E+02 -0.23223859033E+02 -0.30916827626E+02  0.92508189462E+02  0.82519733850E+02 0.  0.
          5    1    5    5  501    0 -0.11050559513E+03 -0.63055123864E+02 -0.41809980315E+02  0.13400596873E+03  0.47000000000E+01 0. -1.
        -11    1    6    6    0    0  0.34004282190E+02  0.72222534987E+01  0.12080163751E+02  0.36801936214E+02  0.00000000000E+00 0.  1.
         12    1    6    6    0    0 -0.18096397852E+02 -0.30446112531E+02 -0.42996991377E+02  0.55706253248E+02  0.00000000000E+00 0. -1.
         -5    1    3    3    0  503  0.65506385409E+01 -0.25900142792E+02 -0.66448158158E+01  0.27927975923E+02  0.47000000000E+01 0.  1.
         11    1    4    4    0    0  0.10162446451E+02  0.76624858933E+02  0.11584603372E+03  0.13926574544E+03  0.00000000000E+00 0. -1.
        -12    1    4    4    0    0  0.77884625799E+02  0.35554266756E+02  0.11437567584E+03  0.14287027698E+03  0.00000000000E+00 0.  1.
</event>
<event>
12    1  0.1066489E+000  0.1775775E+03  0.7818608E-02  0.1170640E+00
         21   -1    0    0  501  502  0.00000000000E+00  0.00000000000E+00  0.20380649966E+02  0.20380649966E+02  0.00000000000E+00 0.  1.
         21   -1    0    0  502  503 -0.00000000000E+00 -0.00000000000E+00 -0.26011822834E+04  0.26011822834E+04  0.00000000000E+00 0.  1.
         -6    2    1    2    0  503  0.12834872135E+02 -0.37944386644E+02 -0.44544091747E+03  0.47883122663E+03  0.17104742682E+03 0.  0.
        -24    2    3    3    0    0 -0.58678524444E+01 -0.49110862064E+01 -0.42881649376E+03  0.43712448487E+03  0.84472951266E+02 0.  0.
          6    2    1    2  501    0 -0.12834872135E+02  0.37944386644E+02 -0.21353607159E+04  0.21427317067E+04  0.17300077841E+03 0.  0.
         24    2    5    5    0    0  0.11233097977E+02  0.32201530078E+02 -0.20806492120E+04  0.20825014298E+04  0.80919348208E+02 0.  0.
          5    1    5    5  501    0 -0.24067970112E+02  0.57428565662E+01 -0.54711503962E+02  0.60230276876E+02  0.47000000000E+01 0. -1.
        -13    1    6    6    0    0  0.40565677096E+02 -0.34405709009E+01 -0.82471548375E+03  0.82571971082E+03  0.00000000000E+00 0.  1.
         14    1    6    6    0    0 -0.29332579119E+02  0.35642100979E+02 -0.12559337282E+04  0.12567817190E+04  0.00000000000E+00 0. -1.
         -5    1    3    3    0  503  0.18702724579E+02 -0.33033300438E+02 -0.16624423709E+02  0.41706741759E+02  0.47000000000E+01 0.  1.
         13    1    4    4    0    0  0.26853923928E+02 -0.69880930528E+01 -0.52496621515E+02  0.59378968881E+02  0.00000000000E+00 0. -1.
        -14    1    4    4    0    0 -0.32721776373E+02  0.20770068464E+01 -0.37631987224E+03  0.37774551599E+03  0.00000000000E+00 0.  1.
</event>
<event>
12    1  0.1066489E+000  0.1888678E+03  0.7818608E-02  0.1160162E+00
         21   -1    0    0  501  502  0.00000000000E+00  0.00000000000E+00  0.66365380376E+02  0.66365380376E+02  0.00000000000E+00 0. -1.
         21   -1    0    0  502  503 -0.00000000000E+00 -0.00000000000E+00 -0.55686789598E+03  0.55686789598E+03  0.00000000000E+00 0. -1.
         -6    2    1    2    0  503  0.50280591749E+02  0.58955399080E+02 -0.17755227715E+03  0.25922161660E+03  0.17224156991E+03 0.  0.
        -24    2    3    3    0    0  0.39168638133E+02 -0.35138160062E+02 -0.84907635256E+02  0.12662375441E+03  0.77816425972E+02 0.  0.
          6    2    1    2  501    0 -0.50280591749E+02 -0.58955399080E+02 -0.31295023845E+03  0.36401165975E+03  0.16900520614E+03 0.  0.
         24    2    5    5    0    0 -0.93301757785E+02 -0.51374614148E+02 -0.17838445352E+03  0.22245485313E+03  0.79502071917E+02 0.  0.
          5    1    5    5  501    0  0.43021166036E+02 -0.75807849320E+01 -0.13456578493E+03  0.14155680663E+03  0.47000000000E+01 0. -1.
        -13    1    6    6    0    0 -0.95915055829E+01  0.98058577429E+01  0.25174720516E+01  0.13945948908E+02  0.00000000000E+00 0.  1.
         14    1    6    6    0    0 -0.83710252202E+02 -0.61180471891E+02 -0.18090192557E+03  0.20850890422E+03  0.00000000000E+00 0. -1.
         -5    1    3    3    0  503  0.11111953616E+02  0.94093559142E+02 -0.92644641898E+02  0.13259786219E+03  0.47000000000E+01 0.  1.
         13    1    4    4    0    0 -0.96122553103E+01 -0.32409101213E+02 -0.67805036332E+01  0.34477826543E+02  0.00000000000E+00 0. -1.
        -14    1    4    4    0    0  0.48780893443E+02 -0.27290588487E+01 -0.78127131623E+02  0.92145927869E+02  0.00000000000E+00 0.  1.
</event>
<event>
12    1  0.1066489E+000  0.1860157E+03  0.7818608E-02  0.1162875E+00
         21   -1    0    0  503  502  0.00000000000E+00  0.00000000000E+00  0.12227682033E+04  0.12227682033E+04  0.00000000000E+00 0.  1.
         21   -1    0    0  501  503 -0.00000000000E+00 -0.00000000000E+00 -0.28899167119E+02  0.28899167119E+02  0.00000000000E+00 0.  1.
          6    2    1    2  501    0 -0.45140788865E+02  0.38449065794E+02  0.72413773355E+03  0.74764785366E+03  0.17631175356E+03 0.  0.
         24    2    3    3    0    0 -0.61285357172E+01  0.90471325362E+02  0.43915063077E+03  0.45529872994E+03  0.78873552703E+02 0.  0.
         -6    2    1    2    0  502  0.45140788865E+02 -0.38449065794E+02  0.46973130267E+03  0.50401951680E+03  0.17283563039E+03 0.  0.
        -24    2    5    5    0    0  0.19188140661E+01 -0.48076046685E+02  0.44124367653E+03  0.45115693353E+03  0.80818367268E+02 0.  0.
          5    1    3    3  501    0 -0.39012253148E+02 -0.52022259568E+02  0.28498710278E+03  0.29234912372E+03  0.47000000000E+01 0. -1.
        -11    1    4    4    0    0 -0.24973874406E+02  0.20861374257E+02  0.26228283114E+03  0.26429372836E+03  0.00000000000E+00 0.  1.
         12    1    4    4    0    0  0.18845338689E+02  0.69609951105E+02  0.17686779963E+03  0.19100500158E+03  0.00000000000E+00 0. -1.
         -5    1    5    5    0  502  0.43221974799E+02  0.96269808907E+01  0.28487626140E+02  0.52862583267E+02  0.47000000000E+01 0.  1.
         13    1    6    6    0    0 -0.20000983977E+02 -0.22703875174E+02  0.38109378357E+03  0.38229305145E+03  0.00000000000E+00 0. -1.
        -14    1    6    6    0    0  0.21919798043E+02 -0.25372171511E+02  0.60149892954E+02  0.68863882085E+02  0.00000000000E+00 0.  1.
</event>
<event>
12    1  0.1066489E+000  0.2321648E+03  0.7818608E-02  0.1125142E+00
         21   -1    0    0  503  502  0.00000000000E+00  0.00000000000E+00  0.57215406187E+03  0.57215406187E+03  0.00000000000E+00 0.  1.
         21   -1    0    0  501  503 -0.00000000000E+00 -0.00000000000E+00 -0.19647401603E+03  0.19647401603E+03  0.00000000000E+00 0.  1.
          6    2    1    2  501    0 -0.15387334054E+03 -0.27148277116E+02  0.46518107578E+03  0.51989798303E+03  0.17171617750E+03 0.  0.
         24    2    3    3    0    0 -0.10685664702E+03 -0.39155247659E+02  0.44698282804E+03  0.46785950657E+03  0.78405311660E+02 0.  0.
         -6    2    1    2    0  502  0.15387334054E+03  0.27148277116E+02 -0.89501029942E+02  0.24873009487E+03  0.17158727183E+03 0.  0.
        -24    2    5    5    0    0  0.20205564295E+02  0.96151384664E+01  0.70998464575E+01  0.82813535486E+02  0.79416359296E+02 0.  0.
          5    1    3    3  501    0 -0.47016693521E+02  0.12006970543E+02  0.18198247742E+02  0.52038476459E+02  0.47000000000E+01 0. -1.
        -13    1    4    4    0    0 -0.11695819384E+03 -0.23364731992E+02  0.37755096485E+03  0.39594173924E+03  0.00000000000E+00 0.  1.
         14    1    4    4    0    0  0.10101546820E+02 -0.15790515668E+02  0.69431863185E+02  0.71917767336E+02  0.00000000000E+00 0. -1.
         -5    1    5    5    0  502  0.13366777625E+03  0.17533138650E+02 -0.96600876400E+02  0.16591655939E+03  0.47000000000E+01 0.  1.
         11    1    6    6    0    0 -0.24693024529E+02  0.82444876297E+01 -0.17721519352E+02  0.31492368676E+02  0.00000000000E+00 0. -1.
        -12    1    6    6    0    0  0.44898588825E+02  0.13706508367E+01  0.24821365809E+02  0.51321166811E+02  0.00000000000E+00 0.  1.
</event>
<event>
12    1  0.1066489E+000  0.1796573E+03  0.7818608E-02  0.1168333E+00
         21   -1    0    0  501  502  0.00000000000E+00  0.00000000000E+00  0.57127082367E+03  0.57127082367E+03  0.00000000000E+00 0.  1.
         21   -1    0    0  502  503 -0.00000000000E+00 -0.00000000000E+00 -0.75368217781E+02  0.75368217781E+02  0.00000000000E+00 0.  1.
         -6    2    1    2    0  503  0.23127714913E+00 -0.48355685782E+02  0.85506622646E+02  0.19896765081E+03  0.17302721669E+03 0.  0.
        -24    2    3    3    0    0 -0.26547977539E+02 -0.25450343087E+02 -0.23645179106E+02  0.84172228287E+02  0.71926034544E+02 0.  0.
          6    2    1    2  501    0 -0.23127714913E+00  0.48355685782E+02  0.41039598325E+03  0.44767139065E+03  0.17218154693E+03 0.  0.
         24    2    5    5    0    0 -0.29295794452E+01 -0.33604502429E+02  0.12626502730E+03  0.15190586965E+03  0.77425390502E+02 0.  0.
          5    1    5    5  501    0  0.26983022961E+01  0.81960188211E+02  0.28413095594E+03  0.29576552100E+03  0.47000000000E+01 0. -1.
        -13    1    6    6    0    0 -0.39731805207E+02 -0.11203464227E+02  0.65279989204E+02  0.77237367550E+02  0.00000000000E+00 0.  1.
         14    1    6    6    0    0  0.36802225761E+02 -0.22401038202E+02  0.60985038099E+02  0.74668502097E+02  0.00000000000E+00 0. -1.
         -5    1    3    3    0  503  0.26779254689E+02 -0.22905342695E+02  0.10915180175E+03  0.11479542252E+03  0.47000000000E+01 0.  1.
         13    1    4    4    0    0 -0.18633600035E+02  0.16032876690E+02  0.13398684370E+02  0.27996230605E+02  0.00000000000E+00 0. -1.
        -14    1    4    4    0    0 -0.79143775043E+01 -0.41483219777E+02 -0.37043863477E+02  0.56175997683E+02  0.00000000000E+00 0.  1.
</event>
<event>
12    1  0.1066489E+000  0.2484048E+03  0.7818608E-02  0.1114355E+00
         21   -1    0    0  501  502  0.00000000000E+00  0.00000000000E+00  0.49889919035E+03  0.49889919035E+03  0.00000000000E+00 0.  1.
         21   -1    0    0  502  503 -0.00000000000E+00 -0.00000000000E+00 -0.14060283235E+03  0.14060283235E+03  0.00000000000E+00 0.  1.
         -6    2    1    2    0  503 -0.73489378440E+02 -0.16361162321E+03  0.29038478997E+03  0.38198125431E+03  0.17151355750E+03 0.  0.
        -24    2    3    3    0    0 -0.65382043845E+02 -0.17546147072E+03  0.18271742985E+03  0.27325913975E+03  0.78888268569E+02 0.  0.
          6    2    1    2  501    0  0.73489378440E+02  0.16361162321E+03  0.67911568036E+02  0.25752076839E+03  0.17185899186E+03 0.  0.
         24    2    5    5    0    0 -0.21060853214E+02  0.40324610513E+02  0.21104238334E+02  0.95186391500E+02  0.80903810170E+02 0.  0.
          5    1    5    5  501    0  0.94550231654E+02  0.12328701270E+03  0.46807329702E+02  0.16233437689E+03  0.47000000000E+01 0. -1.
        -13    1    6    6    0    0  0.77804020920E+01 -0.50285988481E+01 -0.23552063946E+02  0.25308519893E+02  0.00000000000E+00 0.  1.
         14    1    6    6    0    0 -0.28841255306E+02  0.45353209361E+02  0.44656302279E+02  0.69877871606E+02  0.00000000000E+00 0. -1.
         -5    1    3    3    0  503 -0.81073345948E+01  0.11849847513E+02  0.10766736012E+03  0.10872211457E+03  0.47000000000E+01 0.  1.
         13    1    4    4    0    0 -0.13817785720E+02 -0.10752867101E+03  0.14226677209E+03  0.17886637675E+03  0.00000000000E+00 0. -1.
        -14    1    4    4    0    0 -0.51564258125E+02 -0.67932799713E+02  0.40450657767E+02  0.94392762999E+02  0.00000000000E+00 0.  1.
</event>
<event>
12    1  0.1066489E+000  0.2059906E+03  0.7818608E-02  0.1144992E+00
         21   -1    0    0  501  502  0.00000000000E+00  0.00000000000E+00  0.10565513574E+03  0.10565513574E+03  0.00000000000E+00 0. -1.
         21   -1    0    0  502  503 -0.00000000000E+00 -0.00000000000E+00 -0.53172537287E+03  0.53172537287E+03  0.00000000000E+00 0. -1.
         -6    2    1    2    0  503 -0.44079020072E+02 -0.10420276185E+03 -0.37149882773E+03  0.42428391128E+03  0.17089260597E+03 0.  0.
        -24    2    3    3    0    0  0.18981059379E+02 -0.15340494043E+02 -0.24151171038E+03  0.25460239508E+03  0.76804049110E+02 0.  0.
          6    2    1    2  501    0  0.44079020072E+02  0.10420276185E+03 -0.54571409402E+02  0.21309659733E+03  0.17213641532E+03 0.  0.
         24    2    5    5    0    0  0.20276456943E+02  0.64517786656E+02 -0.10259368447E+03  0.14624087079E+03  0.79292172984E+02 0.  0.
          5    1    5    5  501    0  0.23802563129E+02  0.39684975197E+02  0.48022275067E+02  0.66855726534E+02  0.47000000000E+01 0. -1.
        -11    1    6    6    0    0 -0.26185178712E+01  0.77734524025E+02 -0.76267539399E+02  0.10893232040E+03  0.00000000000E+00 0.  1.
         12    1    6    6    0    0  0.22894974815E+02 -0.13216737369E+02 -0.26326145070E+02  0.37308550396E+02  0.00000000000E+00 0. -1.
         -5    1    3    3    0  503 -0.63060079451E+02 -0.88862267809E+02 -0.12998711735E+03  0.16968151620E+03  0.47000000000E+01 0.  1.
         13    1    4    4    0    0  0.68417320262E+01  0.87223682102E+01  0.49786827399E+00  0.11096705688E+02  0.00000000000E+00 0. -1.
        -14    1    4    4    0    0  0.12139327353E+02 -0.24062862254E+02 -0.24200957865E+03  0.24350568939E+03  0.00000000000E+00 0.  1.
</event>
<event>
12    1  0.1066489E+000  0.4017250E+03  0.7818608E-02  0.1043185E+00
         21   -1    0    0  503  502  0.00000000000E+00  0.00000000000E+00  0.50809697992E+03  0.50809697992E+03  0.00000000000E+00 0. -1.
         21   -1    0    0  501  503 -0.00000000000E+00 -0.00000000000E+00 -0.44970382946E+03  0.44970382946E+03  0.00000000000E+00 0. -1.
          6    2    1    2  501    0  0.34315245309E+03  0.11836841682E+03  0.28874815455E+03  0.49471724291E+03  0.17206093547E+03 0.  0.
         24    2    3    3    0    0  0.20111662576E+03  0.43663837511E+01  0.12573271127E+03  0.25024482209E+03  0.79666767480E+02 0.  0.
         -6    2    1    2    0  502 -0.34315245309E+03 -0.11836841682E+03 -0.23035500409E+03  0.46308356647E+03  0.17209960332E+03 0.  0.
        -24    2    5    5    0    0 -0.18724297383E+03 -0.10817144321E+03 -0.73859134061E+02  0.24189407456E+03  0.79350987699E+02 0.  0.
          5    1    3    3  501    0  0.14203582733E+03  0.11400203307E+03  0.16301544328E+03  0.24447242081E+03  0.47000000000E+01 0. -1.
        -11    1    4    4    0    0  0.32260445084E+01 -0.15718128420E+02  0.17709497270E+02  0.23897556731E+02  0.00000000000E+00 0.  1.
         12    1    4    4    0    0  0.19789058125E+03  0.20084512171E+02  0.10802321400E+03  0.22634726536E+03  0.00000000000E+00 0. -1.
         -5    1    5    5    0  502 -0.15590947926E+03 -0.10196973603E+02 -0.15649587003E+03  0.22118949191E+03  0.47000000000E+01 0.  1.
         13    1    6    6    0    0 -0.57119201134E+02 -0.50013914966E+02 -0.63523205294E+02  0.98990870484E+02  0.00000000000E+00 0. -1.
        -14    1    6    6    0    0 -0.13012377269E+03 -0.58157528247E+02 -0.10335928766E+02  0.14290320408E+03  0.00000000000E+00 0.  1.
</event>
<event>
12    1  0.1066489E+000  0.3074441E+03  0.7818608E-02  0.1081661E+00
         21   -1    0    0  501  502  0.00000000000E+00  0.00000000000E+00  0.17252438168E+04  0.17252438168E+04  0.00000000000E+00 0.  1.
         21   -1    0    0  502  503 -0.00000000000E+00 -0.00000000000E+00 -0.55297181695E+02  0.55297181695E+02  0.00000000000E+00 0.  1.
         -6    2    1    2    0  503 -0.19650231657E+03 -0.16241921546E+03  0.92921845848E+03  0.97854341992E+03  0.17060808631E+03 0.  0.
        -24    2    3    3    0    0 -0.21054339282E+03 -0.12240160065E+03  0.85828621933E+03  0.89576640700E+03  0.80196942014E+02 0.  0.
          6    2    1    2  501    0  0.19650231657E+03  0.16241921546E+03  0.74072817664E+03  0.80199757859E+03  0.17183923426E+03 0.  0.
         24    2    5    5    0    0  0.57479539040E+02  0.55582265234E+01  0.24516884059E+03  0.26391408315E+03  0.78791443685E+02 0.  0.
          5    1    5    5  501    0  0.13902277753E+03  0.15686098894E+03  0.49555933605E+03  0.53808349544E+03  0.47000000000E+01 0. -1.
        -13    1    6    6    0    0  0.24745065635E+01  0.20816382498E+02  0.16011269665E+03  0.16147916457E+03  0.00000000000E+00 0.  1.
         14    1    6    6    0    0  0.55005032477E+02 -0.15258155975E+02  0.85056143936E+02  0.10243491857E+03  0.00000000000E+00 0. -1.
         -5    1    3    3    0  503  0.14041076249E+02 -0.40017614810E+02  0.70932239154E+02  0.82777012924E+02  0.47000000000E+01 0.  1.
         13    1    4    4    0    0 -0.89921762780E+02 -0.86613060963E+02  0.52173782166E+03  0.53646817268E+03  0.00000000000E+00 0. -1.
        -14    1    4    4    0    0 -0.12062163004E+03 -0.35788539688E+02  0.33654839767E+03  0.35929823432E+03  0.00000000000E+00 0.  1.
</event>
<event>
12    1  0.1066489E+000  0.3113463E+03  0.7818608E-02  0.1079718E+00
         21   -1    0    0  503  502  0.00000000000E+00  0.00000000000E+00  0.59052784238E+03  0.59052784238E+03  0.00000000000E+00 0.  1.
         21   -1    0    0  501  503 -0.00000000000E+00 -0.00000000000E+00 -0.18992685017E+03  0.18992685017E+03  0.00000000000E+00 0.  1.
          6    2    1    2  501    0  0.12438214580E+03 -0.22771421109E+03  0.34428953308E+03  0.46418941716E+03  0.17208094690E+03 0.  0.
         24    2    3    3    0    0  0.23745927561E+02 -0.17737247576E+03  0.18547565658E+03  0.26949510264E+03  0.78749774157E+02 0.  0.
         -6    2    1    2    0  502 -0.12438214580E+03  0.22771421109E+03  0.56311459133E+02  0.31626527539E+03  0.17183731800E+03 0.  0.
        -24    2    5    5    0    0 -0.11426951451E+03  0.14672324225E+03  0.95803483434E+02  0.22547148524E+03  0.84106191536E+02 0.  0.
          5    1    3    3  501    0  0.10063621824E+03 -0.50341735334E+02  0.15881387650E+03  0.19469431452E+03  0.47000000000E+01 0. -1.
        -11    1    4    4    0    0 -0.17818859855E+02 -0.69850423807E+01  0.10850811304E+02  0.22000970195E+02  0.00000000000E+00 0.  1.
         12    1    4    4    0    0  0.41564787416E+02 -0.17038743338E+03  0.17462484528E+03  0.24749413245E+03  0.00000000000E+00 0. -1.
         -5    1    5    5    0  502 -0.10112631294E+02  0.80990968848E+02 -0.39492024301E+02  0.90793790152E+02  0.47000000000E+01 0.  1.
         11    1    6    6    0    0 -0.85139977183E+02  0.10813187226E+03  0.25225876243E+02  0.13992019992E+03  0.00000000000E+00 0. -1.
        -12    1    6    6    0    0 -0.29129537328E+02  0.38591369982E+02  0.70577607191E+02  0.85551285314E+02  0.00000000000E+00 0.  1.
</event>
<event>
12    1  0.1066489E+000  0.2907175E+03  0.7818608E-02  0.1090505E+00
         21   -1    0    0  503  502  0.00000000000E+00  0.00000000000E+00  0.12491832143E+04  0.12491832143E+04  0.00000000000E+00 0. -1.
         21   -1    0    0  501  503 -0.00000000000E+00 -0.00000000000E+00 -0.74785202762E+02  0.74785202762E+02  0.00000000000E+00 0. -1.
          6    2    1    2  501    0 -0.90585589737E+02  0.21564932429E+03  0.80091104567E+03  0.85067235117E+03  0.16575453488E+03 0.  0.
         24    2    3    3    0    0 -0.82120632747E+02  0.17980395804E+03  0.77867107946E+03  0.80739127129E+03  0.80490703311E+02 0.  0.
         -6    2    1    2    0  502  0.90585589737E+02 -0.21564932429E+03  0.37348696588E+03  0.47329606591E+03  0.17264493095E+03 0.  0.
        -24    2    5    5    0    0  0.42755600550E+02 -0.29055570873E+02  0.98067914941E+02  0.13716710211E+03  0.80778898135E+02 0.  0.
          5    1    3    3  501    0 -0.84649569902E+01  0.35845366254E+02  0.22239966215E+02  0.43281079884E+02  0.47000000000E+01 0. -1.
        -13    1    4    4    0    0 -0.50149785110E+02  0.17238274123E+03  0.68505079169E+03  0.70818457878E+03  0.00000000000E+00 0.  1.
         14    1    4    4    0    0 -0.31970847637E+02  0.74212168079E+01  0.93620287765E+02  0.99206692510E+02  0.00000000000E+00 0. -1.
         -5    1    5    5    0  502  0.47829989188E+02 -0.18659375342E+03  0.27541905094E+03  0.33612896379E+03  0.47000000000E+01 0.  1.
         13    1    6    6    0    0 -0.12158090645E+02 -0.13969476619E+02  0.72347134493E+02  0.74679805265E+02  0.00000000000E+00 0. -1.
        -14    1    6    6    0    0  0.54913691194E+02 -0.15086094254E+02  0.25720780448E+02  0.62487296847E+02  0.00000000000E+00 0.  1.
</event>
<event>
12    1  0.1066489E+000  0.5178274E+03  0.7818608E-02  0.1009543E+00
         21   -1    0    0  503  502  0.00000000000E+00  0.00000000000E+00  0.87332190072E+03  0.87332190072E+03  0.00000000000E+00 0. -1.
         21   -1    0    0  501  503 -0.00000000000E+00 -0.00000000000E+00 -0.30672943002E+03  0.30672943002E+03  0.00000000000E+00 0. -1.
          6    2    1    2  501    0 -0.47944694451E+03 -0.97585425588E+02  0.33964618613E+03  0.61927760150E+03  0.16956688383E+03 0.  0.
         24    2    3    3    0    0 -0.16242469362E+03 -0.13431912619E+02  0.70046137137E+02  0.19467049167E+03  0.80174444975E+02 0.  0.
         -6    2    1    2    0  502  0.47944694451E+03  0.97585425588E+02  0.22694628457E+03  0.56077372924E+03  0.15352612623E+03 0.  0.
        -24    2    5    5    0    0  0.20826967244E+03  0.73067502746E+02  0.64648924545E+02  0.24375517379E+03  0.80758806877E+02 0.  0.
          5    1    3    3  501    0 -0.31702225089E+03 -0.84153512969E+02  0.26960004899E+03  0.42460710983E+03  0.47000000000E+01 0. -1.
        -13    1    4    4    0    0 -0.10790639710E+03  0.82545987687E+01  0.80751459197E+02  0.13502861585E+03  0.00000000000E+00 0.  1.
         14    1    4    4    0    0 -0.54518296516E+02 -0.21686511388E+02 -0.10705322059E+02  0.59641875822E+02  0.00000000000E+00 0. -1.
         -5    1    5    5    0  502  0.27117727206E+03  0.24517922841E+02  0.16229736003E+03  0.31701855544E+03  0.47000000000E+01 0.  1.
         11    1    6    6    0    0  0.38960526814E+02  0.21423835383E+02 -0.18537937516E+02  0.48172175574E+02  0.00000000000E+00 0. -1.
        -12    1    6    6    0    0  0.16930914563E+03  0.51643667363E+02  0.83186862061E+02  0.19558299822E+03  0.00000000000E+00 0.  1.
</event>
<event>
12    1  0.1066489E+000  0.2457824E+03  0.7818608E-02  0.1116045E+00
         21   -1    0    0  503  502  0.00000000000E+00  0.00000000000E+00  0.86407275834E+02  0.86407275834E+02  0.00000000000E+00 0. -1.
         21   -1    0    0  501  503 -0.00000000000E+00 -0.00000000000E+00 -0.73743283077E+03  0.73743283077E+03  0.00000000000E+00 0. -1.
          6    2    1    2  501    0 -0.94252083766E+02  0.14737934280E+03 -0.42019922470E+03  0.48666092756E+03  0.17224210867E+03 0.  0.
         24    2    3    3    0    0 -0.90647056856E+02  0.14486478177E+03 -0.23436434469E+03  0.30071466688E+03  0.79372355999E+02 0.  0.
         -6    2    1    2    0  502  0.94252083766E+02 -0.14737934280E+03 -0.23082633023E+03  0.33717917904E+03  0.17264089339E+03 0.  0.
        -24    2    5    5    0    0  0.10981075066E+02 -0.25981262219E+02 -0.29290420111E+02  0.87558731306E+02  0.77543489227E+02 0.  0.
          5    1    3    3  501    0 -0.36050269098E+01  0.25145610296E+01 -0.18583488001E+03  0.18594626069E+03  0.47000000000E+01 0. -1.
        -11    1    4    4    0    0 -0.60795181307E+02  0.40327229632E+02 -0.56576460132E+02  0.92321370012E+02  0.00000000000E+00 0.  1.
         12    1    4    4    0    0 -0.29851875550E+02  0.10453755214E+03 -0.17778788456E+03  0.20839329686E+03  0.00000000000E+00 0. -1.
         -5    1    5    5    0  502  0.83271008700E+02 -0.12139808058E+03 -0.20153591012E+03  0.24962044773E+03  0.47000000000E+01 0.  1.
         13    1    6    6    0    0  0.22627591660E+02 -0.88549006876E+01 -0.51650416061E+02  0.57080492725E+02  0.00000000000E+00 0. -1.
        -14    1    6    6    0    0 -0.11646516594E+02 -0.17126361531E+02  0.22359995950E+02  0.30478238580E+02  0.00000000000E+00 0.  1.
</event>
<event>
12    1  0.1066489E+000  0.3100083E+03  0.7818608E-02  0.1080344E+00
         21   -1    0    0  503  502  0.00000000000E+00  0.00000000000E+00  0.21036672526E+04  0.21036672526E+04  0.00000000000E+00 0. -1.
         21   -1    0    0  501  503 -0.00000000000E+00 -0.00000000000E+00 -0.45689071600E+02  0.45689071600E+02  0.00000000000E+00 0. -1.
          6    2    1    2  501    0 -0.11393273080E+03 -0.23132072975E+03  0.10155571880E+04  0.10618199204E+04  0.17209065664E+03 0.  0.
         24    2    3    3    0    0 -0.14649211829E+03 -0.20476431622E+03  0.92423415788E+03  0.96118522140E+03  0.79245727528E+02 0.  0.
         -6    2    1    2    0  502  0.11393273080E+03  0.23132072975E+03  0.10424209930E+04  0.10875364038E+04  0.17205800121E+03 0.  0.
        -24    2    5    5    0    0  0.98413606200E+02  0.20963592279E+03  0.10281604338E+04  0.10569336649E+04  0.79764881380E+02 0.  0.
          5    1    3    3  501    0  0.32559387482E+02 -0.26556413531E+02  0.91323030149E+02  0.10063469903E+03  0.47000000000E+01 0. -1.
        -13    1    4    4    0    0  0.15521896591E+01 -0.35362659467E+02  0.79849072675E+02  0.87343009934E+02  0.00000000000E+00 0.  1.
         14    1    4    4    0    0 -0.14804430795E+03 -0.16940165676E+03  0.84438508520E+03  0.87384221147E+03  0.00000000000E+00 0. -1.
         -5    1    5    5    0  502  0.15519124605E+02  0.21684806967E+02  0.14260559219E+02  0.30602738945E+02  0.47000000000E+01 0.  1.
         13    1    6    6    0    0  0.92555817495E+02  0.10961411545E+03  0.55127985970E+03  0.56964139365E+03  0.00000000000E+00 0. -1.
        -14    1    6    6    0    0  0.58577887055E+01  0.10002180734E+03  0.47688057410E+03  0.48729227122E+03  0.00000000000E+00 0.  1.
</event>
<event>
12    1  0.1066489E+000  0.1929700E+03  0.7818608E-02  0.1155822E+00
         21   -1    0    0  501  502  0.00000000000E+00  0.00000000000E+00  0.52186108878E+03  0.52186108878E+03  0.00000000000E+00 0. -1.
         21   -1    0    0  502  503 -0.00000000000E+00 -0.00000000000E+00 -0.71857672655E+02  0.71857672655E+02  0.00000000000E+00 0. -1.
         -6    2    1    2    0  503 -0.69968362395E+02  0.52177428080E+02  0.25029933557E+03  0.31601544679E+03  0.17204054604E+03 0.  0.
        -24    2    3    3    0    0 -0.78970700500E+02  0.73094231849E+02  0.25806893660E+03  0.29149991148E+03  0.82422594525E+02 0.  0.
          6    2    1    2  501    0  0.69968362395E+02 -0.52177428080E+02  0.19970408055E+03  0.27770331465E+03  0.17210274675E+03 0.  0.
         24    2    5    5    0    0 -0.17598107835E+02 -0.70037808338E+02  0.11039203220E+03  0.15126909510E+03  0.74033440846E+02 0.  0.
          5    1    5    5  501    0  0.87566470230E+02  0.17860380258E+02  0.89312048348E+02  0.12643421954E+03  0.47000000000E+01 0. -1.
        -13    1    6    6    0    0  0.18240224650E+02 -0.59147249374E+02  0.88137448745E+02  0.10770010573E+03  0.00000000000E+00 0.  1.
         14    1    6    6    0    0 -0.35838332485E+02 -0.10890558964E+02  0.22254583458E+02  0.43568989370E+02  0.00000000000E+00 0. -1.
         -5    1    3    3    0  503  0.90023381045E+01 -0.20916803769E+02 -0.77696010261E+01  0.24515535306E+02  0.47000000000E+01 0.  1.
         11    1    4    4    0    0  0.14977139506E+02  0.13193347069E+02  0.18177965251E+02  0.26996620813E+02  0.00000000000E+00 0. -1.
        -12    1    4    4    0    0 -0.93947840006E+02  0.59900884780E+02  0.23989097135E+03  0.26450329067E+03  0.00000000000E+00 0.  1.
</event>
<event>
12    1  0.1066489E+000  0.2760717E+03  0.7818608E-02  0.1097855E+00
         21   -1    0    0  503  502  0.00000000000E+00  0.00000000000E+00  0.88663270031E+02  0.88663270031E+02  0.00000000000E+00 0.  1.
         21   -1    0    0  501  503 -0.00000000000E+00 -0.00000000000E+00 -0.12599011504E+04  0.12599011504E+04  0.00000000000E+00 0.  1.
          6    2    1    2  501    0 -0.21205176903E+03  0.36974421600E+02 -0.20554683381E+03  0.34418755000E+03  0.17286557807E+03 0.  0.
         24    2    3    3    0    0 -0.19317099425E+03  0.18042593246E+02 -0.94298914003E+02  0.22967516009E+03  0.78853191384E+02 0.  0.
         -6    2    1    2    0  502  0.21205176903E+03 -0.36974421600E+02 -0.96569104657E+03  0.10043768704E+04  0.17286017427E+03 0.  0.
        -24    2    5    5    0    0  0.11203018777E+03 -0.33729604353E+02 -0.31070234902E+03  0.34177055484E+03  0.81133921925E+02 0.  0.
          5    1    3    3  501    0 -0.18880774789E+02  0.18931828355E+02 -0.11124791980E+03  0.11451238991E+03  0.47000000000E+01 0. -1.
        -13    1    4    4    0    0 -0.59007948271E+01 -0.17030611418E+02 -0.25324311314E+01  0.18200942621E+02  0.00000000000E+00 0.  1.
         14    1    4    4    0    0 -0.18727019942E+03  0.35073204664E+02 -0.91766482872E+02  0.21147421747E+03  0.00000000000E+00 0. -1.
         -5    1    5    5    0  502  0.10002158126E+03 -0.32448172475E+01 -0.65498869755E+03  0.66260631560E+03  0.47000000000E+01 0.  1.
         11    1    6    6    0    0  0.99069318352E+02  0.32563909742E+01 -0.18211231579E+03  0.20734085339E+03  0.00000000000E+00 0. -1.
        -12    1    6    6    0    0  0.12960869419E+02 -0.36985995327E+02 -0.12859003323E+03  0.13442970146E+03  0.00000000000E+00 0.  1.
</event>
<event>
12    1  0.1066489E+000  0.1967173E+03  0.7818608E-02  0.1154360E+00
         21   -1    0    0  503  502  0.00000000000E+00  0.00000000000E+00  0.32978872173E+02  0.32978872173E+02  0.00000000000E+00 0.  1.
         21   -1    0    0  501  503 -0.00000000000E+00 -0.00000000000E+00 -0.11247260300E+04  0.11247260300E+04  0.00000000000E+00 0.  1.
          6    2    1    2  501    0 -0.42972908905E+02  0.29507457037E+02 -0.52991085663E+03  0.56242536854E+03  0.18110609677E+03 0.  0.
         24    2    3    3    0    0 -0.86383626636E+02  0.58317064499E+02 -0.32703642499E+03  0.35291496568E+03  0.82055705263E+02 0.  0.
         -6    2    1    2    0  502  0.42972908905E+02 -0.29507457037E+02 -0.56183630115E+03  0.59527953359E+03  0.18968482515E+03 0.  0.
        -24    2    5    5    0    0 -0.28651665234E+02 -0.73632509120E+02 -0.31266553210E+03  0.33224861907E+03  0.79917116998E+02 0.  0.
          5    1    3    3  501    0  0.43410717731E+02 -0.28809607462E+02 -0.20287443164E+03  0.20951040287E+03  0.47000000000E+01 0. -1.
        -11    1    4    4    0    0 -0.55332358247E+02  0.75071000117E+02 -0.27196551381E+03  0.28751098349E+03  0.00000000000E+00 0.  1.
         12    1    4    4    0    0 -0.31051268388E+02 -0.16753935619E+02 -0.55070911182E+02  0.65403982185E+02  0.00000000000E+00 0. -1.
         -5    1    5    5    0  502  0.71624574138E+02  0.44125052083E+02 -0.24917076905E+03  0.26303091452E+03  0.47000000000E+01 0.  1.
         11    1    6    6    0    0  0.18116052719E+01 -0.45092459157E+02 -0.54634738911E+02  0.70863012089E+02  0.00000000000E+00 0. -1.
        -12    1    6    6    0    0 -0.30463270505E+02 -0.28540049963E+02 -0.25803079319E+03  0.26138560698E+03  0.00000000000E+00 0.  1.
</event>
<event>
12    1  0.1066489E+000  0.2506877E+03  0.7818608E-02  0.1112873E+00
         21   -1    0    0  501  502  0.00000000000E+00  0.00000000000E+00  0.33669440833E+03  0.33669440833E+03  0.00000000000E+00 0. -1.
         21   -1    0    0  502  503 -0.00000000000E+00 -0.00000000000E+00 -0.20272343550E+03  0.20272343550E+03  0.00000000000E+00 0. -1.
         -6    2    1    2    0  503 -0.15906477717E+03  0.89826942945E+02 -0.89782710339E+01  0.25084846748E+03  0.17167953072E+03 0.  0.
        -24    2    3    3    0    0 -0.25489241578E+02 -0.59217519876E+01  0.12789399401E+02  0.84998662635E+02  0.79852584991E+02 0.  0.
          6    2    1    2  501    0  0.15906477717E+03 -0.89826942945E+02  0.14294924386E+03  0.28856937636E+03  0.17166046613E+03 0.  0.
         24    2    5    5    0    0  0.10471707281E+03  0.14587050577E+01  0.12386236652E+03  0.18052706340E+03  0.79248606450E+02 0.  0.
          5    1    5    5  501    0  0.54347704366E+02 -0.91285648002E+02  0.19086877345E+02  0.10804231295E+03  0.47000000000E+01 0. -1.
        -11    1    6    6    0    0  0.69082062243E+02  0.49500047302E+01  0.22178948964E+02  0.72723721355E+02  0.00000000000E+00 0.  1.
         12    1    6    6    0    0  0.35635010562E+02 -0.34912996726E+01  0.10168341756E+03  0.10780334205E+03  0.00000000000E+00 0. -1.
         -5    1    3    3    0  503 -0.13357553559E+03  0.95748694932E+02 -0.21767670435E+02  0.16584980484E+03  0.47000000000E+01 0.  1.
         13    1    4    4    0    0 -0.92165809281E+01  0.28619445623E+01  0.45992127161E+02  0.46993742684E+02  0.00000000000E+00 0. -1.
        -14    1    4    4    0    0 -0.16272660650E+02 -0.87836965499E+01 -0.33202727760E+02  0.38004919950E+02  0.00000000000E+00 0.  1.
</event>
<event>
12    1  0.1066489E+000  0.2294301E+03  0.7818608E-02  0.1127093E+00
         21   -1    0    0  503  502  0.00000000000E+00  0.00000000000E+00  0.15715140150E+03  0.15715140150E+03  0.00000000000E+00 0. -1.
         21   -1    0    0  501  503 -0.00000000000E+00 -0.00000000000E+00 -0.33510090731E+03  0.33510090731E+03  0.00000000000E+00 0. -1.
          6    2    1    2  501    0 -0.13838284234E+03 -0.61888566877E+02 -0.99133973655E+02  0.24966199300E+03  0.17182421323E+03 0.  0.
         24    2    3    3    0    0 -0.25119249500E+01 -0.73712215896E+01 -0.18030751204E+02  0.82231799123E+02  0.79851838572E+02 0.  0.
         -6    2    1    2    0  502  0.13838284234E+03  0.61888566877E+02 -0.78815532160E+02  0.24259031581E+03  0.17221546809E+03 0.  0.
        -24    2    5    5    0    0  0.54892094429E+02 -0.54743879603E+01 -0.94256099127E+02  0.13410541464E+03  0.77826339115E+02 0.  0.
          5    1    3    3  501    0 -0.13587091739E+03 -0.54517345287E+02 -0.81103222451E+02  0.16743019388E+03  0.47000000000E+01 0. -1.
        -13    1    4    4    0    0 -0.20191050312E+02 -0.39016773360E+02 -0.11323090363E+02  0.45367383565E+02  0.00000000000E+00 0.  1.
         14    1    4    4    0    0  0.17679125362E+02  0.31645551771E+02 -0.67076608407E+01  0.36864415558E+02  0.00000000000E+00 0. -1.
         -5    1    5    5    0  502  0.83490747916E+02  0.67362954837E+02  0.15440566967E+02  0.10848490116E+03  0.47000000000E+01 0.  1.
         13    1    6    6    0    0  0.82617066884E+01 -0.14429690274E+02  0.10100065961E+02  0.19454641894E+02  0.00000000000E+00 0. -1.
        -14    1    6    6    0    0  0.46630387741E+02  0.89553023137E+01 -0.10435616509E+03  0.11465077275E+03  0.00000000000E+00 0.  1.
</event>
<event>
12    1  0.1066489E+000  0.1777903E+03  0.7818608E-02  0.1170463E+00
         21   -1    0    0  501  502  0.00000000000E+00  0.00000000000E+00  0.34927700296E+02  0.34927700296E+02  0.00000000000E+00 0.  1.
         21   -1    0    0  502  503 -0.00000000000E+00 -0.00000000000E+00 -0.89812851310E+03  0.89812851310E+03  0.00000000000E+00 0.  1.
         -6    2    1    2    0  503  0.45285096913E+02 -0.13717420871E+02 -0.40506608176E+03  0.44236625862E+03  0.17137814486E+03 0.  0.
        -24    2    3    3    0    0 -0.35077667554E+02 -0.33388973378E+02 -0.18604966954E+03  0.20819661347E+03  0.79912977783E+02 0.  0.
          6    2    1    2  501    0 -0.45285096913E+02  0.13717420871E+02 -0.45813473105E+03  0.49068995478E+03  0.16926397222E+03 0.  0.
         24    2    5    5    0    0 -0.15290802073E+02  0.22661428349E+02 -0.98483201418E+02  0.12964845334E+03  0.79764851471E+02 0.  0.
          5    1    5    5  501    0 -0.29994294840E+02 -0.89440074775E+01 -0.35965152963E+03  0.36104150143E+03  0.47000000000E+01 0. -1.
        -13    1    6    6    0    0 -0.11659162040E+02 -0.24984748317E+02 -0.66929653608E+02  0.72386132926E+02  0.00000000000E+00 0.  1.
         14    1    6    6    0    0 -0.36316400331E+01  0.47646176666E+02 -0.31553547810E+02  0.57262320418E+02  0.00000000000E+00 0. -1.
         -5    1    3    3    0  503  0.80362764466E+02  0.19671552507E+02 -0.21901641222E+03  0.23416964515E+03  0.47000000000E+01 0.  1.
         13    1    4    4    0    0 -0.45273228133E+02 -0.65062806956E+01 -0.16830793482E+03  0.17441203455E+03  0.00000000000E+00 0. -1.
        -14    1    4    4    0    0  0.10195560579E+02 -0.26882692682E+02 -0.17741734724E+02  0.33784578914E+02  0.00000000000E+00 0.  1.
</event>
<event>
12    1  0.1066489E+000  0.4630066E+03  0.7818608E-02  0.1023955E+00
         21   -1    0    0  501  502  0.00000000000E+00  0.00000000000E+00  0.23293736547E+03  0.23293736547E+03  0.00000000000E+00 0. -1.
         21   -1    0    0  502  503 -0.00000000000E+00 -0.00000000000E+00 -0.14522834165E+04  0.14522834165E+04  0.00000000000E+00 0.  1.
         -6    2    1    2    0  503  0.12398892997E+03 -0.41112155635E+03 -0.98906079312E+02  0.47288385019E+03  0.17158827000E+03 0.  0.
        -24    2    3    3    0    0 -0.32014210014E+01 -0.13442010396E+03 -0.15918094861E+02  0.15720969114E+03  0.79890473767E+02 0.  0.
          6    2    1    2  501    0 -0.12398892997E+03  0.41112155635E+03 -0.11204399717E+04  0.12123369318E+04  0.17314998435E+03 0.  0.
         24    2    5    5    0    0  0.39087074483E+01  0.17653531384E+03 -0.43885468360E+03  0.48023782250E+03  0.82794551827E+02 0.  0.
          5    1    5    5  501    0 -0.12789763742E+03  0.23458624250E+03 -0.68158528815E+03  0.73209910931E+03  0.47000000000E+01 0. -1.
        -11    1    6    6    0    0 -0.36813966723E+01  0.17936619180E+03 -0.43629771339E+03  0.47174302131E+03  0.00000000000E+00 0.  1.
         12    1    6    6    0    0  0.75901041207E+01 -0.28308779598E+01 -0.25569702083E+01  0.84948011885E+01  0.00000000000E+00 0. -1.
         -5    1    3    3    0  503  0.12719035097E+03 -0.27670145239E+03 -0.82987984451E+02  0.31567415906E+03  0.47000000000E+01 0.  1.
         11    1    4    4    0    0  0.19008230925E+01 -0.13970270073E+03 -0.28545414286E+02  0.14260188777E+03  0.00000000000E+00 0. -1.
        -12    1    4    4    0    0 -0.51022440940E+01  0.52825967663E+01  0.12627319425E+02  0.14607803369E+02  0.00000000000E+00 0.  1.
</event>
<event>
12    1  0.1066489E+000  0.2738239E+03  0.7818608E-02  0.1099352E+00
         21   -1    0    0  503  502  0.00000000000E+00  0.00000000000E+00  0.25519961493E+03  0.25519961493E+03  0.00000000000E+00 0. -1.
         21   -1    0    0  501  503 -0.00000000000E+00 -0.00000000000E+00 -0.35203008050E+03  0.35203008050E+03  0.00000000000E+00 0. -1.
          6    2    1    2  501    0  0.21027848196E+03 -0.61341341349E+01  0.76858977595E+02  0.28440613395E+03  0.17528513631E+03 0.  0.
         24    2    3    3    0    0  0.16477354325E+03 -0.57120288989E+02  0.94573964242E+02  0.21365164161E+03  0.79307889150E+02 0.  0.
         -6    2    1    2    0  502 -0.21027848196E+03  0.61341341349E+01 -0.17368944317E+03  0.32282356148E+03  0.17260463956E+03 0.  0.
        -24    2    5    5    0    0 -0.22702983001E+03  0.21882820429E+02 -0.13518654783E+03  0.27773263411E+03  0.82695899497E+02 0.  0.
          5    1    3    3  501    0  0.45504938718E+02  0.50986154855E+02 -0.17714986646E+02  0.70754492341E+02  0.47000000000E+01 0. -1.
        -13    1    4    4    0    0  0.72885627055E+02 -0.88551991113E+01  0.80425743091E+02  0.10889917049E+03  0.00000000000E+00 0.  1.
         14    1    4    4    0    0  0.91887916190E+02 -0.48265089878E+02  0.14148221151E+02  0.10475247111E+03  0.00000000000E+00 0. -1.
         -5    1    5    5    0  502  0.16751348044E+02 -0.15748686295E+02 -0.38502895335E+02  0.45090927363E+02  0.47000000000E+01 0.  1.
         11    1    6    6    0    0 -0.10725762619E+03  0.33749966116E+02 -0.26408726237E+02  0.11550185891E+03  0.00000000000E+00 0. -1.
        -12    1    6    6    0    0 -0.11977220381E+03 -0.11867145686E+02 -0.10877782159E+03  0.16223077521E+03  0.00000000000E+00 0.  1.
</event>
<event>
12    1  0.1066489E+000  0.4175213E+03  0.7818608E-02  0.1037995E+00
         21   -1    0    0  501  502  0.00000000000E+00  0.00000000000E+00  0.28783257428E+03  0.28783257428E+03  0.00000000000E+00 0.  1.
         21   -1    0    0  502  503 -0.00000000000E+00 -0.00000000000E+00 -0.13052814450E+04  0.13052814450E+04  0.00000000000E+00 0.  1.
         -6    2    1    2    0  503  0.16740898876E+03  0.34158573547E+03 -0.10931836080E+04  0.11702027173E+04  0.17209710846E+03 0.  0.
        -24    2    3    3    0    0  0.14201524161E+03  0.32136753601E+03 -0.82891647374E+03  0.90390809438E+03  0.80634363599E+02 0.  0.
          6    2    1    2  501    0 -0.16740898876E+03 -0.34158573547E+03  0.75734737224E+02  0.42291130197E+03  0.16855751159E+03 0.  0.
         24    2    5    5    0    0 -0.81115020186E+02 -0.28761016307E+03  0.84334370392E+02  0.32065644820E+03  0.80056351036E+02 0.  0.
          5    1    5    5  501    0 -0.86293968578E+02 -0.53975572401E+02 -0.85996331684E+01  0.10225485377E+03  0.47000000000E+01 0. -1.
        -13    1    6    6    0    0 -0.90585312709E+01 -0.48049465183E+01 -0.96247976832E+01  0.14063471487E+02  0.00000000000E+00 0.  1.
         14    1    6    6    0    0 -0.72056488915E+02 -0.28280521655E+03  0.93959168075E+02  0.30659297671E+03  0.00000000000E+00 0. -1.
         -5    1    3    3    0  503  0.25393747150E+02  0.20218199455E+02 -0.26426713423E+03  0.26629462296E+03  0.47000000000E+01 0.  1.
         11    1    4    4    0    0  0.10306050060E+03  0.25272099337E+03 -0.71499800561E+03  0.76531791780E+03  0.00000000000E+00 0. -1.
        -12    1    4    4    0    0  0.38954741008E+02  0.68646542647E+02 -0.11391846813E+03  0.13859017658E+03  0.00000000000E+00 0.  1.
</event>
<event>
12    1  0.1066489E+000  0.2135779E+03  0.7818608E-02  0.1139089E+00
         21   -1    0    0  501  502  0.00000000000E+00  0.00000000000E+00  0.17538199894E+04  0.17538199894E+04  0.00000000000E+00 0. -1.
         21   -1    0    0  502  503 -0.00000000000E+00 -0.00000000000E+00 -0.27215115695E+02  0.27215115695E+02  0.00000000000E+00 0. -1.
         -6    2    1    2    0  503  0.55881278595E+02 -0.10977680920E+03  0.10627351695E+04  0.10836553671E+04  0.17242171883E+03 0.  0.
        -24    2    3    3    0    0  0.24789321579E+02 -0.37888706963E+02  0.23030271610E+03  0.24753307435E+03  0.78633436128E+02 0.  0.
          6    2    1    2  501    0 -0.55881278595E+02  0.10977680920E+03  0.66386970422E+03  0.69737973796E+03  0.17447592842E+03 0.  0.
         24    2    5    5    0    0  0.21387328625E+02  0.10829143772E+03  0.42253145730E+03  0.44392583008E+03  0.79704811012E+02 0.  0.
          5    1    5    5  501    0 -0.77268607220E+02  0.14853714749E+01  0.24133824692E+03  0.25345390788E+03  0.47000000000E+01 0. -1.
        -13    1    6    6    0    0  0.10509522481E+02  0.74847688889E+02  0.38556383845E+03  0.39290215082E+03  0.00000000000E+00 0.  1.
         14    1    6    6    0    0  0.10877806145E+02  0.33443748835E+02  0.36967618845E+02  0.51023679265E+02  0.00000000000E+00 0. -1.
         -5    1    3    3    0  503  0.31091957015E+02 -0.71888102236E+02  0.83243245339E+03  0.83612229278E+03  0.47000000000E+01 0.  1.
         11    1    4    4    0    0  0.35492707870E+02 -0.51228948033E+02  0.21726522617E+03  0.22602724599E+03  0.00000000000E+00 0. -1.
        -12    1    4    4    0    0 -0.10703386291E+02  0.13340241070E+02  0.13037489931E+02  0.21505828364E+02  0.00000000000E+00 0.  1.
</event>
<event>
12    1  0.1066489E+000  0.2029872E+03  0.7818608E-02  0.1148629E+00
         21   -1    0    0  501  502  0.00000000000E+00  0.00000000000E+00  0.51267232677E+03  0.51267232677E+03  0.00000000000E+00 0.  1.
         21   -1    0    0  502  503 -0.00000000000E+00 -0.00000000000E+00 -0.78960896716E+02  0.78960896716E+02  0.00000000000E+00 0.  1.
         -6    2    1    2    0  503 -0.85506072805E+02 -0.36690075264E+02  0.18429311190E+03  0.27416737283E+03  0.18040606177E+03 0.  0.
        -24    2    3    3    0    0 -0.11400130736E+02  0.39018030270E+02  0.67592319741E+02  0.11648232984E+03  0.85714886743E+02 0.  0.
          6    2    1    2  501    0  0.85506072805E+02  0.36690075264E+02  0.24941831815E+03  0.31746585065E+03  0.17296710321E+03 0.  0.
         24    2    5    5    0    0  0.18978189954E+02  0.30549384557E+02  0.38820119447E+02  0.96474089321E+02  0.80664810454E+02 0.  0.
          5    1    5    5  501    0  0.66527882851E+02  0.61406907064E+01  0.21059819870E+03  0.22099176133E+03  0.47000000000E+01 0. -1.
        -13    1    6    6    0    0 -0.10802131070E+02  0.11085771016E+02  0.55184590263E+02  0.57314216013E+02  0.00000000000E+00 0.  1.
         14    1    6    6    0    0  0.29780321024E+02  0.19463613542E+02 -0.16364470816E+02  0.39159873308E+02  0.00000000000E+00 0. -1.
         -5    1    3    3    0  503 -0.74105942069E+02 -0.75708105534E+02  0.11670079216E+03  0.15768504300E+03  0.47000000000E+01 0.  1.
         13    1    4    4    0    0 -0.10476182607E+02  0.29905668666E+02  0.88313972962E+02  0.93826740542E+02  0.00000000000E+00 0. -1.
        -14    1    4    4    0    0 -0.92394812929E+00  0.91123616038E+01 -0.20721653220E+02  0.22655589296E+02  0.00000000000E+00 0.  1.
</event>
<event>
12    1  0.1066489E+000  0.5651793E+03  0.7818608E-02  0.9980521E-01
         21   -1    0    0  503  502  0.00000000000E+00  0.00000000000E+00  0.28426720010E+03  0.28426720010E+03  0.00000000000E+00 0. -1.
         21   -1    0    0  501  503 -0.00000000000E+00 -0.00000000000E+00 -0.12066610852E+04  0.12066610852E+04  0.00000000000E+00 0. -1.
          6    2    1    2  501    0 -0.47334686443E+03  0.25708844220E+03 -0.26514596158E+03  0.62409353305E+03  0.17040726473E+03 0.  0.
         24    2    3    3    0    0 -0.32495901620E+03  0.22679882138E+03 -0.13993858077E+03  0.42753465424E+03  0.78530290943E+02 0.  0.
         -6    2    1    2    0  502  0.47334686443E+03 -0.25708844220E+03 -0.65724792355E+03  0.86683475229E+03  0.17110211448E+03 0.  0.
        -24    2    5    5    0    0  0.26253014271E+03 -0.17763951226E+03 -0.29405507383E+03  0.43941580240E+03  0.78358080720E+02 0.  0.
          5    1    3    3  501    0 -0.14838784823E+03  0.30289620822E+02 -0.12520738080E+03  0.19655887881E+03  0.47000000000E+01 0. -1.
        -13    1    4    4    0    0 -0.29664644110E+03  0.22547823728E+03 -0.14281994756E+03  0.39904521539E+03  0.00000000000E+00 0.  1.
         14    1    4    4    0    0 -0.28312575104E+02  0.13205840955E+01  0.28813667842E+01  0.28489438849E+02  0.00000000000E+00 0. -1.
         -5    1    5    5    0  502  0.21081672172E+03 -0.79448929943E+02 -0.36319284973E+03  0.42741894988E+03  0.47000000000E+01 0.  1.
         13    1    6    6    0    0  0.26224348889E+02 -0.41566432165E+02 -0.20765853556E+02  0.53354525877E+02  0.00000000000E+00 0. -1.
        -14    1    6    6    0    0  0.23630579382E+03 -0.13607308009E+03 -0.27328922027E+03  0.38606127653E+03  0.00000000000E+00 0.  1.
</event>
<event>
12    1  0.1066489E+000  0.1960728E+03  0.7818608E-02  0.1153418E+00
         21   -1    0    0  501  502  0.00000000000E+00  0.00000000000E+00  0.14950272753E+03  0.14950272753E+03  0.00000000000E+00 0. -1.
         21   -1    0    0  502  503 -0.00000000000E+00 -0.00000000000E+00 -0.27424835927E+03  0.27424835927E+03  0.00000000000E+00 0. -1.
         -6    2    1    2    0  503  0.89568255384E+02 -0.73109223969E+01 -0.63227445143E+01  0.19469101449E+03  0.17259400936E+03 0.  0.
        -24    2    3    3    0    0  0.29443155272E+02 -0.63819335584E+02 -0.13165901969E+02  0.11176244747E+03  0.85893519561E+02 0.  0.
          6    2    1    2  501    0 -0.89568255384E+02  0.73109223969E+01 -0.11842288722E+03  0.22906007230E+03  0.17426593054E+03 0.  0.
         24    2    5    5    0    0 -0.11678308495E+03  0.37273774897E+02 -0.11577654221E+03  0.18822488380E+03  0.83646732943E+02 0.  0.
          5    1    5    5  501    0  0.27214829562E+02 -0.29962852500E+02 -0.26463450147E+01  0.40835188501E+02  0.47000000000E+01 0. -1.
        -13    1    6    6    0    0 -0.47112174042E+02 -0.64957266659E+01 -0.17210961647E+01  0.47589006923E+02  0.00000000000E+00 0.  1.
         14    1    6    6    0    0 -0.69670910904E+02  0.43769501562E+02 -0.11405544605E+03  0.14063587688E+03  0.00000000000E+00 0. -1.
         -5    1    3    3    0  503  0.60125100112E+02  0.56508413187E+02  0.68431574545E+01  0.82928567022E+02  0.47000000000E+01 0.  1.
         11    1    4    4    0    0  0.23102678167E+02 -0.21336025204E+01 -0.38358841413E+02  0.44829529472E+02  0.00000000000E+00 0. -1.
        -12    1    4    4    0    0  0.63404771050E+01 -0.61685733064E+02  0.25192939444E+02  0.66932917995E+02  0.00000000000E+00 0.  1.
</event>
<event>
12    1  0.1066489E+000  0.2104937E+03  0.7818608E-02  0.1144987E+00
         21   -1    0    0  503  502  0.00000000000E+00  0.00000000000E+00  0.67284085913E+02  0.67284085913E+02  0.00000000000E+00 0. -1.
         21   -1    0    0  501  503 -0.00000000000E+00 -0.00000000000E+00 -0.60226688823E+03  0.60226688823E+03  0.00000000000E+00 0. -1.
          6    2    1    2  501    0  0.71830021475E+02 -0.48285591186E+02 -0.27705272440E+03  0.34794512133E+03  0.19187637962E+03 0.  0.
         24    2    3    3    0    0  0.19156462474E+02 -0.64608393640E+02 -0.53055474445E+02  0.11721195144E+03  0.79890823056E+02 0.  0.
         -6    2    1    2    0  502 -0.71830021475E+02  0.48285591186E+02 -0.25793007792E+03  0.32160585282E+03  0.17149737366E+03 0.  0.
        -24    2    5    5    0    0  0.34629339027E+01  0.69459070663E+02 -0.18915724741E+03  0.21735069669E+03  0.81389843941E+02 0.  0.
          5    1    3    3  501    0  0.52673559002E+02  0.16322802454E+02 -0.22399724996E+03  0.23073316989E+03  0.47000000000E+01 0. -1.
        -11    1    4    4    0    0  0.33536588478E+02 -0.76841457637E+02 -0.51207649355E+02  0.98242229876E+02  0.00000000000E+00 0.  1.
         12    1    4    4    0    0 -0.14380126004E+02  0.12233063997E+02 -0.18478250902E+01  0.18969721564E+02  0.00000000000E+00 0. -1.
         -5    1    5    5    0  502 -0.75292955378E+02 -0.21173479477E+02 -0.68772830508E+02  0.10425515613E+03  0.47000000000E+01 0.  1.
         13    1    6    6    0    0  0.19123919138E+02 -0.11245895911E+02 -0.22933672692E+02  0.31908428372E+02  0.00000000000E+00 0. -1.
        -14    1    6    6    0    0 -0.15660985235E+02  0.80704966574E+02 -0.16622357472E+03  0.18544226832E+03  0.00000000000E+00 0.  1.
</event>
<event>
12    1  0.1066489E+000  0.3928994E+03  0.7818608E-02  0.1046287E+00
         21   -1    0    0  503  502  0.00000000000E+00  0.00000000000E+00  0.36745398877E+03  0.36745398877E+03  0.00000000000E+00 0.  1.
         21   -1    0    0  501  503 -0.00000000000E+00 -0.00000000000E+00 -0.43080877839E+03  0.43080877839E+03  0.00000000000E+00 0. -1.
          6    2    1    2  501    0  0.74735224617E+02 -0.34547813289E+03  0.31948151435E+02  0.39397003442E+03  0.17102984984E+03 0.  0.
         24    2    3    3    0    0  0.87811685936E+02 -0.23336695229E+03  0.75804353343E+02  0.27278683796E+03  0.80593624901E+02 0.  0.
         -6    2    1    2    0  502 -0.74735224617E+02  0.34547813289E+03 -0.95302941057E+02  0.40429273274E+03  0.17155019402E+03 0.  0.
        -24    2    5    5    0    0 -0.74216391003E+02  0.28848287247E+03 -0.20674027771E+02  0.31026989723E+03  0.84318167085E+02 0.  0.
          5    1    3    3  501    0 -0.13076461319E+02 -0.11211118061E+03 -0.43856201907E+02  0.12118319646E+03  0.47000000000E+01 0. -1.
        -13    1    4    4    0    0  0.38043651026E+02 -0.37113347602E+02 -0.78406546806E+01  0.53723326585E+02  0.00000000000E+00 0.  1.
         14    1    4    4    0    0  0.49768034910E+02 -0.19625360468E+03  0.83645008023E+02  0.21906351138E+03  0.00000000000E+00 0. -1.
         -5    1    5    5    0  502 -0.51883361443E+00  0.56995260418E+02 -0.74628913286E+02  0.94022835507E+02  0.47000000000E+01 0.  1.
         11    1    6    6    0    0 -0.15430855107E+02  0.13216775677E+03  0.28690508868E+02  0.13612337242E+03  0.00000000000E+00 0. -1.
        -12    1    6    6    0    0 -0.58785535896E+02  0.15631511570E+03 -0.49364536639E+02  0.17414652482E+03  0.00000000000E+00 0.  1.
</event>
<event>
12    1  0.1066489E+000  0.1769989E+03  0.7818608E-02  0.1170882E+00
         21   -1    0    0  503  502  0.00000000000E+00  0.00000000000E+00  0.11377149016E+03  0.11377149016E+03  0.00000000000E+00 0.  1.
         21   -1    0    0  501  503 -0.00000000000E+00 -0.00000000000E+00 -0.28178454826E+03  0.28178454826E+03  0.00000000000E+00 0.  1.
          6    2    1    2  501    0  0.25702630211E+02  0.30223860695E+02 -0.11574275317E+03  0.21100039894E+03  0.17190310203E+03 0.  0.
         24    2    3    3    0    0 -0.43535828100E+02 -0.18781212962E+02 -0.56103773826E+02  0.10720078810E+03  0.78078635000E+02 0.  0.
         -6    2    1    2    0  502 -0.25702630211E+02 -0.30223860695E+02 -0.52270304926E+02  0.18455563948E+03  0.17249490523E+03 0.  0.
        -24    2    5    5    0    0  0.33655080121E+02 -0.59774395109E+02 -0.54069248784E+02  0.11805828570E+03  0.79426899916E+02 0.  0.
          5    1    3    3  501    0  0.69238458311E+02  0.49005073657E+02 -0.59638979345E+02  0.10379961084E+03  0.47000000000E+01 0. -1.
        -13    1    4    4    0    0 -0.42805379035E+01 -0.23040999351E+02  0.13595924190E+02  0.27093538168E+02  0.00000000000E+00 0.  1.
         14    1    4    4    0    0 -0.39255290197E+02  0.42597863892E+01 -0.69699698016E+02  0.80107249935E+02  0.00000000000E+00 0. -1.
         -5    1    5    5    0  502 -0.59357710331E+02  0.29550534414E+02  0.17989438573E+01  0.66497353774E+02  0.47000000000E+01 0.  1.
         13    1    6    6    0    0 -0.13757023063E+00 -0.12960408463E+02  0.20191609317E+02  0.23993586642E+02  0.00000000000E+00 0. -1.
        -14    1    6    6    0    0  0.33792650352E+02 -0.46813986646E+02 -0.74260858101E+02  0.94064699061E+02  0.00000000000E+00 0.  1.
</event>
<event>
12    1  0.1066489E+000  0.2207313E+03  0.7818608E-02  0.1133361E+00
         21   -1    0    0  501  502  0.00000000000E+00  0.00000000000E+00  0.47336186753E+02  0.47336186753E+02  0.00000000000E+00 0. -1.
         21   -1    0    0  502  503 -0.00000000000E+00 -0.00000000000E+00 -0.10326321201E+04  0.10326321201E+04  0.00000000000E+00 0. -1.
         -6    2    1    2    0  503 -0.85106141671E+01  0.13734692979E+03 -0.52598444463E+03  0.57042261111E+03  0.17258536902E+03 0.  0.
        -24    2    3    3    0    0  0.20192425170E+02  0.19509677707E+02 -0.12067303330E+03  0.14732816232E+03  0.79719789817E+02 0.  0.
          6    2    1    2  501    0  0.85106141671E+01 -0.13734692979E+03 -0.45931148874E+03  0.50954569576E+03  0.17243306732E+03 0.  0.
         24    2    5    5    0    0  0.20099741249E+02 -0.47652877185E+02 -0.37185034347E+03  0.38364544608E+03  0.78970589824E+02 0.  0.
          5    1    5    5  501    0 -0.11589127082E+02 -0.89694052601E+02 -0.87461145274E+02  0.12590024969E+03  0.47000000000E+01 0. -1.
        -13    1    6    6    0    0  0.15707077683E+02 -0.82531739699E+01 -0.11551725922E+02  0.21172376855E+02  0.00000000000E+00 0.  1.
         14    1    6    6    0    0  0.43926635656E+01 -0.39399703215E+02 -0.36029861754E+03  0.36247306922E+03  0.00000000000E+00 0. -1.
         -5    1    3    3    0  503 -0.28703039337E+02  0.11783725208E+03 -0.40531141132E+03  0.42309444879E+03  0.47000000000E+01 0.  1.
         13    1    4    4    0    0 -0.25618652598E+02  0.36579703439E+01 -0.79895230890E+02  0.83981807714E+02  0.00000000000E+00 0. -1.
        -14    1    4    4    0    0  0.45811077768E+02  0.15851707363E+02 -0.40777802411E+02  0.63346354607E+02  0.00000000000E+00 0.  1.
</event>
<event>
12    1  0.1066489E+000  0.2264739E+03  0.7818608E-02  0.1129209E+00
         21   -1    0    0  503  502  0.00000000000E+00  0.00000000000E+00  0.45194090586E+03  0.45194090586E+03  0.00000000000E+00 0.  1.
         21   -1    0    0  501  503 -0.00000000000E+00 -0.00000000000E+00 -0.17306985450E+03  0.17306985450E+03  0.00000000000E+00 0.  1.
          6    2    1    2  501    0 -0.51572595955E+02 -0.13902132386E+03  0.32313229618E+03  0.39459462514E+03  0.17118345777E+03 0.  0.
         24    2    3    3    0    0  0.24170904957E+00 -0.13612073236E+03  0.14940361635E+03  0.21321965490E+03  0.67913683869E+02 0.  0.
         -6    2    1    2    0  502  0.51572595955E+02  0.13902132386E+03 -0.44261244814E+02  0.23041613523E+03  0.17072163436E+03 0.  0.
        -24    2    5    5    0    0  0.86101835023E+01  0.16346692487E+03 -0.48473141418E+02  0.18058455522E+03  0.58869052653E+02 0.  0.
          5    1    3    3  501    0 -0.51814305004E+02 -0.29005915043E+01  0.17372867983E+03  0.18137497024E+03  0.47000000000E+01 0. -1.
        -13    1    4    4    0    0  0.11671830758E+02  0.24175209638E+01  0.20108037564E+02  0.23375397655E+02  0.00000000000E+00 0.  1.
         14    1    4    4    0    0 -0.11430121708E+02 -0.13853825332E+03  0.12929557879E+03  0.18984425725E+03  0.00000000000E+00 0. -1.
         -5    1    5    5    0  502  0.42962412453E+02 -0.24445601008E+02  0.42118966040E+01  0.49831580001E+02  0.47000000000E+01 0.  1.
         11    1    6    6    0    0  0.28066233101E+02  0.78773686298E+02 -0.41637787092E+02  0.93416874319E+02  0.00000000000E+00 0. -1.
        -12    1    6    6    0    0 -0.19456049599E+02  0.84693238571E+02 -0.68353543257E+01  0.87167680906E+02  0.00000000000E+00 0.  1.
</event>
<event>
12    1  0.1066489E+000  0.2359714E+03  0.7818608E-02  0.1122568E+00
         21   -1    0    0  503  502  0.00000000000E+00  0.00000000000E+00  0.16556286664E+03  0.16556286664E+03  0.00000000000E+00 0.  1.
         21   -1    0    0  501  503 -0.00000000000E+00 -0.00000000000E+00 -0.34464687312E+03  0.34464687312E+03  0.00000000000E+00 0.  1.
          6    2    1    2  501    0  0.40791751450E+02 -0.15528091037E+03 -0.13033387638E+03  0.26925519766E+03  0.17243930534E+03 0.  0.
         24    2    3    3    0    0  0.91612079575E+02 -0.89814254703E+02 -0.77393388417E+02  0.17080026371E+03  0.81997683136E+02 0.  0.
         -6    2    1    2    0  502 -0.40791751450E+02  0.15528091037E+03 -0.48750130105E+02  0.24095454210E+03  0.17293463523E+03 0.  0.
        -24    2    5    5    0    0 -0.40927446013E+02  0.11368280263E+03 -0.99345703200E+02  0.17528550071E+03  0.79098688763E+02 0.  0.
          5    1    3    3  501    0 -0.50820328125E+02 -0.65466655664E+02 -0.52940487958E+02  0.98454933953E+02  0.47000000000E+01 0. -1.
        -13    1    4    4    0    0  0.33392657018E+02 -0.36788594814E+01  0.99258904147E+01  0.35030370400E+02  0.00000000000E+00 0.  1.
         14    1    4    4    0    0  0.58219422556E+02 -0.86135395222E+02 -0.87319278832E+02  0.13576989331E+03  0.00000000000E+00 0. -1.
         -5    1    5    5    0  502  0.13569456285E+00  0.41598107741E+02  0.50595573096E+02  0.65669041393E+02  0.47000000000E+01 0.  1.
         13    1    6    6    0    0  0.44156322274E+01  0.66344801646E+02 -0.14476886039E+02  0.68049325807E+02  0.00000000000E+00 0. -1.
        -14    1    6    6    0    0 -0.45343078240E+02  0.47338000980E+02 -0.84868817161E+02  0.10723617490E+03  0.00000000000E+00 0.  1.
</event>
<event>
12    1  0.1066489E+000  0.2073432E+03  0.7818608E-02  0.1144059E+00
         21   -1    0    0  501  502  0.00000000000E+00  0.00000000000E+00  0.81200849824E+02  0.81200849824E+02  0.00000000000E+00 0. -1.
         21   -1    0    0  502  503 -0.00000000000E+00 -0.00000000000E+00 -0.53496304900E+03  0.53496304900E+03  0.00000000000E+00 0. -1.
         -6    2    1    2    0  503 -0.10914758336E+03  0.28209950653E+02 -0.18532787195E+03  0.27809644050E+03  0.17401785491E+03 0.  0.
        -24    2    3    3    0    0 -0.23562886237E+02  0.32438102991E+02 -0.16862694951E+03  0.19066859331E+03  0.79448248819E+02 0.  0.
          6    2    1    2  501    0  0.10914758336E+03 -0.28209950653E+02 -0.26843432723E+03  0.33806745833E+03  0.17182439313E+03 0.  0.
         24    2    5    5    0    0  0.97224872357E+02 -0.72668711161E+02 -0.13802879699E+03  0.19969685184E+03  0.78060658777E+02 0.  0.
          5    1    5    5  501    0  0.11922711006E+02  0.44458760508E+02 -0.13040553023E+03  0.13837060649E+03  0.47000000000E+01 0. -1.
        -13    1    6    6    0    0  0.10650953041E+03 -0.70952562134E+02 -0.14038593219E+03  0.18996514443E+03  0.00000000000E+00 0.  1.
         14    1    6    6    0    0 -0.92846580561E+01 -0.17161490263E+01  0.23571351984E+01  0.97317074063E+01  0.00000000000E+00 0. -1.
         -5    1    3    3    0  503 -0.85584697126E+02 -0.42281523388E+01 -0.16700922446E+02  0.87427847194E+02  0.47000000000E+01 0.  1.
         11    1    4    4    0    0 -0.32655773754E+02  0.44611478542E+02 -0.62434246247E+02  0.83394356414E+02  0.00000000000E+00 0. -1.
        -12    1    4    4    0    0  0.90928875163E+01 -0.12173375551E+02 -0.10619270326E+03  0.10727423689E+03  0.00000000000E+00 0.  1.
</event>
<event>
12    1  0.1066489E+000  0.1954661E+03  0.7818608E-02  0.1154994E+00
         21   -1    0    0  503  502  0.00000000000E+00  0.00000000000E+00  0.12046111894E+03  0.12046111894E+03  0.00000000000E+00 0. -1.
         21   -1    0    0  501  503 -0.00000000000E+00 -0.00000000000E+00 -0.33888095785E+03  0.33888095785E+03  0.00000000000E+00 0. -1.
          6    2    1    2  501    0 -0.72024217204E+02  0.39898571932E+02 -0.40574424414E+02  0.19963281936E+03  0.17727829744E+03 0.  0.
         24    2    3    3    0    0  0.12074630089E+02  0.55875706683E+02 -0.55712816220E+02  0.11257452936E+03  0.79380195770E+02 0.  0.
         -6    2    1    2    0  502  0.72024217204E+02 -0.39898571932E+02 -0.17784541450E+03  0.25970925743E+03  0.17041280184E+03 0.  0.
        -24    2    5    5    0    0  0.78738979349E+02  0.26482872665E+02 -0.79439491863E+02  0.14072438517E+03  0.81188363084E+02 0.  0.
          5    1    3    3  501    0 -0.84098847293E+02 -0.15977134751E+02  0.15138391807E+02  0.87058289997E+02  0.47000000000E+01 0. -1.
        -11    1    4    4    0    0 -0.16937955168E+02  0.84248430423E+00 -0.46736018446E+02  0.49717798878E+02  0.00000000000E+00 0.  1.
         12    1    4    4    0    0  0.29012585257E+02  0.55033222379E+02 -0.89767977739E+01  0.62856730483E+02  0.00000000000E+00 0. -1.
         -5    1    5    5    0  502 -0.67147621449E+01 -0.66381444598E+02 -0.98405922636E+02  0.11898487226E+03  0.47000000000E+01 0.  1.
         11    1    6    6    0    0  0.57480541070E+02  0.52655210188E+02 -0.36351784016E+02  0.86011836179E+02  0.00000000000E+00 0. -1.
        -12    1    6    6    0    0  0.21258438279E+02 -0.26172337523E+02 -0.43087707848E+02  0.54712548990E+02  0.00000000000E+00 0.  1.
</event>
<event>
12    1  0.1066489E+000  0.1842751E+03  0.7818608E-02  0.1164743E+00
         21   -1    0    0  501  502  0.00000000000E+00  0.00000000000E+00  0.11379939097E+03  0.11379939097E+03  0.00000000000E+00 0. -1.
         21   -1    0    0  502  503 -0.00000000000E+00 -0.00000000000E+00 -0.36860969006E+03  0.36860969006E+03  0.00000000000E+00 0. -1.
         -6    2    1    2    0  503 -0.26998300056E+02 -0.60744608349E+02 -0.15927200157E+02  0.18070980628E+03  0.16728282258E+03 0.  0.
        -24    2    3    3    0    0 -0.64694001051E+01 -0.17534893225E+02  0.51417494628E+02  0.97969772862E+02  0.81271102014E+02 0.  0.
          6    2    1    2  501    0  0.26998300056E+02  0.60744608349E+02 -0.23888309893E+03  0.30169927475E+03  0.17186768685E+03 0.  0.
         24    2    5    5    0    0  0.52613658695E+02  0.84766296362E+02 -0.23379635698E+03  0.26590607656E+03  0.78049874667E+02 0.  0.
          5    1    5    5  501    0 -0.25615358639E+02 -0.24021688013E+02 -0.50867419553E+01  0.35793198194E+02  0.47000000000E+01 0. -1.
        -11    1    6    6    0    0  0.37729089995E+02  0.95137444107E+02 -0.16016049820E+03  0.19006841581E+03  0.00000000000E+00 0.  1.
         12    1    6    6    0    0  0.14884568701E+02 -0.10371147745E+02 -0.73635858775E+02  0.75837660753E+02  0.00000000000E+00 0. -1.
         -5    1    3    3    0  503 -0.20528899951E+02 -0.43209715123E+02 -0.67344694785E+02  0.82740033417E+02  0.47000000000E+01 0.  1.
         11    1    4    4    0    0 -0.24081289313E+02  0.72645391771E+01  0.61078834027E+02  0.66055325225E+02  0.00000000000E+00 0. -1.
        -12    1    4    4    0    0  0.17611889208E+02 -0.24799432403E+02 -0.96613393997E+01  0.31914447637E+02  0.00000000000E+00 0.  1.
</event>
<event>
12    1  0.1066489E+000  0.2576080E+03  0.7818608E-02  0.1108669E+00
         21   -1    0    0  503  502  0.00000000000E+00  0.00000000000E+00  0.10839056256E+03  0.10839056256E+03  0.00000000000E+00 0. -1.
         21   -1    0    0  501  503 -0.00000000000E+00 -0.00000000000E+00 -0.83304524344E+03  0.83304524344E+03  0.00000000000E+00 0. -1.
          6    2    1    2  501    0 -0.18731517118E+03 -0.35102671563E+02 -0.11903726109E+03  0.28330637833E+03  0.17254988721E+03 0.  0.
         24    2    3    3    0    0 -0.21038314902E+03 -0.20310906412E+02 -0.10842229826E+03  0.25354574403E+03  0.88636602179E+02 0.  0.
         -6    2    1    2    0  502  0.18731517118E+03  0.35102671563E+02 -0.60561741979E+03  0.65812942767E+03  0.17332834017E+03 0.  0.
        -24    2    5    5    0    0  0.15655714502E+03 -0.17159450871E+02 -0.54412750716E+03  0.57163963076E+03  0.76762862089E+02 0.  0.
          5    1    3    3  501    0  0.23067977846E+02 -0.14791765150E+02 -0.10614962831E+02  0.29760634302E+02  0.47000000000E+01 0. -1.
        -11    1    4    4    0    0 -0.61745709984E+02 -0.47384468147E+02 -0.42835523594E+02  0.88840883632E+02  0.00000000000E+00 0.  1.
         12    1    4    4    0    0 -0.14863743904E+03  0.27073561734E+02 -0.65586774662E+02  0.16470486040E+03  0.00000000000E+00 0. -1.
         -5    1    5    5    0  502  0.30758026151E+02  0.52262122433E+02 -0.61489912629E+02  0.86489796908E+02  0.47000000000E+01 0.  1.
         11    1    6    6    0    0  0.20191155283E+02 -0.18990779458E+02 -0.19260033664E+03  0.19458474280E+03  0.00000000000E+00 0. -1.
        -12    1    6    6    0    0  0.13636598974E+03  0.18313285876E+01 -0.35152717051E+03  0.37705488796E+03  0.00000000000E+00 0.  1.
</event>
<event>
12    1  0.1066489E+000  0.1997726E+03  0.7818608E-02  0.1149936E+00
         21   -1    0    0  503  502  0.00000000000E+00  0.00000000000E+00  0.16826537087E+03  0.16826537087E+03  0.00000000000E+00 0.  1.
         21   -1    0    0  501  503 -0.00000000000E+00 -0.00000000000E+00 -0.25221174998E+03  0.25221174998E+03  0.00000000000E+00 0.  1.
          6    2    1    2  501    0  0.98969328367E+02 -0.17981918427E+02  0.94026703029E+01  0.19997053187E+03  0.17257324839E+03 0.  0.
         24    2    3    3    0    0  0.10772957189E+02  0.48179243278E+02  0.49765283221E+01  0.89527877336E+02  0.74519654432E+02 0.  0.
         -6    2    1    2    0  502 -0.98969328367E+02  0.17981918427E+02 -0.93349049414E+02  0.22050658898E+03  0.17260021265E+03 0.  0.
        -24    2    5    5    0    0 -0.85061727931E+02  0.68827031873E+02 -0.10223268335E+03  0.16684416392E+03  0.73571703891E+02 0.  0.
          5    1    3    3  501    0  0.88196371178E+02 -0.66161161705E+02  0.44261419809E+01  0.11044265453E+03  0.47000000000E+01 0. -1.
        -13    1    4    4    0    0 -0.67933746738E+01  0.42549523871E+02  0.34171456614E+02  0.54993639344E+02  0.00000000000E+00 0.  1.
         14    1    4    4    0    0  0.17566331863E+02  0.56297194068E+01 -0.29194928292E+02  0.34534237992E+02  0.00000000000E+00 0. -1.
         -5    1    5    5    0  502 -0.13907600436E+02 -0.50845113446E+02  0.88836339368E+01  0.53662425058E+02  0.47000000000E+01 0.  1.
         13    1    6    6    0    0 -0.28846308283E+02  0.26245720008E+02 -0.86070675138E+02  0.94493959802E+02  0.00000000000E+00 0. -1.
        -14    1    6    6    0    0 -0.56215419647E+02  0.42581311864E+02 -0.16162008213E+02  0.72350204117E+02  0.00000000000E+00 0.  1.
</event>
<event>
12    1  0.1066489E+000  0.2022810E+03  0.7818608E-02  0.1147835E+00
         21   -1    0    0  503  502  0.00000000000E+00  0.00000000000E+00  0.28361256399E+03  0.28361256399E+03  0.00000000000E+00 0.  1.
         21   -1    0    0  501  503 -0.00000000000E+00 -0.00000000000E+00 -0.18780132847E+03  0.18780132847E+03  0.00000000000E+00 0.  1.
          6    2    1    2  501    0  0.10593091113E+03  0.12879565571E+02  0.16141371839E+03  0.25878944408E+03  0.17184396045E+03 0.  0.
         24    2    3    3    0    0  0.10766442345E+03  0.53837798783E+02  0.14177614841E+03  0.21309145630E+03  0.10400651822E+03 0.  0.
         -6    2    1    2    0  502 -0.10593091113E+03 -0.12879565571E+02 -0.65602482872E+02  0.21262444838E+03  0.17180869928E+03 0.  0.
        -24    2    5    5    0    0 -0.74412378676E+01  0.27600023847E+02 -0.63661339927E+02  0.10601923775E+03  0.79813402598E+02 0.  0.
          5    1    3    3  501    0 -0.17335123242E+01 -0.40958233213E+02  0.19637569981E+02  0.45697987785E+02  0.47000000000E+01 0. -1.
        -11    1    4    4    0    0  0.17337347437E+02  0.30293811948E+02  0.10852663892E+03  0.11400144742E+03  0.00000000000E+00 0.  1.
         12    1    4    4    0    0  0.90327076016E+02  0.23543986835E+02  0.33249509489E+02  0.99090008876E+02  0.00000000000E+00 0. -1.
         -5    1    5    5    0  502 -0.98489673261E+02 -0.40479589418E+02 -0.19411429454E+01  0.10660521063E+03  0.47000000000E+01 0.  1.
         13    1    6    6    0    0  0.28049957383E+01  0.16295387836E+02 -0.81146141351E+02  0.82813669898E+02  0.00000000000E+00 0. -1.
        -14    1    6    6    0    0 -0.10246233606E+02  0.11304636012E+02  0.17484801424E+02  0.23205567851E+02  0.00000000000E+00 0.  1.
</event>
<event>
12    1  0.1066489E+000  0.2309500E+03  0.7818608E-02  0.1126422E+00
         21   -1    0    0  503  502  0.00000000000E+00  0.00000000000E+00  0.11570567452E+04  0.11570567452E+04  0.00000000000E+00 0.  1.
         21   -1    0    0  501  503 -0.00000000000E+00 -0.00000000000E+00 -0.46761799074E+02  0.46761799074E+02  0.00000000000E+00 0.  1.
          6    2    1    2  501    0  0.96896959553E+02 -0.11920006205E+03  0.64741090983E+03  0.68651830252E+03  0.16902312851E+03 0.  0.
         24    2    3    3    0    0  0.87795675048E+01 -0.25613181680E+01  0.33696779878E+03  0.34334737346E+03  0.65241706697E+02 0.  0.
         -6    2    1    2    0  502 -0.96896959553E+02  0.11920006205E+03  0.46288403629E+03  0.51730024174E+03  0.17245356909E+03 0.  0.
        -24    2    5    5    0    0 -0.10192248313E+03  0.97674435053E+02  0.46853895830E+03  0.49400482057E+03  0.67701694707E+02 0.  0.
          5    1    3    3  501    0  0.88117392048E+02 -0.11663874388E+03  0.31044311105E+03  0.34317092906E+03  0.47000000000E+01 0. -1.
        -13    1    4    4    0    0 -0.26233330612E+02 -0.12986697473E+02  0.14176170400E+03  0.14475228035E+03  0.00000000000E+00 0.  1.
         14    1    4    4    0    0  0.35012898117E+02  0.10425379305E+02  0.19520609478E+03  0.19859509311E+03  0.00000000000E+00 0. -1.
         -5    1    5    5    0  502  0.50255235719E+01  0.21525626995E+02 -0.56549220147E+01  0.23295421175E+02  0.47000000000E+01 0.  1.
         13    1    6    6    0    0  0.93767513699E+01  0.36393504463E+01  0.19886124853E+02  0.22285113856E+02  0.00000000000E+00 0. -1.
        -14    1    6    6    0    0 -0.11129923450E+03  0.94035084607E+02  0.44865283345E+03  0.47171970671E+03  0.00000000000E+00 0.  1.
</event>
<event>
12    1  0.1066489E+000  0.4388954E+03  0.7818608E-02  0.1031144E+00
         21   -1    0    0  501  502  0.00000000000E+00  0.00000000000E+00  0.35575062866E+03  0.35575062866E+03  0.00000000000E+00 0.  1.
         21   -1    0    0  502  503 -0.00000000000E+00 -0.00000000000E+00 -0.69162278080E+03  0.69162278080E+03  0.00000000000E+00 0.  1.
         -6    2    1    2    0  503 -0.20804318926E+02  0.40321854315E+03  0.76936816476E+02  0.44484507258E+03  0.17014655930E+03 0.  0.
        -24    2    3    3    0    0 -0.22072952841E+02  0.40889755489E+03  0.49928950886E+02  0.41682052244E+03  0.59682678808E+02 0.  0.
          6    2    1    2  501    0  0.20804318926E+02 -0.40321854315E+03 -0.41280896861E+03  0.60252833688E+03  0.17207887422E+03 0.  0.
         24    2    5    5    0    0 -0.23094262703E+02 -0.14848452650E+03 -0.10201564601E+03  0.19826223135E+03  0.79496671437E+02 0.  0.
          5    1    5    5  501    0  0.43898581629E+02 -0.25473401665E+03 -0.31079332261E+03  0.40426610554E+03  0.47000000000E+01 0. -1.
        -11    1    6    6    0    0 -0.96860048031E+00 -0.95164296403E+01  0.13263509782E+02  0.16353021486E+02  0.00000000000E+00 0.  1.
         12    1    6    6    0    0 -0.22125662223E+02 -0.13896809686E+03 -0.11527915579E+03  0.18190920986E+03  0.00000000000E+00 0. -1.
         -5    1    3    3    0  503  0.12686339156E+01 -0.56790117436E+01  0.27007865590E+02  0.28024550132E+02  0.47000000000E+01 0.  1.
         11    1    4    4    0    0  0.11252918274E+02  0.23240834060E+02  0.99307144710E+01  0.27665567541E+02  0.00000000000E+00 0. -1.
        -12    1    4    4    0    0 -0.33325871115E+02  0.38565672083E+03  0.39998236415E+02  0.38915495490E+03  0.00000000000E+00 0.  1.
</event>
<event>
12    1  0.1066489E+000  0.3315186E+03  0.7818608E-02  0.1070489E+00
         21   -1    0    0  501  502  0.00000000000E+00  0.00000000000E+00  0.15731084003E+03  0.15731084003E+03  0.00000000000E+00 0.  1.
         21   -1    0    0  502  503 -0.00000000000E+00 -0.00000000000E+00 -0.74414414797E+03  0.74414414797E+03  0.00000000000E+00 0.  1.
         -6    2    1    2    0  503 -0.22590779671E+03  0.17119303756E+03 -0.40546451757E+03  0.52374234889E+03  0.17193947857E+03 0.  0.
        -24    2    3    3    0    0 -0.53721240467E+02  0.11898435299E+02 -0.13870915322E+03  0.16849103662E+03  0.78239732838E+02 0.  0.
          6    2    1    2  501    0  0.22590779671E+03 -0.17119303756E+03 -0.18136879037E+03  0.37771263911E+03  0.17155410486E+03 0.  0.
         24    2    5    5    0    0  0.46906214212E+02 -0.66418055168E+02 -0.11067745275E+03  0.15853527100E+03  0.79198375109E+02 0.  0.
          5    1    5    5  501    0  0.17900158250E+03 -0.10477498240E+03 -0.70691337616E+02  0.21917736810E+03  0.47000000000E+01 0. -1.
        -13    1    6    6    0    0  0.59613445999E+02 -0.53910549293E+02 -0.11489079882E+03  0.14021414309E+03  0.00000000000E+00 0.  1.
         14    1    6    6    0    0 -0.12707231787E+02 -0.12507505874E+02  0.42133460669E+01  0.18321127912E+02  0.00000000000E+00 0. -1.
         -5    1    3    3    0  503 -0.17218655625E+03  0.15929460227E+03 -0.26675536435E+03  0.35525131227E+03  0.47000000000E+01 0.  1.
         13    1    4    4    0    0 -0.64122463159E+02  0.32811474597E+02 -0.10993224021E+03  0.13142823359E+03  0.00000000000E+00 0. -1.
        -14    1    4    4    0    0  0.10401222693E+02 -0.20913039297E+02 -0.28776913011E+02  0.37062803032E+02  0.00000000000E+00 0.  1.
</event>
<event>
12    1  0.1066489E+000  0.5583267E+03  0.7818608E-02  0.9995888E-01
         21   -1    0    0  503  502  0.00000000000E+00  0.00000000000E+00  0.47965499307E+03  0.47965499307E+03  0.00000000000E+00 0. -1.
         21   -1    0    0  501  503 -0.00000000000E+00 -0.00000000000E+00 -0.98715392001E+03  0.98715392001E+03  0.00000000000E+00 0. -1.
          6    2    1    2  501    0  0.26926645722E+03  0.45760454108E+03  0.17498835028E+03  0.58503934076E+03  0.17246381216E+03 0.  0.
         24    2    3    3    0    0  0.24821555929E+03  0.30554892179E+03  0.99562979992E+02  0.41393957996E+03  0.80387072302E+02 0.  0.
         -6    2    1    2    0  502 -0.26926645722E+03 -0.45760454108E+03 -0.68248727723E+03  0.88176957233E+03  0.17269149982E+03 0.  0.
        -24    2    5    5    0    0 -0.12441757512E+03 -0.15946889451E+03 -0.19130512610E+03  0.28919210230E+03  0.78258286754E+02 0.  0.
          5    1    3    3  501    0  0.21050897924E+02  0.15205561929E+03  0.75425370292E+02  0.17109976080E+03  0.47000000000E+01 0. -1.
        -11    1    4    4    0    0  0.20358081190E+03  0.26410562023E+03  0.11201213868E+03  0.35177214902E+03  0.00000000000E+00 0.  1.
         12    1    4    4    0    0  0.44634747388E+02  0.41443301557E+02 -0.12449158684E+02  0.62167430945E+02  0.00000000000E+00 0. -1.
         -5    1    5    5    0  502 -0.14484888210E+03 -0.29813564657E+03 -0.49118215113E+03  0.59257747003E+03  0.47000000000E+01 0.  1.
         13    1    6    6    0    0 -0.13089065341E+03 -0.16295561433E+03 -0.18074935021E+03  0.27632810750E+03  0.00000000000E+00 0. -1.
        -14    1    6    6    0    0  0.64730782908E+01  0.34867198184E+01 -0.10555775891E+02  0.12863994804E+02  0.00000000000E+00 0.  1.
</event>
<event>
12    1  0.1066489E+000  0.4906848E+03  0.7818608E-02  0.1016260E+00
         21   -1    0    0  503  502  0.00000000000E+00  0.00000000000E+00  0.24609757940E+03  0.24609757940E+03  0.00000000000E+00 0.  1.
         21   -1    0    0  501  503 -0.00000000000E+00 -0.00000000000E+00 -0.11188601413E+04  0.11188601413E+04  0.00000000000E+00 0.  1.
          6    2    1    2  501    0 -0.45088812333E+03  0.86937285497E+02 -0.67888285240E+03  0.83764758666E+03  0.17295479406E+03 0.  0.
         24    2    3    3    0    0 -0.91370018975E+02  0.37279507535E+02 -0.17698836477E+03  0.21826133481E+03  0.81085676661E+02 0.  0.
         -6    2    1    2    0  502  0.45088812333E+03 -0.86937285497E+02 -0.19387970955E+03  0.52731013408E+03  0.17207104453E+03 0.  0.
        -24    2    5    5    0    0  0.45700180007E+03 -0.95635311975E+02 -0.17344943250E+03  0.50380441290E+03  0.75745776494E+02 0.  0.
          5    1    3    3  501    0 -0.35951810435E+03  0.49657777962E+02 -0.50189448763E+03  0.61938625185E+03  0.47000000000E+01 0. -1.
        -11    1    4    4    0    0 -0.52809680696E+02 -0.21317108333E+02 -0.90138510441E+02  0.10662191401E+03  0.00000000000E+00 0.  1.
         12    1    4    4    0    0 -0.38560338279E+02  0.58596615868E+02 -0.86849854327E+02  0.11163942080E+03  0.00000000000E+00 0. -1.
         -5    1    5    5    0  502 -0.61136767481E+01  0.86980264782E+01 -0.20430277049E+02  0.23505721182E+02  0.47000000000E+01 0.  1.
         13    1    6    6    0    0  0.32809219841E+02 -0.24527340597E+02 -0.27425647036E+01  0.41055535614E+02  0.00000000000E+00 0. -1.
        -14    1    6    6    0    0  0.42419258023E+03 -0.71107971378E+02 -0.17070686780E+03  0.46274887729E+03  0.00000000000E+00 0.  1.
</event>
<event>
12    1  0.1066489E+000  0.3340190E+03  0.7818608E-02  0.1069489E+00
         21   -1    0    0  503  502  0.00000000000E+00  0.00000000000E+00  0.20006717413E+03  0.20006717413E+03  0.00000000000E+00 0. -1.
         21   -1    0    0  501  503 -0.00000000000E+00 -0.00000000000E+00 -0.67981922681E+03  0.67981922681E+03  0.00000000000E+00 0. -1.
          6    2    1    2  501    0 -0.92160414421E+02  0.27132354059E+03 -0.52335874753E+02  0.33809426078E+03  0.17163531023E+03 0.  0.
         24    2    3    3    0    0 -0.12830262909E+03  0.22170310829E+03 -0.61792430672E+02  0.27580490829E+03  0.81462936942E+02 0.  0.
         -6    2    1    2    0  502  0.92160414421E+02 -0.27132354059E+03 -0.42741617793E+03  0.54179214016E+03  0.16954093406E+03 0.  0.
        -24    2    5    5    0    0 -0.11218264512E+02 -0.13137304171E+03 -0.24645735107E+03  0.29071151484E+03  0.79920169025E+02 0.  0.
          5    1    3    3  501    0  0.36142214666E+02  0.49620432303E+02  0.94565559182E+01  0.62289352483E+02  0.47000000000E+01 0. -1.
        -11    1    4    4    0    0 -0.78883726493E+02  0.19235600350E+03 -0.66127324246E+02  0.21816575671E+03  0.00000000000E+00 0.  1.
         12    1    4    4    0    0 -0.49418902595E+02  0.29347104785E+02  0.43348935747E+01  0.57639151583E+02  0.00000000000E+00 0. -1.
         -5    1    5    5    0  502  0.10337867893E+03 -0.13995049888E+03 -0.18095882685E+03  0.25108062532E+03  0.47000000000E+01 0.  1.
         13    1    6    6    0    0  0.31579878824E+02 -0.31368579725E+02 -0.86356932760E+02  0.97153468164E+02  0.00000000000E+00 0. -1.
        -14    1    6    6    0    0 -0.42798143336E+02 -0.10000446199E+03 -0.16010041831E+03  0.19355804668E+03  0.00000000000E+00 0.  1.
</event>
<event>
12    1  0.1066489E+000  0.1842724E+03  0.7818608E-02  0.1164354E+00
         21   -1    0    0  503  502  0.00000000000E+00  0.00000000000E+00  0.60481874393E+03  0.60481874393E+03  0.00000000000E+00 0.  1.
         21   -1    0    0  501  503 -0.00000000000E+00 -0.00000000000E+00 -0.61593318490E+02  0.61593318490E+02  0.00000000000E+00 0.  1.
          6    2    1    2  501    0 -0.62677011032E+02 -0.19422366018E+02  0.37599364214E+03  0.41756914951E+03  0.16937278317E+03 0.  0.
         24    2    3    3    0    0 -0.83135901517E+01  0.30667036561E+02  0.30973456008E+03  0.31818763344E+03  0.65561341167E+02 0.  0.
         -6    2    1    2    0  502  0.62677011032E+02  0.19422366018E+02  0.16723178330E+03  0.24884291291E+03  0.17219375699E+03 0.  0.
        -24    2    5    5    0    0 -0.14202656566E+02 -0.34469238607E+02  0.10051177331E+03  0.13356742518E+03  0.79673060887E+02 0.  0.
          5    1    3    3  501    0 -0.54363420880E+02 -0.50089402579E+02  0.66259082062E+02  0.99381516069E+02  0.47000000000E+01 0. -1.
        -11    1    4    4    0    0  0.18996209451E+02  0.29312592500E+02  0.86524488555E+02  0.93309009063E+02  0.00000000000E+00 0.  1.
         12    1    4    4    0    0 -0.27309799603E+02  0.13544440606E+01  0.22321007152E+03  0.22487862438E+03  0.00000000000E+00 0. -1.
         -5    1    5    5    0  502  0.76879667598E+02  0.53891604626E+02  0.66720009993E+02  0.11527548773E+03  0.47000000000E+01 0.  1.
         13    1    6    6    0    0  0.12031985111E+02 -0.48540482830E+02  0.88119236917E+02  0.10132100993E+03  0.00000000000E+00 0. -1.
        -14    1    6    6    0    0 -0.26234641677E+02  0.14071244222E+02  0.12392536392E+02  0.32246415244E+02  0.00000000000E+00 0.  1.
</event>
<event>
12    1  0.1066489E+000  0.2150668E+03  0.7818608E-02  0.1137663E+00
         21   -1    0    0  503  502  0.00000000000E+00  0.00000000000E+00  0.84652581919E+02  0.84652581919E+02  0.00000000000E+00 0. -1.
         21   -1    0    0  501  503 -0.00000000000E+00 -0.00000000000E+00 -0.55246231763E+03  0.55246231763E+03  0.00000000000E+00 0. -1.
          6    2    1    2  501    0  0.12149949582E+03 -0.43338472442E+02 -0.19894836870E+03  0.29297469662E+03  0.17208535316E+03 0.  0.
         24    2    3    3    0    0  0.27379535639E+02 -0.41265485448E+02 -0.18051343830E+02  0.88992619498E+02  0.71703249927E+02 0.  0.
         -6    2    1    2    0  502 -0.12149949582E+03  0.43338472442E+02 -0.26886136701E+03  0.34414020292E+03  0.17177221522E+03 0.  0.
        -24    2    5    5    0    0 -0.67077705326E+02  0.29184537750E+02 -0.26677648748E+03  0.28767338195E+03  0.78962805257E+02 0.  0.
          5    1    3    3  501    0  0.94119960185E+02 -0.20729869945E+01 -0.18089702487E+03  0.20398207712E+03  0.47000000000E+01 0. -1.
        -13    1    4    4    0    0 -0.50250782293E+00 -0.15053995875E+02 -0.41474612613E+02  0.44125035947E+02  0.00000000000E+00 0.  1.
         14    1    4    4    0    0  0.27882043462E+02 -0.26211489573E+02  0.23423268783E+02  0.44867583551E+02  0.00000000000E+00 0. -1.
         -5    1    5    5    0  502 -0.54421790498E+02  0.14153934692E+02 -0.20848795255E+01  0.56466820974E+02  0.47000000000E+01 0.  1.
         11    1    6    6    0    0 -0.46963236834E+02  0.52001121526E+02 -0.22719539440E+03  0.23775493579E+03  0.00000000000E+00 0. -1.
        -12    1    6    6    0    0 -0.20114468492E+02 -0.22816583776E+02 -0.39581093081E+02  0.49918446164E+02  0.00000000000E+00 0.  1.
</event>
<event>
12    1  0.1066489E+000  0.2001161E+03  0.7818608E-02  0.1149808E+00
         21   -1    0    0  501  502  0.00000000000E+00  0.00000000000E+00  0.88869645061E+03  0.88869645061E+03  0.00000000000E+00 0. -1.
         21   -1    0    0  502  503 -0.00000000000E+00 -0.00000000000E+00 -0.45144000533E+02  0.45144000533E+02  0.00000000000E+00 0. -1.
         -6    2    1    2    0  503  0.62207291177E+00  0.10160944437E+03  0.38719765987E+03  0.43585372498E+03  0.17239946522E+03 0.  0.
        -24    2    3    3    0    0  0.24460774275E+02 -0.10934331974E+02  0.16455502759E+03  0.18520214013E+03  0.80644817013E+02 0.  0.
          6    2    1    2  501    0 -0.62207291177E+00 -0.10160944437E+03  0.45635479021E+03  0.49798672616E+03  0.17148241522E+03 0.  0.
         24    2    5    5    0    0 -0.33058081029E+02 -0.12679557506E+03  0.31025045797E+03  0.34614799033E+03  0.79957050744E+02 0.  0.
          5    1    5    5  501    0  0.32436008118E+02  0.25186130683E+02  0.14610433224E+03  0.15183873584E+03  0.47000000000E+01 0. -1.
        -11    1    6    6    0    0 -0.27751070713E+01  0.50933183414E+01 -0.17558802142E+01  0.60602166884E+01  0.00000000000E+00 0.  1.
         12    1    6    6    0    0 -0.30282973958E+02 -0.13188889340E+03  0.31200633818E+03  0.34008777364E+03  0.00000000000E+00 0. -1.
         -5    1    3    3    0  503 -0.23838701364E+02  0.11254377635E+03  0.22264263228E+03  0.25065158485E+03  0.47000000000E+01 0.  1.
         11    1    4    4    0    0  0.28929078807E+02 -0.42994180421E+02  0.11318867954E+03  0.12448722154E+03  0.00000000000E+00 0. -1.
        -12    1    4    4    0    0 -0.44683045318E+01  0.32059848447E+02  0.51366348050E+02  0.60714918593E+02  0.00000000000E+00 0.  1.
</event>
<event>
12    1  0.1066489E+000  0.2909238E+03  0.7818608E-02  0.1090703E+00
         21   -1    0    0  503  502  0.00000000000E+00  0.00000000000E+00  0.85942699025E+03  0.85942699025E+03  0.00000000000E+00 0. -1.
         21   -1    0    0  501  503 -0.00000000000E+00 -0.00000000000E+00 -0.15581501312E+03  0.15581501312E+03  0.00000000000E+00 0. -1.
          6    2    1    2  501    0 -0.17134596244E+03  0.14718768129E+03  0.66300733544E+03  0.72149828481E+03  0.17308204921E+03 0.  0.
         24    2    3    3    0    0 -0.31583013683E+02  0.75857332679E+02  0.16988915018E+03  0.20399530402E+03  0.77459273440E+02 0.  0.
         -6    2    1    2    0  502  0.17134596244E+03 -0.14718768129E+03  0.40604641686E+02  0.29374371856E+03  0.18333843814E+03 0.  0.
        -24    2    5    5    0    0  0.12766236502E+03 -0.17384337776E+03  0.28574163670E+01  0.22998067396E+03  0.79773091517E+02 0.  0.
          5    1    3    3  501    0 -0.13976294876E+03  0.71330348610E+02  0.49311818527E+03  0.51750298078E+03  0.47000000000E+01 0. -1.
        -11    1    4    4    0    0 -0.43090724898E+02  0.18671201617E+02  0.11363642618E+03  0.12295796719E+03  0.00000000000E+00 0.  1.
         12    1    4    4    0    0  0.11507711215E+02  0.57186131062E+02  0.56252723999E+02  0.81037336831E+02  0.00000000000E+00 0. -1.
         -5    1    5    5    0  502  0.43683597420E+02  0.26655696475E+02  0.37747225319E+02  0.63763044606E+02  0.47000000000E+01 0.  1.
         13    1    6    6    0    0  0.11835090924E+02 -0.76098829965E+02  0.12914413486E+02  0.78088945280E+02  0.00000000000E+00 0. -1.
        -14    1    6    6    0    0  0.11582727410E+03 -0.97744547799E+02 -0.10056997119E+02  0.15189172868E+03  0.00000000000E+00 0.  1.
</event>
<event>
12    1  0.1066489E+000  0.2093570E+03  0.7818608E-02  0.1142333E+00
         21   -1    0    0  501  502  0.00000000000E+00  0.00000000000E+00  0.50382954822E+03  0.50382954822E+03  0.00000000000E+00 0. -1.
         21   -1    0    0  502  503 -0.00000000000E+00 -0.00000000000E+00 -0.86543601000E+02  0.86543601000E+02  0.00000000000E+00 0. -1.
         -6    2    1    2    0  503  0.63989581552E+00  0.11678860706E+03  0.19884626022E+03  0.28780703042E+03  0.17220064851E+03 0.  0.
        -24    2    3    3    0    0  0.35892731867E+02  0.29639846932E+02  0.35580680897E+02  0.99351708830E+02  0.80236952007E+02 0.  0.
          6    2    1    2  501    0 -0.63989581552E+00 -0.11678860706E+03  0.21843968700E+03  0.30256611880E+03  0.17375376596E+03 0.  0.
         24    2    5    5    0    0 -0.15798126635E+02 -0.70531282186E+01  0.39262064638E+02  0.91856940945E+02  0.81221059198E+02 0.  0.
          5    1    5    5  501    0  0.15158230820E+02 -0.10973547884E+03  0.17917762236E+03  0.21070917786E+03  0.47000000000E+01 0. -1.
        -13    1    6    6    0    0 -0.49188967989E+02 -0.50615888725E+01  0.26063090412E+02  0.55896859800E+02  0.00000000000E+00 0.  1.
         14    1    6    6    0    0  0.33390841354E+02 -0.19915393461E+01  0.13198974226E+02  0.35960081144E+02  0.00000000000E+00 0. -1.
         -5    1    3    3    0  503 -0.35252836052E+02  0.87148760130E+02  0.16326557932E+03  0.18845532159E+03  0.47000000000E+01 0.  1.
         11    1    4    4    0    0  0.30617706167E+02 -0.17887683721E+02  0.37347134332E+02  0.51499724297E+02  0.00000000000E+00 0. -1.
        -12    1    4    4    0    0  0.52750257007E+01  0.47527530653E+02 -0.17664534356E+01  0.47851984534E+02  0.00000000000E+00 0.  1.
</event>
<event>
12    1  0.1066489E+000  0.2552223E+03  0.7818608E-02  0.1110143E+00
         21   -1    0    0  501  502  0.00000000000E+00  0.00000000000E+00  0.97039572343E+03  0.97039572343E+03  0.00000000000E+00 0. -1.
         21   -1    0    0  502  503 -0.00000000000E+00 -0.00000000000E+00 -0.12551886384E+03  0.12551886384E+03  0.00000000000E+00 0. -1.
         -6    2    1    2    0  503 -0.17123798770E+03 -0.75570984277E+02  0.48449543240E+02  0.25978027514E+03  0.17350795664E+03 0.  0.
        -24    2    3    3    0    0 -0.12766547919E+03 -0.29369408683E+02  0.95157922129E+02  0.18080615442E+03  0.80466133191E+02 0.  0.
          6    2    1    2  501    0  0.17123798770E+03  0.75570984277E+02  0.79642731635E+03  0.83613431213E+03  0.17259981343E+03 0.  0.
         24    2    5    5    0    0  0.19187449495E+03  0.91759769840E+02  0.67002821042E+03  0.70695704559E+03  0.74931864934E+02 0.  0.
          5    1    5    5  501    0 -0.20636507255E+02 -0.16188785562E+02  0.12639910594E+03  0.12917726654E+03  0.47000000000E+01 0. -1.
        -11    1    6    6    0    0  0.15026548203E+03  0.10070284921E+03  0.57623032905E+03  0.60395543796E+03  0.00000000000E+00 0.  1.
         12    1    6    6    0    0  0.41609012926E+02 -0.89430793679E+01  0.93797881367E+02  0.10300160763E+03  0.00000000000E+00 0. -1.
         -5    1    3    3    0  503 -0.43572508511E+02 -0.46201575594E+02 -0.46708378889E+02  0.78974120722E+02  0.47000000000E+01 0.  1.
         13    1    4    4    0    0 -0.33998680785E+01 -0.55606956507E+01  0.43754197950E+02  0.44236978618E+02  0.00000000000E+00 0. -1.
        -14    1    4    4    0    0 -0.12426561111E+03 -0.23808713033E+02  0.51403724180E+02  0.13656917580E+03  0.00000000000E+00 0.  1.
</event>
<event>
12    1  0.1066489E+000  0.1881008E+03  0.7818608E-02  0.1164129E+00
         21   -1    0    0  501  502  0.00000000000E+00  0.00000000000E+00  0.70691885899E+02  0.70691885899E+02  0.00000000000E+00 0.  1.
         21   -1    0    0  502  503 -0.00000000000E+00 -0.00000000000E+00 -0.93944815327E+03  0.93944815327E+03  0.00000000000E+00 0.  1.
         -6    2    1    2    0  503 -0.66732215072E+02 -0.15043425123E+02 -0.82560371190E+02  0.20542179491E+03  0.17522101976E+03 0.  0.
        -24    2    3    3    0    0 -0.43656480945E+02  0.37664541928E+02 -0.10465262241E+03  0.14360936201E+03  0.79667882067E+02 0.  0.
          6    2    1    2  501    0  0.66732215072E+02  0.15043425123E+02 -0.78619589618E+03  0.80471824426E+03  0.15744196489E+03 0.  0.
         24    2    5    5    0    0  0.10209863376E+03  0.93192654692E+01 -0.69055247288E+03  0.70247684366E+03  0.78102614305E+02 0.  0.
          5    1    5    5  501    0 -0.35366418693E+02  0.57241596536E+01 -0.95643423304E+02  0.10224140060E+03  0.47000000000E+01 0. -1.
        -13    1    6    6    0    0  0.17355193924E+02 -0.26952812371E+02 -0.27268747241E+03  0.27456531911E+03  0.00000000000E+00 0.  1.
         14    1    6    6    0    0  0.84743439841E+02  0.36272077840E+02 -0.41786500047E+03  0.42791152455E+03  0.00000000000E+00 0. -1.
         -5    1    3    3    0  503 -0.23075734127E+02 -0.52707967051E+02  0.22092251222E+02  0.61812432894E+02  0.47000000000E+01 0.  1.
         13    1    4    4    0    0  0.11326978393E+02 -0.11819987904E+02 -0.11784684663E+01  0.16413450018E+02  0.00000000000E+00 0. -1.
        -14    1    4    4    0    0 -0.54983459339E+02  0.49484529832E+02 -0.10347415395E+03  0.12719591200E+03  0.00000000000E+00 0.  1.
</event>
<event>
12    1  0.1066489E+000  0.1788213E+03  0.7818608E-02  0.1169720E+00
         21   -1    0    0  501  502  0.00000000000E+00  0.00000000000E+00  0.14642231157E+03  0.14642231157E+03  0.00000000000E+00 0.  1.
         21   -1    0    0  502  503 -0.00000000000E+00 -0.00000000000E+00 -0.21464864138E+03  0.21464864138E+03  0.00000000000E+00 0.  1.
         -6    2    1    2    0  503 -0.34630651664E+02 -0.41576682821E+02 -0.31213678071E+02  0.18152509630E+03  0.17043815389E+03 0.  0.
        -24    2    3    3    0    0 -0.82520785261E+02 -0.28190572660E+02  0.68133944399E+01  0.11874929615E+03  0.80315531530E+02 0.  0.
          6    2    1    2  501    0  0.34630651664E+02  0.41576682821E+02 -0.37012651743E+02  0.17954585665E+03  0.16714926163E+03 0.  0.
         24    2    5    5    0    0  0.12861622946E+02  0.21429885435E+02 -0.88863926512E+02  0.11962567014E+03  0.76084441163E+02 0.  0.
          5    1    5    5  501    0  0.21769028718E+02  0.20146797386E+02  0.51851274769E+02  0.59920186510E+02  0.47000000000E+01 0. -1.
        -11    1    6    6    0    0 -0.28631030592E+02  0.14793053503E+02 -0.17145507925E+02  0.36503955768E+02  0.00000000000E+00 0.  1.
         12    1    6    6    0    0  0.41492653538E+02  0.66368319323E+01 -0.71718418587E+02  0.83121714373E+02  0.00000000000E+00 0. -1.
         -5    1    3    3    0  503  0.47890133597E+02 -0.13386110161E+02 -0.38027072511E+02  0.62775800154E+02  0.47000000000E+01 0.  1.
         11    1    4    4    0    0 -0.25475989459E+02 -0.44665078364E+02  0.24270775517E+02  0.56860054593E+02  0.00000000000E+00 0. -1.
        -12    1    4    4    0    0 -0.57044795802E+02  0.16474505703E+02 -0.17457381077E+02  0.61889241556E+02  0.00000000000E+00 0.  1.
</event>
