<event>
12    1  0.1630640E-001  0.2115236E+03  0.7818608E-02  0.1140520E+00
         21   -1    0    0  501  502  0.00000000000E+00  0.00000000000E+00  0.17755700859E+03  0.17755700859E+03  0.00000000000E+00 0.  1.
         21   -1    0    0  502  503 -0.00000000000E+00 -0.00000000000E+00 -0.25164851742E+03  0.25164851742E+03  0.00000000000E+00 0.  1.
         -6    2    1    2    0  503 -0.30787353141E+02  0.11865661372E+03 -0.47600830622E+02  0.21681343073E+03  0.17238031088E+03 0.  0.
        -24    2    3    3    0    0 -0.21200085630E+02 -0.59586846719E+01  0.22891948768E+01  0.82158341949E+02  0.79118917996E+02 0.  0.
          6    2    1    2  501    0  0.30787353141E+02 -0.11865661372E+03 -0.26490678212E+02  0.21239209527E+03  0.17141001432E+03 0.  0.
         24    2    5    5    0    0 -0.42068181232E+02 -0.63391714787E+02 -0.43072215058E+02  0.11933740540E+03  0.81227823074E+02 0.  0.
          5    1    5    5  501    0  0.72855534373E+02 -0.55264898933E+02  0.16581536847E+02  0.93054689871E+02  0.47000000000E+01 0. -1.
        -11    1    6    6    0    0  0.91514166348E+01 -0.51063377472E+02 -0.94969675174E+00  0.51885632589E+02  0.00000000000E+00 0.  1.
         12    1    6    6    0    0 -0.51219597867E+02 -0.12328337315E+02 -0.42122518307E+02  0.67451772809E+02  0.00000000000E+00 0. -1.
         -5    1    3    3    0  503 -0.95872675110E+01  0.12461529839E+03 -0.49890025498E+02  0.13465508879E+03  0.47000000000E+01 0.  1.
         13    1    4    4    0    0  0.27204392996E+02 -0.38142029338E+01  0.16017335160E+02  0.31799090678E+02  0.00000000000E+00 0. -1.
        -14    1    4    4    0    0 -0.48404478626E+02 -0.21444817380E+01 -0.13728140283E+02  0.50359251272E+02  0.00000000000E+00 0.  1.
</event>
<event>
12    1  0.1630640E-001  0.1780085E+03  0.7818608E-02  0.1169857E+00
         21   -1    0    0  501  502  0.00000000000E+00  0.00000000000E+00  0.89483061918E+02  0.89483061918E+02  0.00000000000E+00 0. -1.
         21   -1    0    0  502  503 -0.00000000000E+00 -0.00000000000E+00 -0.56396750768E+03  0.56396750768E+03  0.00000000000E+00 0. -1.
         -6    2    1    2    0  503 -0.13471865560E+02 -0.44052273405E+02 -0.43716758707E+03  0.47201963848E+03  0.17194460147E+03 0.  0.
        -24    2    3    3    0    0 -0.21736349399E+01  0.26605569246E+02 -0.34522414147E+03  0.35541831803E+03  0.80186606927E+02 0.  0.
          6    2    1    2  501    0  0.13471865560E+02  0.44052273405E+02 -0.37316858691E+02  0.18143093112E+03  0.17147169116E+03 0.  0.
         24    2    5    5    0    0  0.51297083743E+02  0.80837833020E+02 -0.40417407214E+02  0.12836844033E+03  0.75357439050E+02 0.  0.
          5    1    5    5  501    0 -0.37825218183E+02 -0.36785559614E+02  0.31005485226E+01  0.53062490781E+02  0.47000000000E+01 0. -1.
        -13    1    6    6    0    0 -0.14750768760E+02  0.36583664507E+02 -0.26848388749E+02  0.47715675267E+02  0.00000000000E+00 0.  1.
         14    1    6    6    0    0  0.66047852503E+02  0.44254168513E+02 -0.13569018465E+02  0.80652765068E+02  0.00000000000E+00 0. -1.
         -5    1    3    3    0  503 -0.11298230620E+02 -0.70657842651E+02 -0.91943445600E+02  0.11660132046E+03  0.47000000000E+01 0.  1.
         11    1    4    4    0    0 -0.22736771924E+02  0.41171591440E+02 -0.12159872701E+03  0.13037757150E+03  0.00000000000E+00 0. -1.
        -12    1    4    4    0    0  0.20563136984E+02 -0.14566022194E+02 -0.22362541446E+03  0.22504074653E+03  0.00000000000E+00 0.  1.
</event>
<event>
12    1  0.1630640E-001  0.1936915E+03  0.7818608E-02  0.1155905E+00
         21   -1    0    0  501  502  0.00000000000E+00  0.00000000000E+00  0.43566458300E+03  0.43566458300E+03  0.00000000000E+00 0. -1.
         21   -1    0    0  502  503 -0.00000000000E+00 -0.00000000000E+00 -0.11260197813E+03  0.11260197813E+03  0.00000000000E+00 0. -1.
         -6    2    1    2    0  503  0.10904638355E+02 -0.82547987215E+02  0.23920245126E+02  0.19189236719E+03  0.17122330778E+03 0.  0.
        -24    2    3    3    0    0 -0.19965369446E+02 -0.68991678698E+02 -0.35396873190E+02  0.12350127561E+03  0.94027436091E+02 0.  0.
          6    2    1    2  501    0 -0.10904638355E+02  0.82547987215E+02  0.29914235974E+03  0.35637419394E+03  0.17488091200E+03 0.  0.
         24    2    5    5    0    0  0.56205218870E+02  0.23334625803E+02  0.13043242596E+03  0.16533732089E+03  0.81365106453E+02 0.  0.
          5    1    5    5  501    0 -0.67109857225E+02  0.59213361412E+02  0.16870993378E+03  0.19103687304E+03  0.47000000000E+01 0. -1.
        -11    1    6    6    0    0  0.43484295894E+01  0.39127569370E+02  0.24579905339E+02  0.46411714805E+02  0.00000000000E+00 0.  1.
         12    1    6    6    0    0  0.51856789280E+02 -0.15792943567E+02  0.10585252062E+03  0.11892560609E+03  0.00000000000E+00 0. -1.
         -5    1    3    3    0  503  0.30870007801E+02 -0.13556308517E+02  0.59317118316E+02  0.68391091581E+02  0.47000000000E+01 0.  1.
         11    1    4    4    0    0  0.19520690903E+02 -0.75774103941E+02 -0.24069713458E+02  0.81866496855E+02  0.00000000000E+00 0. -1.
        -12    1    4    4    0    0 -0.39486060348E+02  0.67824252429E+01 -0.11327159732E+02  0.41634778751E+02  0.00000000000E+00 0.  1.
</event>
<event>
12    1  0.1630640E-001  0.2070301E+03  0.7818608E-02  0.1145214E+00
         21   -1    0    0  503  502  0.00000000000E+00  0.00000000000E+00  0.13470468614E+04  0.13470468614E+04  0.00000000000E+00 0. -1.
         21   -1    0    0  501  503 -0.00000000000E+00 -0.00000000000E+00 -0.68091477955E+02  0.68091477955E+02  0.00000000000E+00 0.  1.
          6    2    1    2  501    0  0.10394752908E+03  0.14548273569E+02  0.11194625437E+03  0.22990765698E+03  0.17119820620E+03 0.  0.
         24    2    3    3    0    0  0.14814077609E+02  0.20143294444E+02 -0.89186862932E+01  0.79553075044E+02  0.74992930182E+02 0.  0.
         -6    2    1    2    0  502 -0.10394752908E+03 -0.14548273569E+02  0.11670091291E+04  0.11852306824E+04  0.17845089524E+03 0.  0.
        -24    2    5    5    0    0 -0.16535142109E+01  0.25075037013E+02  0.30455016595E+03  0.31581040121E+03  0.79711444213E+02 0.  0.
          5    1    3    3  501    0  0.89133451473E+02 -0.55950208751E+01  0.12086494066E+03  0.15035458194E+03  0.47000000000E+01 0. -1.
        -11    1    4    4    0    0  0.43656208047E+02  0.11467447133E+02  0.66896539499E+01  0.45630234656E+02  0.00000000000E+00 0.  1.
         12    1    4    4    0    0 -0.28842130439E+02  0.86758473109E+01 -0.15608340243E+02  0.33922840387E+02  0.00000000000E+00 0. -1.
         -5    1    5    5    0  502 -0.10229401487E+03 -0.39623310582E+02  0.86245896311E+03  0.86942028114E+03  0.47000000000E+01 0.  1.
         13    1    6    6    0    0  0.69753162618E+01  0.52752041179E+02  0.16835946883E+03  0.17656824071E+03  0.00000000000E+00 0. -1.
        -14    1    6    6    0    0 -0.86288304727E+01 -0.27677004166E+02  0.13619069713E+03  0.13924216049E+03  0.00000000000E+00 0.  1.
</event>
<event>
12    1  0.1630640E-001  0.2415881E+03  0.7818608E-02  0.1119373E+00
         21   -1    0    0  503  502  0.00000000000E+00  0.00000000000E+00  0.13240270502E+04  0.13240270502E+04  0.00000000000E+00 0. -1.
         21   -1    0    0  501  503 -0.00000000000E+00 -0.00000000000E+00 -0.14795595923E+03  0.14795595923E+03  0.00000000000E+00 0.  1.
          6    2    1    2  501    0  0.21127988701E+02 -0.16257693939E+03 -0.29321537658E+02  0.24336094181E+03  0.17744616733E+03 0.  0.
         24    2    3    3    0    0  0.21986755155E+02 -0.15884280661E+03 -0.76523753107E+02  0.19577081289E+03  0.82194110340E+02 0.  0.
         -6    2    1    2    0  502 -0.21127988701E+02  0.16257693939E+03  0.12053926286E+04  0.12286220676E+04  0.17222991255E+03 0.  0.
        -24    2    5    5    0    0  0.31975674791E+02  0.16315459016E+03  0.93839316202E+03  0.95635172784E+03  0.79906424983E+02 0.  0.
          5    1    3    3  501    0 -0.85876645399E+00 -0.37341327799E+01  0.47202215448E+02  0.47590128920E+02  0.47000000000E+01 0. -1.
        -11    1    4    4    0    0  0.51572406015E+02 -0.12128320878E+03 -0.63038054845E+02  0.14609286825E+03  0.00000000000E+00 0.  1.
         12    1    4    4    0    0 -0.29585650860E+02 -0.37559597834E+02 -0.13485698262E+02  0.49677944642E+02  0.00000000000E+00 0. -1.
         -5    1    5    5    0  502 -0.53103663493E+02 -0.57765076359E+00  0.26699946656E+03  0.27227033974E+03  0.47000000000E+01 0.  1.
         11    1    6    6    0    0 -0.21496755134E+02  0.94533204070E+02  0.53032791360E+03  0.53911625193E+03  0.00000000000E+00 0. -1.
        -12    1    6    6    0    0  0.53472429926E+02  0.68621386085E+02  0.40806524842E+03  0.41723547591E+03  0.00000000000E+00 0.  1.
</event>
<event>
12    1  0.1630640E-001  0.1849114E+03  0.7818608E-02  0.1163176E+00
         21   -1    0    0  503  502  0.00000000000E+00  0.00000000000E+00  0.66493153446E+02  0.66493153446E+02  0.00000000000E+00 0. -1.
         21   -1    0    0  501  503 -0.00000000000E+00 -0.00000000000E+00 -0.70778435286E+03  0.70778435286E+03  0.00000000000E+00 0. -1.
          6    2    1    2  501    0  0.36267501223E+02 -0.57282030256E+02 -0.52348875850E+03  0.55518707620E+03  0.17203385327E+03 0.  0.
         24    2    3    3    0    0  0.28069401687E+02 -0.95476709931E+02 -0.28038230803E+03  0.30891714573E+03  0.83137661879E+02 0.  0.
         -6    2    1    2    0  502 -0.36267501223E+02  0.57282030256E+02 -0.11780244091E+03  0.21909043010E+03  0.17183317154E+03 0.  0.
        -24    2    5    5    0    0 -0.20855052753E+02 -0.19831933073E+02 -0.91378289377E+01  0.84873460968E+02  0.79320650932E+02 0.  0.
          5    1    3    3  501    0  0.81980995364E+01  0.38194679675E+02 -0.24310645048E+03  0.24626993047E+03  0.47000000000E+01 0. -1.
        -13    1    4    4    0    0 -0.13117172190E+02 -0.43192700797E+02 -0.42863544812E+02  0.62249121136E+02  0.00000000000E+00 0.  1.
         14    1    4    4    0    0  0.41186573877E+02 -0.52284009133E+02 -0.23751876321E+03  0.24666802460E+03  0.00000000000E+00 0. -1.
         -5    1    5    5    0  502 -0.15412448470E+02  0.77113963328E+02 -0.10866461198E+03  0.13421696913E+03  0.47000000000E+01 0.  1.
         11    1    6    6    0    0 -0.20623100954E+02  0.67396107055E+01  0.30331590187E+02  0.37292626734E+02  0.00000000000E+00 0. -1.
        -12    1    6    6    0    0 -0.23195179951E+00 -0.26571543778E+02 -0.39469419125E+02  0.47580834235E+02  0.00000000000E+00 0.  1.
</event>
<event>
12    1  0.1630640E-001  0.1770050E+03  0.7818608E-02  0.1170884E+00
         21   -1    0    0  501  502  0.00000000000E+00  0.00000000000E+00  0.42406988696E+02  0.42406988696E+02  0.00000000000E+00 0. -1.
         21   -1    0    0  502  503 -0.00000000000E+00 -0.00000000000E+00 -0.16203860822E+04  0.16203860822E+04  0.00000000000E+00 0. -1.
         -6    2    1    2    0  503  0.43328364261E+02 -0.11819653671E+02 -0.14024905796E+04  0.14135402429E+04  0.17058470333E+03 0.  0.
        -24    2    3    3    0    0 -0.67491969517E+01  0.40871276454E+02 -0.10327304968E+04  0.10366732835E+04  0.80269575574E+02 0.  0.
          6    2    1    2  501    0 -0.43328364261E+02  0.11819653671E+02 -0.17548851397E+03  0.24925282808E+03  0.17121244817E+03 0.  0.
         24    2    5    5    0    0  0.17364837885E+02 -0.13079846406E+02 -0.16169042025E+03  0.18205069061E+03  0.80783921500E+02 0.  0.
          5    1    5    5  501    0 -0.60693202146E+02  0.24899500077E+02 -0.13798093717E+02  0.67202137474E+02  0.47000000000E+01 0. -1.
        -13    1    6    6    0    0  0.44158650555E+02 -0.16433691202E+02 -0.57097057129E+02  0.74027876899E+02  0.00000000000E+00 0.  1.
         14    1    6    6    0    0 -0.26793812670E+02  0.33538447957E+01 -0.10459336312E+03  0.10802281371E+03  0.00000000000E+00 0. -1.
         -5    1    3    3    0  503  0.50077561212E+02 -0.52690930125E+02 -0.36976008279E+03  0.37686695939E+03  0.47000000000E+01 0.  1.
         13    1    4    4    0    0 -0.20462684272E+02  0.20174276808E+02 -0.11262961974E+03  0.11623749023E+03  0.00000000000E+00 0. -1.
        -14    1    4    4    0    0  0.13713487320E+02  0.20696999646E+02 -0.92010087705E+03  0.92043579324E+03  0.00000000000E+00 0.  1.
</event>
<event>
12    1  0.1630640E-001  0.2428127E+03  0.7818608E-02  0.1117947E+00
         21   -1    0    0  503  502  0.00000000000E+00  0.00000000000E+00  0.35164359018E+03  0.35164359018E+03  0.00000000000E+00 0.  1.
         21   -1    0    0  501  503 -0.00000000000E+00 -0.00000000000E+00 -0.16784970618E+03  0.16784970618E+03  0.00000000000E+00 0. -1.
          6    2    1    2  501    0  0.17137572219E+03 -0.10068946869E+01  0.10180642469E+03  0.26321230983E+03  0.17188810297E+03 0.  0.
         24    2    3    3    0    0  0.14909225976E+03  0.56056787181E+02  0.10574961393E+03  0.20164563680E+03  0.64086790260E+02 0.  0.
         -6    2    1    2    0  502 -0.17137572219E+03  0.10068946869E+01  0.81987459317E+02  0.25628098653E+03  0.17200973397E+03 0.  0.
        -24    2    5    5    0    0 -0.11269470071E+03 -0.37854356857E+02  0.10978090897E+03  0.18046393702E+03  0.79889528037E+02 0.  0.
          5    1    3    3  501    0  0.22283462428E+02 -0.57063681868E+02 -0.39431892384E+01  0.61566673026E+02  0.47000000000E+01 0. -1.
        -13    1    4    4    0    0  0.71345857771E+02 -0.67251681610E+01  0.40796687876E+02  0.82461075966E+02  0.00000000000E+00 0.  1.
         14    1    4    4    0    0  0.77746401989E+02  0.62781955342E+02  0.64952926050E+02  0.11918456083E+03  0.00000000000E+00 0. -1.
         -5    1    5    5    0  502 -0.58681021474E+02  0.38861251544E+02 -0.27793449652E+02  0.75817049510E+02  0.47000000000E+01 0.  1.
         13    1    6    6    0    0 -0.50628156402E+02  0.24735596957E+01  0.33151424350E+01  0.50796839347E+02  0.00000000000E+00 0. -1.
        -14    1    6    6    0    0 -0.62066544312E+02 -0.40327916553E+02  0.10646576653E+03  0.12966709768E+03  0.00000000000E+00 0.  1.
</event>
<event>
12    1  0.1630640E-001  0.2006699E+03  0.7818608E-02  0.1149207E+00
         21   -1    0    0  501  502  0.00000000000E+00  0.00000000000E+00  0.36920573708E+04  0.36920573708E+04  0.00000000000E+00 0.  1.
         21   -1    0    0  502  503 -0.00000000000E+00 -0.00000000000E+00 -0.37294099203E+02  0.37294099203E+02  0.00000000000E+00 0.  1.
         -6    2    1    2    0  503  0.95526463075E+02 -0.25406340309E+02  0.25844213888E+03  0.32710726486E+03  0.17445926832E+03 0.  0.
        -24    2    3    3    0    0  0.85905163161E+01  0.19273306601E+02  0.46616544550E+02  0.93769950872E+02  0.78577631314E+02 0.  0.
          6    2    1    2  501    0 -0.95526463075E+02  0.25406340309E+02  0.33963211327E+04  0.34022442051E+04  0.17463564240E+03 0.  0.
         24    2    5    5    0    0 -0.72028105985E+02  0.49919768217E+02  0.11837829476E+04  0.11894404651E+04  0.75805817017E+02 0.  0.
          5    1    5    5  501    0 -0.23498357090E+02 -0.24513427908E+02  0.22125381852E+04  0.22128037400E+04  0.47000000000E+01 0. -1.
        -11    1    6    6    0    0 -0.81166169376E+02  0.43064220973E+02  0.11521493828E+04  0.11558073691E+04  0.00000000000E+00 0.  1.
         12    1    6    6    0    0  0.91380633911E+01  0.68555472439E+01  0.31633564762E+02  0.33633096053E+02  0.00000000000E+00 0. -1.
         -5    1    3    3    0  503  0.86935946759E+02 -0.44679646910E+02  0.21182559433E+03  0.23333731399E+03  0.47000000000E+01 0.  1.
         13    1    4    4    0    0 -0.34813237224E+02  0.87686994127E+01  0.27361897520E+02  0.45138952262E+02  0.00000000000E+00 0. -1.
        -14    1    4    4    0    0  0.43403753540E+02  0.10504607188E+02  0.19254647029E+02  0.48630998610E+02  0.00000000000E+00 0.  1.
</event>
<event>
12    1  0.1630640E-001  0.2391154E+03  0.7818608E-02  0.1120475E+00
         21   -1    0    0  501  502  0.00000000000E+00  0.00000000000E+00  0.99115013080E+02  0.99115013080E+02  0.00000000000E+00 0.  1.
         21   -1    0    0  502  503 -0.00000000000E+00 -0.00000000000E+00 -0.96136340216E+03  0.96136340216E+03  0.00000000000E+00 0.  1.
         -6    2    1    2    0  503  0.10229867947E+03 -0.12938126626E+03 -0.76732475642E+03  0.80371853029E+03  0.17312325736E+03 0.  0.
        -24    2    3    3    0    0 -0.94094073664E+01 -0.21561475476E+02 -0.27628302618E+03  0.28869632224E+03  0.80373016289E+02 0.  0.
          6    2    1    2  501    0 -0.10229867947E+03  0.12938126626E+03 -0.94923632661E+02  0.25675988495E+03  0.17236766113E+03 0.  0.
         24    2    5    5    0    0 -0.40129438153E+02  0.12341006558E+03 -0.11274993012E+02  0.15226177626E+03  0.78842291631E+02 0.  0.
          5    1    5    5  501    0 -0.62169241321E+02  0.59712006711E+01 -0.83648639649E+02  0.10449810869E+03  0.47000000000E+01 0. -1.
        -13    1    6    6    0    0 -0.52113671479E+02  0.77002759481E+02 -0.34278984015E+02  0.99097469533E+02  0.00000000000E+00 0.  1.
         14    1    6    6    0    0  0.11984233325E+02  0.46407306103E+02  0.23003991003E+02  0.53164306731E+02  0.00000000000E+00 0. -1.
         -5    1    3    3    0  503  0.11170808684E+03 -0.10781979078E+03 -0.49104173024E+03  0.51502220805E+03  0.47000000000E+01 0.  1.
         11    1    4    4    0    0 -0.45280745758E+01 -0.51444884840E+02 -0.14366103800E+03  0.15266163065E+03  0.00000000000E+00 0. -1.
        -12    1    4    4    0    0 -0.48813327906E+01  0.29883409364E+02 -0.13262198819E+03  0.13603469159E+03  0.00000000000E+00 0.  1.
</event>
<event>
12    1  0.1630640E-001  0.2222833E+03  0.7818608E-02  0.1132219E+00
         21   -1    0    0  501  502  0.00000000000E+00  0.00000000000E+00  0.70868029526E+03  0.70868029526E+03  0.00000000000E+00 0.  1.
         21   -1    0    0  502  503 -0.00000000000E+00 -0.00000000000E+00 -0.35409436490E+03  0.35409436490E+03  0.00000000000E+00 0. -1.
         -6    2    1    2    0  503 -0.12928297554E+03  0.57901088055E+02 -0.29894186110E+03  0.37252665965E+03  0.17129872172E+03 0.  0.
        -24    2    3    3    0    0 -0.11980080358E+03 -0.15143084504E+02 -0.16315701537E+03  0.21797900661E+03  0.79454956478E+02 0.  0.
          6    2    1    2  501    0  0.12928297554E+03 -0.57901088055E+02  0.65352779147E+03  0.69024800051E+03  0.17110553536E+03 0.  0.
         24    2    5    5    0    0  0.67833512078E+02 -0.68374106508E+02  0.22584791698E+03  0.25802365400E+03  0.79325409670E+02 0.  0.
          5    1    5    5  501    0  0.61449463462E+02  0.10473018453E+02  0.42767987449E+03  0.43222434651E+03  0.47000000000E+01 0. -1.
        -11    1    6    6    0    0  0.91228152201E+01  0.16733649528E+01  0.11034003252E+03  0.11072916817E+03  0.00000000000E+00 0.  1.
         12    1    6    6    0    0  0.58710696858E+02 -0.70047471461E+02  0.11550788446E+03  0.14729448583E+03  0.00000000000E+00 0. -1.
         -5    1    3    3    0  503 -0.94821719602E+01  0.73044172559E+02 -0.13578484573E+03  0.15454765304E+03  0.47000000000E+01 0.  1.
         11    1    4    4    0    0 -0.62772062607E+02  0.55231258153E+01 -0.13913152016E+03  0.15273642875E+03  0.00000000000E+00 0. -1.
        -12    1    4    4    0    0 -0.57028740973E+02 -0.20666210319E+02 -0.24025495209E+02  0.65242577861E+02  0.00000000000E+00 0.  1.
</event>
<event>
12    1  0.1630640E-001  0.1880027E+03  0.7818608E-02  0.1160468E+00
         21   -1    0    0  501  502  0.00000000000E+00  0.00000000000E+00  0.30940299432E+03  0.30940299432E+03  0.00000000000E+00 0. -1.
         21   -1    0    0  502  503 -0.00000000000E+00 -0.00000000000E+00 -0.14717303141E+03  0.14717303141E+03  0.00000000000E+00 0. -1.
         -6    2    1    2    0  503  0.49474134920E+02 -0.52122083922E+02 -0.27855436832E+02  0.18922331872E+03  0.17281532724E+03 0.  0.
        -24    2    3    3    0    0  0.52342747919E+01 -0.19655973161E+02 -0.77367773370E+02  0.11516405163E+03  0.82844622750E+02 0.  0.
          6    2    1    2  501    0 -0.49474134920E+02  0.52122083922E+02  0.19008539975E+03  0.26735270701E+03  0.17372567195E+03 0.  0.
         24    2    5    5    0    0 -0.63403366164E+02 -0.28175917269E+02  0.12249953811E+03  0.16137284491E+03  0.78874514788E+02 0.  0.
          5    1    5    5  501    0  0.13929231243E+02  0.80298001191E+02  0.67585861640E+02  0.10597986211E+03  0.47000000000E+01 0. -1.
        -11    1    6    6    0    0 -0.55823044334E+02  0.15249540276E+02  0.49770713759E+02  0.76327483290E+02  0.00000000000E+00 0.  1.
         12    1    6    6    0    0 -0.75803218296E+01 -0.43425457544E+02  0.72728824347E+02  0.85045361619E+02  0.00000000000E+00 0. -1.
         -5    1    3    3    0  503  0.44239860128E+02 -0.32466110761E+02  0.49512336538E+02  0.74059267088E+02  0.47000000000E+01 0.  1.
         11    1    4    4    0    0  0.35958790412E+02 -0.34593360666E+02 -0.36081691429E+02  0.61576161511E+02  0.00000000000E+00 0. -1.
        -12    1    4    4    0    0 -0.30724515620E+02  0.14937387505E+02 -0.41286081941E+02  0.53587890121E+02  0.00000000000E+00 0.  1.
</event>
<event>
12    1  0.1630640E-001  0.1827716E+03  0.7818608E-02  0.1165491E+00
         21   -1    0    0  503  502  0.00000000000E+00  0.00000000000E+00  0.54048032773E+02  0.54048032773E+02  0.00000000000E+00 0. -1.
         21   -1    0    0  501  503 -0.00000000000E+00 -0.00000000000E+00 -0.65465611951E+03  0.65465611951E+03  0.00000000000E+00 0.  1.
          6    2    1    2  501    0  0.24392094153E+02 -0.47768381857E+02 -0.39058041217E+03  0.43122905910E+03  0.17472449881E+03 0.  0.
         24    2    3    3    0    0  0.37006947925E+02 -0.84822433308E+02 -0.36364392650E+03  0.38348179190E+03  0.79101327781E+02 0.  0.
         -6    2    1    2    0  502 -0.24392094153E+02  0.47768381857E+02 -0.21002767457E+03  0.27747509318E+03  0.17321665823E+03 0.  0.
        -24    2    5    5    0    0  0.26032630671E+01  0.92844729968E+02 -0.17624091853E+03  0.21483116806E+03  0.80403038156E+02 0.  0.
          5    1    3    3  501    0 -0.12614853772E+02  0.37054051451E+02 -0.26936485670E+02  0.47747267198E+02  0.47000000000E+01 0. -1.
        -13    1    4    4    0    0  0.11257896168E+02 -0.23544070209E+02 -0.25347282037E+03  0.25481274327E+03  0.00000000000E+00 0.  1.
         14    1    4    4    0    0  0.25749051757E+02 -0.61278363099E+02 -0.11017110613E+03  0.12866904864E+03  0.00000000000E+00 0. -1.
         -5    1    5    5    0  502 -0.26995357221E+02 -0.45076348112E+02 -0.33786756037E+02  0.62643925117E+02  0.47000000000E+01 0.  1.
         13    1    6    6    0    0  0.26620430608E+02  0.54457704987E+02 -0.43582018600E+02  0.74657091449E+02  0.00000000000E+00 0. -1.
        -14    1    6    6    0    0 -0.24017167541E+02  0.38387024981E+02 -0.13265889993E+03  0.14017407662E+03  0.00000000000E+00 0.  1.
</event>
<event>
12    1  0.1630640E-001  0.2082922E+03  0.7818608E-02  0.1143530E+00
         21   -1    0    0  501  502  0.00000000000E+00  0.00000000000E+00  0.43980904265E+03  0.43980904265E+03  0.00000000000E+00 0.  1.
         21   -1    0    0  502  503 -0.00000000000E+00 -0.00000000000E+00 -0.10480993399E+03  0.10480993399E+03  0.00000000000E+00 0. -1.
         -6    2    1    2    0  503 -0.14910446038E+02 -0.11705589709E+03  0.95407237948E+02  0.22910300633E+03  0.17164277442E+03 0.  0.
        -24    2    3    3    0    0  0.67783824116E+01 -0.13674619192E+03  0.35982356206E+02  0.16268373533E+03  0.80161089745E+02 0.  0.
          6    2    1    2  501    0  0.14910446038E+02  0.11705589709E+03  0.23959187071E+03  0.31551597032E+03  0.16799303132E+03 0.  0.
         24    2    5    5    0    0  0.10236413947E+02  0.66275833988E+01  0.52984571973E+02  0.98581341957E+02  0.82232640008E+02 0.  0.
          5    1    5    5  501    0  0.46740320910E+01  0.11042831369E+03  0.18660729874E+03  0.21693462836E+03  0.47000000000E+01 0. -1.
        -13    1    6    6    0    0  0.27867383400E+02 -0.20122561645E+00  0.68609519450E+02  0.74053343668E+02  0.00000000000E+00 0.  1.
         14    1    6    6    0    0 -0.17630969453E+02  0.68288090153E+01 -0.15624947477E+02  0.24527998289E+02  0.00000000000E+00 0. -1.
         -5    1    3    3    0  503 -0.21688828450E+02  0.19690294835E+02  0.59424881742E+02  0.66419271001E+02  0.47000000000E+01 0.  1.
         11    1    4    4    0    0 -0.69499417834E+01 -0.76044028663E+02 -0.20040970871E+02  0.78947048707E+02  0.00000000000E+00 0. -1.
        -12    1    4    4    0    0  0.13728324195E+02 -0.60702163259E+02  0.56023327078E+02  0.83736686621E+02  0.00000000000E+00 0.  1.
</event>
<event>
12    1  0.1630640E-001  0.1880191E+03  0.7818608E-02  0.1160455E+00
         21   -1    0    0  503  502  0.00000000000E+00  0.00000000000E+00  0.19583176768E+02  0.19583176768E+02  0.00000000000E+00 0.  1.
         21   -1    0    0  501  503 -0.00000000000E+00 -0.00000000000E+00 -0.18017145008E+04  0.18017145008E+04  0.00000000000E+00 0.  1.
          6    2    1    2  501    0  0.70197368844E+02 -0.25378741281E+02 -0.93554128073E+03  0.95408036436E+03  0.17163945526E+03 0.  0.
         24    2    3    3    0    0  0.92783534979E+02 -0.46928862814E+02 -0.88478055898E+03  0.89430341637E+03  0.78299811265E+02 0.  0.
         -6    2    1    2    0  502 -0.70197368844E+02  0.25378741281E+02 -0.84659004332E+03  0.86721731323E+03  0.17256713422E+03 0.  0.
        -24    2    5    5    0    0 -0.98972901996E+02 -0.23494965272E+02 -0.63923534549E+03  0.65219468369E+03  0.79927653487E+02 0.  0.
          5    1    3    3  501    0 -0.22586166135E+02  0.21550121533E+02 -0.50760721750E+02  0.59776947993E+02  0.47000000000E+01 0. -1.
        -13    1    4    4    0    0  0.48395377867E+02 -0.12996328375E+02 -0.16711325570E+03  0.17446448745E+03  0.00000000000E+00 0.  1.
         14    1    4    4    0    0  0.44388157112E+02 -0.33932534439E+02 -0.71766730328E+03  0.71983892892E+03  0.00000000000E+00 0. -1.
         -5    1    5    5    0  502  0.28775533151E+02  0.48873706553E+02 -0.20735469784E+03  0.21502262954E+03  0.47000000000E+01 0.  1.
         11    1    6    6    0    0  0.10295182030E+01  0.15892556935E+02 -0.34710629633E+02  0.38189803393E+02  0.00000000000E+00 0. -1.
        -12    1    6    6    0    0 -0.10000242020E+03 -0.39387522207E+02 -0.60452471585E+03  0.61400488030E+03  0.00000000000E+00 0.  1.
</event>
<event>
12    1  0.1630640E-001  0.2045923E+03  0.7818608E-02  0.1145991E+00
         21   -1    0    0  503  502  0.00000000000E+00  0.00000000000E+00  0.36387815868E+03  0.36387815868E+03  0.00000000000E+00 0. -1.
         21   -1    0    0  501  503 -0.00000000000E+00 -0.00000000000E+00 -0.11484264180E+03  0.11484264180E+03  0.00000000000E+00 0. -1.
          6    2    1    2  501    0 -0.10098654582E+03  0.46500864295E+02  0.12393567138E+03  0.23891260576E+03  0.17134342629E+03 0.  0.
         24    2    3    3    0    0 -0.21825000025E+02  0.46164560005E+02  0.60508099854E+01  0.96836590969E+02  0.82056174798E+02 0.  0.
         -6    2    1    2    0  502  0.10098654582E+03 -0.46500864295E+02  0.12509984550E+03  0.23980819472E+03  0.17174803082E+03 0.  0.
        -24    2    5    5    0    0  0.79258061907E+02 -0.28773227257E+02  0.15807993119E+03  0.19626313552E+03  0.80126242490E+02 0.  0.
          5    1    3    3  501    0 -0.79161545797E+02  0.33630428997E+00  0.11788486139E+03  0.14207601479E+03  0.47000000000E+01 0. -1.
        -11    1    4    4    0    0 -0.76967536396E+01  0.58183557215E+02 -0.22444697141E+02  0.62835744417E+02  0.00000000000E+00 0.  1.
         12    1    4    4    0    0 -0.14128246386E+02 -0.12018997210E+02  0.28495507126E+02  0.34000846552E+02  0.00000000000E+00 0. -1.
         -5    1    5    5    0  502  0.21728483916E+02 -0.17727637038E+02 -0.32980085689E+02  0.43545059195E+02  0.47000000000E+01 0.  1.
         13    1    6    6    0    0  0.12646976464E+00  0.21220058045E+02  0.18204859016E+02  0.27959323129E+02  0.00000000000E+00 0. -1.
        -14    1    6    6    0    0  0.79131592142E+02 -0.49993285301E+02  0.13987507217E+03  0.16830381239E+03  0.00000000000E+00 0.  1.
</event>
<event>
12    1  0.1630640E-001  0.1845191E+03  0.7818608E-02  0.1164472E+00
         21   -1    0    0  501  502  0.00000000000E+00  0.00000000000E+00  0.68301072446E+02  0.68301072446E+02  0.00000000000E+00 0.  1.
         21   -1    0    0  502  503 -0.00000000000E+00 -0.00000000000E+00 -0.60239627097E+03  0.60239627097E+03  0.00000000000E+00 0.  1.
         -6    2    1    2    0  503  0.30266499381E+02 -0.46402474726E+02 -0.41594767871E+03  0.45503821630E+03  0.17600584143E+03 0.  0.
        -24    2    3    3    0    0  0.57780929359E+02 -0.45960834586E+01 -0.38147284649E+03  0.39408395258E+03  0.80130326954E+02 0.  0.
          6    2    1    2  501    0 -0.30266499381E+02  0.46402474726E+02 -0.11814751981E+03  0.21565912711E+03  0.17169965645E+03 0.  0.
         24    2    5    5    0    0 -0.54517626567E+02  0.45024370021E+02 -0.12024845049E+02  0.10669065259E+03  0.78986916318E+02 0.  0.
          5    1    5    5  501    0  0.24251127186E+02  0.13781047050E+01 -0.10612267476E+03  0.10896847452E+03  0.47000000000E+01 0. -1.
        -13    1    6    6    0    0 -0.17103159295E+02  0.51173041913E+02 -0.33111355093E+02  0.63305292927E+02  0.00000000000E+00 0.  1.
         14    1    6    6    0    0 -0.37414467272E+02 -0.61486718924E+01  0.21086510043E+02  0.43385359663E+02  0.00000000000E+00 0. -1.
         -5    1    3    3    0  503 -0.27514429977E+02 -0.41806391267E+02 -0.34474832227E+02  0.60954263713E+02  0.47000000000E+01 0.  1.
         13    1    4    4    0    0  0.39406628599E+02  0.36303748367E+02 -0.22681385448E+03  0.23305657919E+03  0.00000000000E+00 0. -1.
        -14    1    4    4    0    0  0.18374300760E+02 -0.40899831825E+02 -0.15465899201E+03  0.16102737339E+03  0.00000000000E+00 0.  1.
</event>
<event>
12    1  0.1630640E-001  0.2088424E+03  0.7818608E-02  0.1142590E+00
         21   -1    0    0  503  502  0.00000000000E+00  0.00000000000E+00  0.66671961683E+03  0.66671961683E+03  0.00000000000E+00 0. -1.
         21   -1    0    0  501  503 -0.00000000000E+00 -0.00000000000E+00 -0.65556239158E+02  0.65556239158E+02  0.00000000000E+00 0. -1.
          6    2    1    2  501    0  0.11804666991E+03  0.15758172553E+01  0.27612296595E+03  0.34620666214E+03  0.17227205551E+03 0.  0.
         24    2    3    3    0    0  0.20962192027E+02 -0.41993206098E+02  0.79874653235E+02  0.12291504590E+03  0.80779362622E+02 0.  0.
         -6    2    1    2    0  502 -0.11804666991E+03 -0.15758172553E+01  0.32504041172E+03  0.38606919385E+03  0.17164106067E+03 0.  0.
        -24    2    5    5    0    0 -0.63926134920E+01 -0.83951746281E+01  0.20398454315E+03  0.22117606098E+03  0.84839917749E+02 0.  0.
          5    1    3    3  501    0  0.97084477882E+02  0.43569023353E+02  0.19624831271E+03  0.22329161624E+03  0.47000000000E+01 0. -1.
        -11    1    4    4    0    0  0.50504742918E+02 -0.13276277497E+02  0.45225137817E+02  0.69081847775E+02  0.00000000000E+00 0.  1.
         12    1    4    4    0    0 -0.29542550892E+02 -0.28716928601E+02  0.34649515418E+02  0.53833198123E+02  0.00000000000E+00 0. -1.
         -5    1    5    5    0  502 -0.11165405642E+03  0.68193573728E+01  0.12105586857E+03  0.16489313286E+03  0.47000000000E+01 0.  1.
         11    1    6    6    0    0 -0.34327297274E+02 -0.31140920813E+02  0.84463474899E+02  0.96344168891E+02  0.00000000000E+00 0. -1.
        -12    1    6    6    0    0  0.27934683782E+02  0.22745746185E+02  0.11952106825E+03  0.12483189209E+03  0.00000000000E+00 0.  1.
</event>
<event>
12    1  0.1630640E-001  0.2531471E+03  0.7818608E-02  0.1111358E+00
         21   -1    0    0  503  502  0.00000000000E+00  0.00000000000E+00  0.33034656441E+03  0.33034656441E+03  0.00000000000E+00 0. -1.
         21   -1    0    0  501  503 -0.00000000000E+00 -0.00000000000E+00 -0.46242709800E+03  0.46242709800E+03  0.00000000000E+00 0. -1.
          6    2    1    2  501    0 -0.18101390987E+03 -0.42421382717E+02 -0.36812977015E+03  0.44676946750E+03  0.17180750899E+03 0.  0.
         24    2    3    3    0    0 -0.36218471563E+02 -0.14295101370E+02 -0.20117005736E+03  0.22393669982E+03  0.90344484863E+02 0.  0.
         -6    2    1    2    0  502  0.18101390987E+03  0.42421382717E+02  0.23604923655E+03  0.34600419491E+03  0.17156354956E+03 0.  0.
        -24    2    5    5    0    0  0.19956953065E+03  0.14437859230E+02  0.22210823639E+03  0.30934590615E+03  0.79538491512E+02 0.  0.
          5    1    3    3  501    0 -0.14479543831E+03 -0.28126281347E+02 -0.16695971279E+03  0.22283276768E+03  0.47000000000E+01 0. -1.
        -11    1    4    4    0    0  0.70026646018E+00  0.17737844242E+02 -0.88507383818E+00  0.17773712250E+02  0.00000000000E+00 0.  1.
         12    1    4    4    0    0 -0.36918738024E+02 -0.32032945611E+02 -0.20028498352E+03  0.20616298757E+03  0.00000000000E+00 0. -1.
         -5    1    5    5    0  502 -0.18555620784E+02  0.27983523487E+02  0.13941000160E+02  0.36658288761E+02  0.47000000000E+01 0.  1.
         11    1    6    6    0    0  0.26242115826E+02  0.30710805563E+02  0.53035027491E+02  0.66667206049E+02  0.00000000000E+00 0. -1.
        -12    1    6    6    0    0  0.17332741483E+03 -0.16272946334E+02  0.16907320890E+03  0.24267870010E+03  0.00000000000E+00 0.  1.
</event>
<event>
12    1  0.1630640E-001  0.1926157E+03  0.7818608E-02  0.1156612E+00
         21   -1    0    0  503  502  0.00000000000E+00  0.00000000000E+00  0.81010707276E+02  0.81010707276E+02  0.00000000000E+00 0.  1.
         21   -1    0    0  501  503 -0.00000000000E+00 -0.00000000000E+00 -0.71566496953E+03  0.71566496953E+03  0.00000000000E+00 0.  1.
          6    2    1    2  501    0 -0.87276135140E+02  0.45573953615E+01 -0.55990051522E+03  0.59210591364E+03  0.17164769852E+03 0.  0.
         24    2    3    3    0    0 -0.99170706967E+02 -0.31748867638E+02 -0.52147552091E+03  0.53771661543E+03  0.79747224939E+02 0.  0.
         -6    2    1    2    0  502  0.87276135140E+02 -0.45573953615E+01 -0.74753747037E+02  0.20456976317E+03  0.16918265777E+03 0.  0.
        -24    2    5    5    0    0  0.67997528869E+02  0.43874181509E+02 -0.91777147917E+02  0.14953188098E+03  0.85954236750E+02 0.  0.
          5    1    3    3  501    0  0.11894571827E+02  0.36306262999E+02 -0.38424994309E+02  0.54389298208E+02  0.47000000000E+01 0. -1.
        -11    1    4    4    0    0 -0.84645232072E+02 -0.14461448823E+02 -0.49720896576E+03  0.50456982118E+03  0.00000000000E+00 0.  1.
         12    1    4    4    0    0 -0.14525474895E+02 -0.17287418815E+02 -0.24266555151E+02  0.33146794251E+02  0.00000000000E+00 0. -1.
         -5    1    5    5    0  502  0.19278606271E+02 -0.48431576871E+02  0.17023400880E+02  0.55037882186E+02  0.47000000000E+01 0.  1.
         13    1    6    6    0    0 -0.12367872083E+02  0.11102222444E+01 -0.45978252584E+02  0.47625587282E+02  0.00000000000E+00 0. -1.
        -14    1    6    6    0    0  0.80365400952E+02  0.42763959265E+02 -0.45798895334E+02  0.10190629370E+03  0.00000000000E+00 0.  1.
</event>
<event>
12    1  0.1630640E-001  0.2045193E+03  0.7818608E-02  0.1146222E+00
         21   -1    0    0  501  502  0.00000000000E+00  0.00000000000E+00  0.63792185608E+02  0.63792185608E+02  0.00000000000E+00 0. -1.
         21   -1    0    0  502  503 -0.00000000000E+00 -0.00000000000E+00 -0.71445801186E+03  0.71445801186E+03  0.00000000000E+00 0. -1.
         -6    2    1    2    0  503  0.47691348554E+02 -0.10088614147E+03 -0.44129123123E+03  0.48638060602E+03  0.17139330468E+03 0.  0.
        -24    2    3    3    0    0  0.19509884764E+02 -0.80632398979E+02 -0.43340363578E+03  0.45048195496E+03  0.90625939270E+02 0.  0.
          6    2    1    2  501    0 -0.47691348554E+02  0.10088614147E+03 -0.20937459503E+03  0.29186959145E+03  0.16999311486E+03 0.  0.
         24    2    5    5    0    0  0.33144554154E+02  0.35582013718E+02 -0.14863133374E+03  0.17140836922E+03  0.70177735070E+02 0.  0.
          5    1    5    5  501    0 -0.80835902709E+02  0.65304127754E+02 -0.60743261290E+02  0.12046122223E+03  0.47000000000E+01 0. -1.
        -13    1    6    6    0    0  0.36715333008E+02  0.42227988835E+02 -0.58469591371E+02  0.80931525589E+02  0.00000000000E+00 0.  1.
         14    1    6    6    0    0 -0.35707788537E+01 -0.66459751173E+01 -0.90161742367E+02  0.90476843632E+02  0.00000000000E+00 0. -1.
         -5    1    3    3    0  503  0.28181463791E+02 -0.20253742493E+02 -0.78875954495E+01  0.35898651066E+02  0.47000000000E+01 0.  1.
         13    1    4    4    0    0 -0.32328353128E+02 -0.50948816947E+02 -0.17003703096E+03  0.18042587470E+03  0.00000000000E+00 0. -1.
        -14    1    4    4    0    0  0.51838237891E+02 -0.29683582033E+02 -0.26336660482E+03  0.27005608026E+03  0.00000000000E+00 0.  1.
</event>
<event>
12    1  0.1630640E-001  0.1832125E+03  0.7818608E-02  0.1164934E+00
         21   -1    0    0  501  502  0.00000000000E+00  0.00000000000E+00  0.57952996996E+03  0.57952996996E+03  0.00000000000E+00 0.  1.
         21   -1    0    0  502  503 -0.00000000000E+00 -0.00000000000E+00 -0.57892107982E+02  0.57892107982E+02  0.00000000000E+00 0.  1.
         -6    2    1    2    0  503  0.62273069388E+02  0.50029392293E+01  0.28209190185E+03  0.33636684072E+03  0.17223195371E+03 0.  0.
        -24    2    3    3    0    0 -0.31716909650E+02 -0.60892955423E+01  0.15951110359E+03  0.18143041527E+03  0.80188288032E+02 0.  0.
          6    2    1    2  501    0 -0.62273069388E+02 -0.50029392293E+01  0.23954596013E+03  0.30105523722E+03  0.17131556926E+03 0.  0.
         24    2    5    5    0    0 -0.63223033035E+02  0.95919873488E+01  0.25757521116E+03  0.27736856997E+03  0.80617467559E+02 0.  0.
          5    1    5    5  501    0  0.94996364744E+00 -0.14594926578E+02 -0.18029251028E+02  0.23686667249E+02  0.47000000000E+01 0. -1.
        -11    1    6    6    0    0 -0.34768441961E+02 -0.32046586846E+02  0.81608336130E+02  0.94317277372E+02  0.00000000000E+00 0.  1.
         12    1    6    6    0    0 -0.28454591075E+02  0.41638574195E+02  0.17596687503E+03  0.18305129260E+03  0.00000000000E+00 0. -1.
         -5    1    3    3    0  503  0.93989979038E+02  0.11092234772E+02  0.12258079825E+03  0.15493642545E+03  0.47000000000E+01 0.  1.
         11    1    4    4    0    0 -0.31758014990E+02  0.25630772751E+02  0.37706678422E+02  0.55563491841E+02  0.00000000000E+00 0. -1.
        -12    1    4    4    0    0  0.41105339882E-01 -0.31720068293E+02  0.12180442517E+03  0.12586692343E+03  0.00000000000E+00 0.  1.
</event>
<event>
12    1  0.1630640E-001  0.5715859E+03  0.7818608E-02  0.9966248E-01
         21   -1    0    0  503  502  0.00000000000E+00  0.00000000000E+00  0.29028903799E+03  0.29028903799E+03  0.00000000000E+00 0.  1.
         21   -1    0    0  501  503 -0.00000000000E+00 -0.00000000000E+00 -0.18891197640E+04  0.18891197640E+04  0.00000000000E+00 0. -1.
          6    2    1    2  501    0  0.26757225882E+03  0.47485287143E+03 -0.10641293503E+03  0.58127822148E+03  0.17169884924E+03 0.  0.
         24    2    3    3    0    0  0.17619721007E+03  0.19035850817E+03 -0.66591830415E+02  0.27979148440E+03  0.81036932309E+02 0.  0.
         -6    2    1    2    0  502 -0.26757225882E+03 -0.47485287143E+03 -0.14924177909E+04  0.15981305805E+04  0.17213461688E+03 0.  0.
        -24    2    5    5    0    0 -0.15458410101E+03 -0.24910743065E+03 -0.99153156410E+03  0.10372059598E+04  0.81918277244E+02 0.  0.
          5    1    3    3  501    0  0.91375048748E+02  0.28449436326E+03 -0.39821104619E+02  0.30148673708E+03  0.47000000000E+01 0. -1.
        -11    1    4    4    0    0  0.11996760656E+03  0.17719669380E+03 -0.53592071434E+02  0.22059692889E+03  0.00000000000E+00 0.  1.
         12    1    4    4    0    0  0.56229603510E+02  0.13161814370E+02 -0.12999758981E+02  0.59194555509E+02  0.00000000000E+00 0. -1.
         -5    1    5    5    0  502 -0.11298815781E+03 -0.22574544078E+03 -0.50088622685E+03  0.56092462068E+03  0.47000000000E+01 0.  1.
         11    1    6    6    0    0 -0.11680149684E+02 -0.44465947886E+02 -0.26592660548E+03  0.26987146184E+03  0.00000000000E+00 0. -1.
        -12    1    6    6    0    0 -0.14290395132E+03 -0.20464148276E+03 -0.72560495862E+03  0.76733449795E+03  0.00000000000E+00 0.  1.
</event>
<event>
12    1  0.1630640E-001  0.1835636E+03  0.7818608E-02  0.1165879E+00
         21   -1    0    0  503  502  0.00000000000E+00  0.00000000000E+00  0.79391186735E+03  0.79391186735E+03  0.00000000000E+00 0.  1.
         21   -1    0    0  501  503 -0.00000000000E+00 -0.00000000000E+00 -0.78760654732E+02  0.78760654732E+02  0.00000000000E+00 0.  1.
          6    2    1    2  501    0 -0.23779984505E+02 -0.31825462682E+02  0.52410749610E+02  0.18498034867E+03  0.17289446197E+03 0.  0.
         24    2    3    3    0    0  0.44922865356E+02 -0.11436386380E+02  0.64006726195E+02  0.11223179071E+03  0.79688512867E+02 0.  0.
         -6    2    1    2    0  502  0.23779984505E+02  0.31825462682E+02  0.66274046301E+03  0.68769217342E+03  0.17921287993E+03 0.  0.
        -24    2    5    5    0    0  0.40280289742E+02 -0.80045521615E+01  0.16196062086E+03  0.18503798766E+03  0.79506223479E+02 0.  0.
          5    1    3    3  501    0 -0.68702849861E+02 -0.20389076303E+02 -0.11595976584E+02  0.72748557954E+02  0.47000000000E+01 0. -1.
        -13    1    4    4    0    0  0.52205241619E+02 -0.60478065448E+01  0.52895938586E+01  0.52819911205E+02  0.00000000000E+00 0.  1.
         14    1    4    4    0    0 -0.72823762634E+01 -0.53885798349E+01  0.58717132336E+02  0.59411879506E+02  0.00000000000E+00 0. -1.
         -5    1    5    5    0  502 -0.16500305237E+02  0.39830014844E+02  0.50077984215E+03  0.50265418576E+03  0.47000000000E+01 0.  1.
         11    1    6    6    0    0 -0.91378579320E+01  0.27137563152E+02  0.46137554514E+02  0.54301212859E+02  0.00000000000E+00 0. -1.
        -12    1    6    6    0    0  0.49418147674E+02 -0.35142115314E+02  0.11582306634E+03  0.13073677480E+03  0.00000000000E+00 0.  1.
</event>
<event>
12    1  0.1630640E-001  0.3614868E+03  0.7818608E-02  0.1058107E+00
         21   -1    0    0  503  502  0.00000000000E+00  0.00000000000E+00  0.15129104318E+03  0.15129104318E+03  0.00000000000E+00 0.  1.
         21   -1    0    0  501  503 -0.00000000000E+00 -0.00000000000E+00 -0.89126967895E+03  0.89126967895E+03  0.00000000000E+00 0. -1.
          6    2    1    2  501    0 -0.26789670954E+03  0.16773272092E+03 -0.27344131282E+03  0.45236605433E+03  0.17309530006E+03 0.  0.
         24    2    3    3    0    0 -0.18849466915E+03  0.17145308792E+03 -0.14782543896E+03  0.30363823946E+03  0.73603114087E+02 0.  0.
         -6    2    1    2    0  502  0.26789670954E+03 -0.16773272092E+03 -0.46653732294E+03  0.59019466780E+03  0.17541311113E+03 0.  0.
        -24    2    5    5    0    0  0.24223206369E+03 -0.17567919822E+03 -0.46969707401E+03  0.56273752712E+03  0.80738031467E+02 0.  0.
          5    1    3    3  501    0 -0.79402040384E+02 -0.37203670023E+01 -0.12561587386E+03  0.14872781487E+03  0.47000000000E+01 0. -1.
        -11    1    4    4    0    0 -0.77397166552E+02  0.77097638570E+02 -0.22786445947E+02  0.11159565127E+03  0.00000000000E+00 0.  1.
         12    1    4    4    0    0 -0.11109750260E+03  0.94355449353E+02 -0.12503899301E+03  0.19204258819E+03  0.00000000000E+00 0. -1.
         -5    1    5    5    0  502  0.25664645847E+02  0.79464773006E+01  0.31597510662E+01  0.27457140687E+02  0.47000000000E+01 0.  1.
         13    1    6    6    0    0  0.17221018086E+03 -0.90255530033E+02 -0.34613229574E+03  0.39700122575E+03  0.00000000000E+00 0. -1.
        -14    1    6    6    0    0  0.70021882833E+02 -0.85423668188E+02 -0.12356477827E+03  0.16573630137E+03  0.00000000000E+00 0.  1.
</event>
<event>
12    1  0.1630640E-001  0.2249772E+03  0.7818608E-02  0.1130475E+00
         21   -1    0    0  503  502  0.00000000000E+00  0.00000000000E+00  0.73324295453E+03  0.73324295453E+03  0.00000000000E+00 0. -1.
         21   -1    0    0  501  503 -0.00000000000E+00 -0.00000000000E+00 -0.80625697015E+02  0.80625697015E+02  0.00000000000E+00 0. -1.
          6    2    1    2  501    0  0.30977238328E+02 -0.14046869422E+03  0.48256096341E+03  0.53185109044E+03  0.17120004568E+03 0.  0.
         24    2    3    3    0    0  0.31280935882E+02 -0.75330585284E+02  0.43759139439E+03  0.45255785235E+03  0.81665092008E+02 0.  0.
         -6    2    1    2    0  502 -0.30977238328E+02  0.14046869422E+03  0.17005629410E+03  0.28201756111E+03  0.17298473417E+03 0.  0.
        -24    2    5    5    0    0 -0.34098076060E+02  0.12192084487E+01  0.43996830308E+02  0.94099394533E+02  0.75860462127E+02 0.  0.
          5    1    3    3  501    0 -0.30369755351E+00 -0.65138108937E+02  0.44969569020E+02  0.79293238084E+02  0.47000000000E+01 0. -1.
        -11    1    4    4    0    0  0.19498528637E+02  0.12165434722E+02  0.14906949518E+03  0.15083071575E+03  0.00000000000E+00 0.  1.
         12    1    4    4    0    0  0.11782407244E+02 -0.87496020006E+02  0.28852189921E+03  0.30172713660E+03  0.00000000000E+00 0. -1.
         -5    1    5    5    0  502  0.31208377312E+01  0.13924948577E+03  0.12605946380E+03  0.18791816657E+03  0.47000000000E+01 0.  1.
         13    1    6    6    0    0 -0.49577790656E+02 -0.24150846829E+01  0.25441801142E+01  0.49701738529E+02  0.00000000000E+00 0. -1.
        -14    1    6    6    0    0  0.15479714596E+02  0.36342931316E+01  0.41452650194E+02  0.44397656004E+02  0.00000000000E+00 0.  1.
</event>
<event>
12    1  0.1630640E-001  0.1842323E+03  0.7818608E-02  0.1165230E+00
         21   -1    0    0  503  502  0.00000000000E+00  0.00000000000E+00  0.56820529845E+02  0.56820529845E+02  0.00000000000E+00 0.  1.
         21   -1    0    0  501  503 -0.00000000000E+00 -0.00000000000E+00 -0.72158809602E+03  0.72158809602E+03  0.00000000000E+00 0.  1.
          6    2    1    2  501    0  0.65000269249E+02  0.16176234265E+02 -0.16308987766E+03  0.24604849481E+03  0.17162414762E+03 0.  0.
         24    2    3    3    0    0  0.14779667496E+02  0.28702797992E+02 -0.17274759912E+03  0.19318654987E+03  0.80231046743E+02 0.  0.
         -6    2    1    2    0  502 -0.65000269249E+02 -0.16176234265E+02 -0.50167768852E+03  0.53236013106E+03  0.16504575252E+03 0.  0.
        -24    2    5    5    0    0 -0.27708175920E+02 -0.47773371315E+02 -0.15642858263E+03  0.18363658094E+03  0.78755662489E+02 0.  0.
          5    1    3    3  501    0  0.50220601753E+02 -0.12526563727E+02  0.96577214660E+01  0.52861944943E+02  0.47000000000E+01 0. -1.
        -11    1    4    4    0    0  0.30086886695E+02  0.64840334694E+01 -0.17082600013E+02  0.35200549203E+02  0.00000000000E+00 0.  1.
         12    1    4    4    0    0 -0.15307219199E+02  0.22218764523E+02 -0.15566499911E+03  0.15798600066E+03  0.00000000000E+00 0. -1.
         -5    1    5    5    0  502 -0.37292093329E+02  0.31597137049E+02 -0.34524910589E+03  0.34872355012E+03  0.47000000000E+01 0.  1.
         13    1    6    6    0    0  0.21096550542E+02 -0.41864241068E+02 -0.81474353427E+02  0.93998666965E+02  0.00000000000E+00 0. -1.
        -14    1    6    6    0    0 -0.48804726462E+02 -0.59091302469E+01 -0.74954229204E+02  0.89637913970E+02  0.00000000000E+00 0.  1.
</event>
<event>
12    1  0.1630640E-001  0.2014506E+03  0.7818608E-02  0.1148667E+00
         21   -1    0    0  501  502  0.00000000000E+00  0.00000000000E+00  0.14921634327E+03  0.14921634327E+03  0.00000000000E+00 0.  1.
         21   -1    0    0  502  503 -0.00000000000E+00 -0.00000000000E+00 -0.34443989157E+03  0.34443989157E+03  0.00000000000E+00 0. -1.
         -6    2    1    2    0  503 -0.82946424907E+02 -0.63732766915E+02 -0.21143106530E+03  0.29155475272E+03  0.17134498381E+03 0.  0.
        -24    2    3    3    0    0 -0.60669224528E+02 -0.66759570573E+02 -0.23145696477E+03  0.26108243993E+03  0.80337530653E+02 0.  0.
          6    2    1    2  501    0  0.82946424907E+02  0.63732766915E+02  0.16207517001E+02  0.20210148212E+03  0.17216373161E+03 0.  0.
         24    2    5    5    0    0 -0.17752567654E+02  0.57789742283E+02  0.10645777967E+02  0.10096479448E+03  0.80160770732E+02 0.  0.
          5    1    5    5  501    0  0.10069899256E+03  0.59430246318E+01  0.55617390340E+01  0.10113668763E+03  0.47000000000E+01 0. -1.
        -13    1    6    6    0    0  0.31208235620E+02  0.32195080690E+02  0.87563790581E+01  0.45685351759E+02  0.00000000000E+00 0.  1.
         14    1    6    6    0    0 -0.48960803274E+02  0.25594661593E+02  0.18893989089E+01  0.55279442721E+02  0.00000000000E+00 0. -1.
         -5    1    3    3    0  503 -0.22277200379E+02  0.30268036574E+01  0.20025899472E+02  0.30472312790E+02  0.47000000000E+01 0.  1.
         13    1    4    4    0    0  0.16083014649E+01 -0.53065630519E+02 -0.13877729060E+03  0.14858561223E+03  0.00000000000E+00 0. -1.
        -14    1    4    4    0    0 -0.62277525993E+02 -0.13693940054E+02 -0.92679674173E+02  0.11249682770E+03  0.00000000000E+00 0.  1.
</event>
<event>
12    1  0.1630640E-001  0.2320385E+03  0.7818608E-02  0.1125417E+00
         21   -1    0    0  503  502  0.00000000000E+00  0.00000000000E+00  0.50283144828E+03  0.50283144828E+03  0.00000000000E+00 0. -1.
         21   -1    0    0  501  503 -0.00000000000E+00 -0.00000000000E+00 -0.18195274089E+03  0.18195274089E+03  0.00000000000E+00 0.  1.
          6    2    1    2  501    0 -0.82075489589E+02  0.13312443559E+03 -0.60228831675E+02  0.23859497768E+03  0.16982800084E+03 0.  0.
         24    2    3    3    0    0 -0.10947706690E+03  0.55148296920E+02 -0.47660972948E+02  0.15486227371E+03  0.81756911931E+02 0.  0.
         -6    2    1    2    0  502  0.82075489589E+02 -0.13312443559E+03  0.38110753907E+03  0.44618921149E+03  0.17141573665E+03 0.  0.
        -24    2    5    5    0    0  0.53463485591E+02 -0.27783743880E+01  0.17667497388E+03  0.20200996144E+03  0.82023865253E+02 0.  0.
          5    1    3    3  501    0  0.27401577307E+02  0.77976138672E+02 -0.12567858728E+02  0.83732703970E+02  0.47000000000E+01 0. -1.
        -13    1    4    4    0    0 -0.48995661540E+02  0.53690049598E+02  0.73965160577E+01  0.73060965812E+02  0.00000000000E+00 0.  1.
         14    1    4    4    0    0 -0.60481405356E+02  0.14582473220E+01 -0.55057489005E+02  0.81801307903E+02  0.00000000000E+00 0. -1.
         -5    1    5    5    0  502  0.28612003997E+02 -0.13034606120E+03  0.20443256519E+03  0.24417925005E+03  0.47000000000E+01 0.  1.
         13    1    6    6    0    0  0.71484110031E+02  0.11741014144E+02  0.15078908765E+03  0.16728771131E+03  0.00000000000E+00 0. -1.
        -14    1    6    6    0    0 -0.18020624440E+02 -0.14519388532E+02  0.25885886227E+02  0.34722250133E+02  0.00000000000E+00 0.  1.
</event>
<event>
12    1  0.1630640E-001  0.1778751E+03  0.7818608E-02  0.1170098E+00
         21   -1    0    0  501  502  0.00000000000E+00  0.00000000000E+00  0.77323918226E+02  0.77323918226E+02  0.00000000000E+00 0. -1.
         21   -1    0    0  502  503 -0.00000000000E+00 -0.00000000000E+00 -0.48953647430E+03  0.48953647430E+03  0.00000000000E+00 0. -1.
         -6    2    1    2    0  503  0.16449529236E+02 -0.37812213260E+02 -0.32284514161E+03  0.36860347834E+03  0.17302944344E+03 0.  0.
        -24    2    3    3    0    0  0.76880115431E+02 -0.69671376119E+01 -0.20041353700E+03  0.22855040894E+03  0.78170393760E+02 0.  0.
          6    2    1    2  501    0 -0.16449529236E+02  0.37812213260E+02 -0.89367414468E+02  0.19825691419E+03  0.17210147812E+03 0.  0.
         24    2    5    5    0    0  0.22344120577E+02  0.51888854802E+02 -0.11566808996E+03  0.14909478818E+03  0.75222575408E+02 0.  0.
          5    1    5    5  501    0 -0.38793649813E+02 -0.14076641542E+02  0.26300675488E+02  0.49162126012E+02  0.47000000000E+01 0. -1.
        -13    1    6    6    0    0 -0.85870171441E+00  0.15311045746E+02 -0.10275730637E+03  0.10389528143E+03  0.00000000000E+00 0.  1.
         14    1    6    6    0    0  0.23202822291E+02  0.36577809055E+02 -0.12910783583E+02  0.45199506748E+02  0.00000000000E+00 0. -1.
         -5    1    3    3    0  503 -0.60430586195E+02 -0.30845075648E+02 -0.12243160461E+03  0.14005306940E+03  0.47000000000E+01 0.  1.
         11    1    4    4    0    0  0.45422454705E+02 -0.23501818191E+02 -0.41937281071E+02  0.66138267239E+02  0.00000000000E+00 0. -1.
        -12    1    4    4    0    0  0.31457660726E+02  0.16534680580E+02 -0.15847625592E+03  0.16241214170E+03  0.00000000000E+00 0.  1.
</event>
<event>
12    1  0.1630640E-001  0.1859573E+03  0.7818608E-02  0.1162343E+00
         21   -1    0    0  503  502  0.00000000000E+00  0.00000000000E+00  0.33153385210E+03  0.33153385210E+03  0.00000000000E+00 0. -1.
         21   -1    0    0  501  503 -0.00000000000E+00 -0.00000000000E+00 -0.13644013283E+03  0.13644013283E+03  0.00000000000E+00 0. -1.
          6    2    1    2  501    0  0.51012647747E+02  0.44645864312E+02 -0.16633791008E+02  0.18669976206E+03  0.17316054608E+03 0.  0.
         24    2    3    3    0    0  0.47932927551E+02  0.52866612000E+02 -0.73063524523E+02  0.12939818971E+03  0.79455450888E+02 0.  0.
         -6    2    1    2    0  502 -0.51012647747E+02 -0.44645864312E+02  0.21172751028E+03  0.28127422288E+03  0.17231107456E+03 0.  0.
        -24    2    5    5    0    0  0.30737177373E+00 -0.59267330886E+02  0.20445945489E+03  0.22721456770E+03  0.79436012584E+02 0.  0.
          5    1    3    3  501    0  0.30797201965E+01 -0.82207476883E+01  0.56429733515E+02  0.57301572349E+02  0.47000000000E+01 0. -1.
        -13    1    4    4    0    0  0.75000094798E+01  0.53124423023E+02 -0.70893351331E+02  0.88906252461E+02  0.00000000000E+00 0.  1.
         14    1    4    4    0    0  0.40432918071E+02 -0.25781102345E+00 -0.21701731919E+01  0.40491937246E+02  0.00000000000E+00 0. -1.
         -5    1    5    5    0  502 -0.51320019521E+02  0.14621466574E+02  0.72680553935E+01  0.54059655175E+02  0.47000000000E+01 0.  1.
         11    1    6    6    0    0  0.15500159047E+02  0.15849598022E+02  0.53634636682E+02  0.58035669548E+02  0.00000000000E+00 0. -1.
        -12    1    6    6    0    0 -0.15192787273E+02 -0.75116928907E+02  0.15082481821E+03  0.16917889815E+03  0.00000000000E+00 0.  1.
</event>
<event>
12    1  0.1630640E-001  0.2159916E+03  0.7818608E-02  0.1137003E+00
         21   -1    0    0  503  502  0.00000000000E+00  0.00000000000E+00  0.41098720147E+03  0.41098720147E+03  0.00000000000E+00 0.  1.
         21   -1    0    0  501  503 -0.00000000000E+00 -0.00000000000E+00 -0.12490219349E+03  0.12490219349E+03  0.00000000000E+00 0.  1.
          6    2    1    2  501    0  0.46608515293E+01 -0.12957298854E+03  0.61049693945E+02  0.22397070567E+03  0.17211893844E+03 0.  0.
         24    2    3    3    0    0  0.68247136163E+02 -0.72033386825E+02  0.53138537638E+02  0.13772282016E+03  0.79356099953E+02 0.  0.
         -6    2    1    2    0  502 -0.46608515293E+01  0.12957298854E+03  0.22503531404E+03  0.31191868929E+03  0.17274690523E+03 0.  0.
        -24    2    5    5    0    0  0.27259327976E+02  0.36967209973E+01  0.89055460917E+02  0.12383269022E+03  0.81528665759E+02 0.  0.
          5    1    3    3  501    0 -0.63586284633E+02 -0.57539601719E+02  0.79111563071E+01  0.86247885502E+02  0.47000000000E+01 0. -1.
        -13    1    4    4    0    0 -0.15176082741E+02 -0.10848250343E+02 -0.46444537950E+01  0.19224176807E+02  0.00000000000E+00 0.  1.
         14    1    4    4    0    0  0.83423218903E+02 -0.61185136482E+02  0.57782991433E+02  0.11849864336E+03  0.00000000000E+00 0. -1.
         -5    1    5    5    0  502 -0.31920179505E+02  0.12587626755E+03  0.13597985313E+03  0.18808599907E+03  0.47000000000E+01 0.  1.
         13    1    6    6    0    0  0.90251620552E+01  0.10893199769E+02  0.10026035329E+03  0.10125341374E+03  0.00000000000E+00 0. -1.
        -14    1    6    6    0    0  0.18234165921E+02 -0.71964787722E+01 -0.11204892372E+02  0.22579276486E+02  0.00000000000E+00 0.  1.
</event>
<event>
12    1  0.1630640E-001  0.1752365E+03  0.7818608E-02  0.1172963E+00
         21   -1    0    0  501  502  0.00000000000E+00  0.00000000000E+00  0.31829197859E+03  0.31829197859E+03  0.00000000000E+00 0. -1.
         21   -1    0    0  502  503 -0.00000000000E+00 -0.00000000000E+00 -0.20813626944E+03  0.20813626944E+03  0.00000000000E+00 0. -1.
         -6    2    1    2    0  503 -0.22126439948E+02  0.13757811465E+02 -0.13845478333E+03  0.22333281225E+03  0.17328866460E+03 0.  0.
        -24    2    3    3    0    0  0.52529667021E+02  0.11124845360E+02 -0.42808539987E+02  0.10188010259E+03  0.75258594899E+02 0.  0.
          6    2    1    2  501    0  0.22126439948E+02 -0.13757811465E+02  0.24861049248E+03  0.30309543577E+03  0.17140831221E+03 0.  0.
         24    2    5    5    0    0  0.70311057407E+02  0.93551731458E+01  0.10856970744E+03  0.15313051023E+03  0.81427315642E+02 0.  0.
          5    1    5    5  501    0 -0.48184617459E+02 -0.23112984611E+02  0.14004078504E+03  0.14996492554E+03  0.47000000000E+01 0. -1.
        -11    1    6    6    0    0  0.52867178291E+02  0.46024133977E+00  0.11499838567E+02  0.54105421629E+02  0.00000000000E+00 0.  1.
         12    1    6    6    0    0  0.17443879116E+02  0.88949318060E+01  0.97069868871E+02  0.99025088605E+02  0.00000000000E+00 0. -1.
         -5    1    3    3    0  503 -0.74656106969E+02  0.26329661052E+01 -0.95646243344E+02  0.12145270966E+03  0.47000000000E+01 0.  1.
         11    1    4    4    0    0 -0.12467669171E+02 -0.17288854252E+02 -0.12751519696E+02  0.24838448230E+02  0.00000000000E+00 0. -1.
        -12    1    4    4    0    0  0.64997336192E+02  0.28413699612E+02 -0.30057020291E+02  0.77041654359E+02  0.00000000000E+00 0.  1.
</event>
<event>
12    1  0.1630640E-001  0.2103196E+03  0.7818608E-02  0.1141519E+00
         21   -1    0    0  503  502  0.00000000000E+00  0.00000000000E+00  0.16439741479E+04  0.16439741479E+04  0.00000000000E+00 0. -1.
         21   -1    0    0  501  503 -0.00000000000E+00 -0.00000000000E+00 -0.31892381921E+02  0.31892381921E+02  0.00000000000E+00 0.  1.
          6    2    1    2  501    0 -0.11331487424E+03 -0.42258855259E+02  0.47203962016E+03  0.51677434860E+03  0.17207048787E+03 0.  0.
         24    2    3    3    0    0 -0.25602299632E+02  0.13559513616E+02  0.35476122856E+03  0.35997671729E+03  0.53743553506E+02 0.  0.
         -6    2    1    2    0  502  0.11331487424E+03  0.42258855259E+02  0.11400421458E+04  0.11590921812E+04  0.17079964508E+03 0.  0.
        -24    2    5    5    0    0  0.13613975932E+03 -0.21585481042E+01  0.85398177051E+03  0.86866747597E+03  0.82216944986E+02 0.  0.
          5    1    3    3  501    0 -0.87712574606E+02 -0.55818368876E+02  0.11727839160E+03  0.15679763131E+03  0.47000000000E+01 0. -1.
        -11    1    4    4    0    0 -0.18449166906E+02  0.30321092659E+02  0.30357981271E+03  0.30564757991E+03  0.00000000000E+00 0.  1.
         12    1    4    4    0    0 -0.71531327262E+01 -0.16761579043E+02  0.51181415857E+02  0.54329137385E+02  0.00000000000E+00 0. -1.
         -5    1    5    5    0  502 -0.22824885085E+02  0.44417403363E+02  0.28606037526E+03  0.29042470521E+03  0.47000000000E+01 0.  1.
         11    1    6    6    0    0  0.65089467345E+02  0.33047603865E+02  0.28561457241E+03  0.29479563575E+03  0.00000000000E+00 0. -1.
        -12    1    6    6    0    0  0.71050291978E+02 -0.35206151969E+02  0.56836719810E+03  0.57387184022E+03  0.00000000000E+00 0.  1.
</event>
<event>
12    1  0.1630640E-001  0.2207820E+03  0.7818608E-02  0.1133433E+00
         21   -1    0    0  503  502  0.00000000000E+00  0.00000000000E+00  0.26258890055E+03  0.26258890055E+03  0.00000000000E+00 0.  1.
         21   -1    0    0  501  503 -0.00000000000E+00 -0.00000000000E+00 -0.19112578891E+03  0.19112578891E+03  0.00000000000E+00 0. -1.
          6    2    1    2  501    0 -0.42486130871E+02  0.12978923151E+03 -0.47007908653E+01  0.22083200993E+03  0.17347727010E+03 0.  0.
         24    2    3    3    0    0 -0.28933625037E+02  0.14824592737E+03  0.35423768101E+02  0.17439506054E+03  0.79654153414E+02 0.  0.
         -6    2    1    2    0  502  0.42486130871E+02 -0.12978923151E+03  0.76163902507E+02  0.23288267952E+03  0.17257776926E+03 0.  0.
        -24    2    5    5    0    0  0.28820525902E+02  0.51026985358E+01  0.27719688651E+02  0.88828823594E+02  0.79155028372E+02 0.  0.
          5    1    3    3  501    0 -0.13552505835E+02 -0.18456695856E+02 -0.40124558966E+02  0.46436949389E+02  0.47000000000E+01 0. -1.
        -13    1    4    4    0    0  0.20534767829E+02  0.11724948519E+02  0.14368017416E+02  0.27669315713E+02  0.00000000000E+00 0.  1.
         14    1    4    4    0    0 -0.49468392866E+02  0.13652097885E+03  0.21055750685E+02  0.14672574483E+03  0.00000000000E+00 0. -1.
         -5    1    5    5    0  502  0.13665604969E+02 -0.13489193005E+03  0.48444213856E+02  0.14405385593E+03  0.47000000000E+01 0.  1.
         13    1    6    6    0    0  0.43975569117E+02 -0.19018592513E+02 -0.16138002319E+01  0.47939147797E+02  0.00000000000E+00 0. -1.
        -14    1    6    6    0    0 -0.15155043214E+02  0.24121291049E+02  0.29333488883E+02  0.40889675797E+02  0.00000000000E+00 0.  1.
</event>
<event>
12    1  0.1630640E-001  0.1848926E+03  0.7818608E-02  0.1163537E+00
         21   -1    0    0  503  502  0.00000000000E+00  0.00000000000E+00  0.39399434765E+03  0.39399434765E+03  0.00000000000E+00 0.  1.
         21   -1    0    0  501  503 -0.00000000000E+00 -0.00000000000E+00 -0.86099217080E+02  0.86099217080E+02  0.00000000000E+00 0.  1.
          6    2    1    2  501    0 -0.64776613740E+02  0.15218371544E+01  0.14487916390E+03  0.23359917843E+03  0.17140676286E+03 0.  0.
         24    2    3    3    0    0 -0.66127969665E+02  0.13397528912E+02  0.17356132908E+03  0.20217283889E+03  0.78726867591E+02 0.  0.
         -6    2    1    2    0  502  0.64776613740E+02 -0.15218371544E+01  0.16301596666E+03  0.24649438629E+03  0.17316740863E+03 0.  0.
        -24    2    5    5    0    0  0.33407321851E+02  0.66114272640E+02  0.77266499852E+02  0.13276779802E+03  0.78549538458E+02 0.  0.
          5    1    3    3  501    0  0.13513559252E+01 -0.11875691757E+02 -0.28682165178E+02  0.31426339539E+02  0.47000000000E+01 0. -1.
        -11    1    4    4    0    0 -0.75423522353E+02  0.27714295587E+02  0.10914890498E+03  0.13553698153E+03  0.00000000000E+00 0.  1.
         12    1    4    4    0    0  0.92955526882E+01 -0.14316766676E+02  0.64412424102E+02  0.66635857363E+02  0.00000000000E+00 0. -1.
         -5    1    5    5    0  502  0.31369291889E+02 -0.67636109794E+02  0.85749466812E+02  0.11372658827E+03  0.47000000000E+01 0.  1.
         11    1    6    6    0    0 -0.12525689400E+02  0.10542512379E+02  0.54887019807E+02  0.57276717831E+02  0.00000000000E+00 0. -1.
        -12    1    6    6    0    0  0.45933011251E+02  0.55571760261E+02  0.22379480045E+02  0.75491080190E+02  0.00000000000E+00 0.  1.
</event>
<event>
12    1  0.1630640E-001  0.2124010E+03  0.7818608E-02  0.1140075E+00
         21   -1    0    0  503  502  0.00000000000E+00  0.00000000000E+00  0.46446935548E+03  0.46446935548E+03  0.00000000000E+00 0.  1.
         21   -1    0    0  501  503 -0.00000000000E+00 -0.00000000000E+00 -0.20701656856E+03  0.20701656856E+03  0.00000000000E+00 0.  1.
          6    2    1    2  501    0 -0.10187340190E+03 -0.64945119673E+02 -0.11662069405E+03  0.24231094132E+03  0.17469444015E+03 0.  0.
         24    2    3    3    0    0 -0.12762701754E+03 -0.35249907533E+02 -0.12839420706E+03  0.20101009446E+03  0.79929807226E+02 0.  0.
         -6    2    1    2    0  502  0.10187340190E+03  0.64945119673E+02  0.37407348098E+03  0.42917498272E+03  0.17223280186E+03 0.  0.
        -24    2    5    5    0    0  0.57878480326E+02  0.10073735352E+03  0.19192515595E+03  0.23834327823E+03  0.80463158714E+02 0.  0.
          5    1    3    3  501    0  0.25753615645E+02 -0.29695212141E+02  0.11773513005E+02  0.41300846860E+02  0.47000000000E+01 0. -1.
        -11    1    4    4    0    0 -0.83502677793E+02 -0.75647232406E+01 -0.12269760893E+03  0.14860896835E+03  0.00000000000E+00 0.  1.
         12    1    4    4    0    0 -0.44124339750E+02 -0.27685184292E+02 -0.56965981202E+01  0.52401126112E+02  0.00000000000E+00 0. -1.
         -5    1    5    5    0  502  0.43994921572E+02 -0.35792233851E+02  0.18214832502E+03  0.19083170449E+03  0.47000000000E+01 0.  1.
         13    1    6    6    0    0  0.64256722431E+02  0.35895206604E+02  0.12415712650E+03  0.14433427969E+03  0.00000000000E+00 0. -1.
        -14    1    6    6    0    0 -0.63782421046E+01  0.64842146920E+02  0.67768029455E+02  0.94008998536E+02  0.00000000000E+00 0.  1.
</event>
<event>
12    1  0.1630640E-001  0.1780516E+03  0.7818608E-02  0.1170279E+00
         21   -1    0    0  503  502  0.00000000000E+00  0.00000000000E+00  0.63556384687E+03  0.63556384687E+03  0.00000000000E+00 0. -1.
         21   -1    0    0  501  503 -0.00000000000E+00 -0.00000000000E+00 -0.94350656598E+02  0.94350656598E+02  0.00000000000E+00 0. -1.
          6    2    1    2  501    0 -0.25942738894E+01  0.33298389060E+02  0.19157512911E+02  0.17907925249E+03  0.17489098147E+03 0.  0.
         24    2    3    3    0    0  0.59118218760E+02  0.27534371544E+02 -0.22113312283E+02  0.10446674241E+03  0.78556962039E+02 0.  0.
         -6    2    1    2    0  502  0.25942738894E+01 -0.33298389060E+02  0.52205567736E+03  0.55083525098E+03  0.17251617457E+03 0.  0.
        -24    2    5    5    0    0 -0.65742324909E+02 -0.18943226572E+02  0.28617814829E+03  0.30479407527E+03  0.79502180120E+02 0.  0.
          5    1    3    3  501    0 -0.61712492649E+02  0.57640175159E+01  0.41270825194E+02  0.74612510071E+02  0.47000000000E+01 0. -1.
        -13    1    4    4    0    0  0.20275640284E+02  0.50769162766E+02 -0.22719446850E+02  0.59201205579E+02  0.00000000000E+00 0.  1.
         14    1    4    4    0    0  0.38842578476E+02 -0.23234791222E+02  0.60613456658E+00  0.45265536835E+02  0.00000000000E+00 0. -1.
         -5    1    5    5    0  502  0.68336598799E+02 -0.14355162488E+02  0.23587752907E+03  0.24604117571E+03  0.47000000000E+01 0.  1.
         11    1    6    6    0    0  0.28984261177E+01 -0.42795754739E+01  0.16253691627E+03  0.16261907880E+03  0.00000000000E+00 0. -1.
        -12    1    6    6    0    0 -0.68640751027E+02 -0.14663651098E+02  0.12364123202E+03  0.14217499647E+03  0.00000000000E+00 0.  1.
</event>
<event>
12    1  0.1630640E-001  0.2115751E+03  0.7818608E-02  0.1142320E+00
         21   -1    0    0  503  502  0.00000000000E+00  0.00000000000E+00  0.59419826050E+02  0.59419826050E+02  0.00000000000E+00 0.  1.
         21   -1    0    0  501  503 -0.00000000000E+00 -0.00000000000E+00 -0.16807071578E+04  0.16807071578E+04  0.00000000000E+00 0. -1.
          6    2    1    2  501    0 -0.85906829651E+02 -0.83650194332E+02 -0.14772252148E+04  0.14922996898E+04  0.17431778626E+03 0.  0.
         24    2    3    3    0    0 -0.29476616067E+02  0.96086548999E+01 -0.39598594784E+03  0.40556972135E+03  0.81980063687E+02 0.  0.
         -6    2    1    2    0  502  0.85906829651E+02  0.83650194332E+02 -0.14406211692E+03  0.24782729399E+03  0.16213308030E+03 0.  0.
        -24    2    5    5    0    0  0.98156072563E+02  0.11139848241E+02 -0.97403813508E+02  0.16060985584E+03  0.80927820346E+02 0.  0.
          5    1    3    3  501    0 -0.56430213584E+02 -0.93258849232E+02 -0.10812392670E+04  0.10867299685E+04  0.47000000000E+01 0. -1.
        -13    1    4    4    0    0 -0.16681351842E+02  0.21589010139E+02 -0.36064436593E+02  0.45221636910E+02  0.00000000000E+00 0.  1.
         14    1    4    4    0    0 -0.12795264225E+02 -0.11980355239E+02 -0.35992151125E+03  0.36034808444E+03  0.00000000000E+00 0. -1.
         -5    1    5    5    0  502 -0.12249242912E+02  0.72510346090E+02 -0.46658303408E+02  0.87217438159E+02  0.47000000000E+01 0.  1.
         11    1    6    6    0    0  0.38871995679E+01 -0.16163520935E+02  0.63464202957E+01  0.17794571646E+02  0.00000000000E+00 0. -1.
        -12    1    6    6    0    0  0.94268872995E+02  0.27303369176E+02 -0.10375023380E+03  0.14281528419E+03  0.00000000000E+00 0.  1.
</event>
<event>
12    1  0.1630640E-001  0.3031268E+03  0.7818608E-02  0.1084245E+00
         21   -1    0    0  503  502  0.00000000000E+00  0.00000000000E+00  0.11911432224E+04  0.11911432224E+04  0.00000000000E+00 0. -1.
         21   -1    0    0  501  503 -0.00000000000E+00 -0.00000000000E+00 -0.28695685647E+03  0.28695685647E+03  0.00000000000E+00 0. -1.
          6    2    1    2  501    0  0.10963051117E+03  0.21807487214E+03 -0.18245427984E+03  0.34997164700E+03  0.17209035601E+03 0.  0.
         24    2    3    3    0    0  0.11217441054E+03  0.22884739025E+03 -0.19627122188E+03  0.33165453866E+03  0.80734838056E+02 0.  0.
         -6    2    1    2    0  502 -0.10963051117E+03 -0.21807487214E+03  0.10866406458E+04  0.11281284319E+04  0.17975084677E+03 0.  0.
        -24    2    5    5    0    0 -0.99077975061E+02 -0.13162785815E+03  0.93966528564E+03  0.95722410562E+03  0.78516247750E+02 0.  0.
          5    1    3    3  501    0 -0.25438993724E+01 -0.10772518103E+02  0.13816942041E+02  0.18317108333E+02  0.47000000000E+01 0. -1.
        -13    1    4    4    0    0  0.10907844429E+02 -0.43676477710E+01 -0.25817059726E+01  0.12030071607E+02  0.00000000000E+00 0.  1.
         14    1    4    4    0    0  0.10126656611E+03  0.23321503802E+03 -0.19368951591E+03  0.31962446706E+03  0.00000000000E+00 0. -1.
         -5    1    5    5    0  502 -0.10552536110E+02 -0.86447013994E+02  0.14697536017E+03  0.17090432628E+03  0.47000000000E+01 0.  1.
         11    1    6    6    0    0 -0.10742500360E+03 -0.13549705965E+03  0.87663243456E+03  0.89352336841E+03  0.00000000000E+00 0. -1.
        -12    1    6    6    0    0  0.83470285429E+01  0.38692015030E+01  0.63032851075E+02  0.63700737205E+02  0.00000000000E+00 0.  1.
</event>
<event>
12    1  0.1630640E-001  0.2153639E+03  0.7818608E-02  0.1138688E+00
         21   -1    0    0  503  502  0.00000000000E+00  0.00000000000E+00  0.53436942898E+03  0.53436942898E+03  0.00000000000E+00 0.  1.
         21   -1    0    0  501  503 -0.00000000000E+00 -0.00000000000E+00 -0.18248872356E+03  0.18248872356E+03  0.00000000000E+00 0.  1.
          6    2    1    2  501    0 -0.10580736284E+03  0.74209605388E+02 -0.88465476977E+02  0.22666800259E+03  0.16385963267E+03 0.  0.
         24    2    3    3    0    0 -0.95225716399E+02  0.11028601822E+03 -0.96703560718E+02  0.18789385105E+03  0.68713737545E+02 0.  0.
         -6    2    1    2    0  502  0.10580736284E+03 -0.74209605388E+02  0.44034618239E+03  0.49019014995E+03  0.17227698394E+03 0.  0.
        -24    2    5    5    0    0  0.12554163612E+02  0.20230176001E+02  0.15621663965E+03  0.17655546033E+03  0.78748492188E+02 0.  0.
          5    1    3    3  501    0 -0.10581646444E+02 -0.36076412832E+02  0.82380837411E+01  0.38774151544E+02  0.47000000000E+01 0. -1.
        -13    1    4    4    0    0 -0.20085125740E+02  0.26384436169E+02 -0.61534808554E+02  0.69900525117E+02  0.00000000000E+00 0.  1.
         14    1    4    4    0    0 -0.75140590659E+02  0.83901582051E+02 -0.35168752164E+02  0.11799332593E+03  0.00000000000E+00 0. -1.
         -5    1    5    5    0  502  0.93253199232E+02 -0.94439781389E+02  0.28412954274E+03  0.31363468962E+03  0.47000000000E+01 0.  1.
         13    1    6    6    0    0 -0.26884311317E+02 -0.20836635174E+00  0.20659801812E+02  0.33906297681E+02  0.00000000000E+00 0. -1.
        -14    1    6    6    0    0  0.39438474929E+02  0.20438542352E+02  0.13555683784E+03  0.14264916264E+03  0.00000000000E+00 0.  1.
</event>
<event>
12    1  0.1630640E-001  0.2039152E+03  0.7818608E-02  0.1146709E+00
         21   -1    0    0  503  502  0.00000000000E+00  0.00000000000E+00  0.34053117825E+03  0.34053117825E+03  0.00000000000E+00 0.  1.
         21   -1    0    0  501  503 -0.00000000000E+00 -0.00000000000E+00 -0.12648132666E+03  0.12648132666E+03  0.00000000000E+00 0. -1.
          6    2    1    2  501    0 -0.98278412836E+02 -0.46235171639E+02  0.60096723638E+02  0.21150715943E+03  0.17125222560E+03 0.  0.
         24    2    3    3    0    0 -0.59680252849E+02  0.35318165627E+02  0.41279292988E+01  0.10522752491E+03  0.79035984180E+02 0.  0.
         -6    2    1    2    0  502  0.98278412836E+02  0.46235171639E+02  0.15395312795E+03  0.25550534547E+03  0.17258354045E+03 0.  0.
        -24    2    5    5    0    0  0.48738127519E+02 -0.23751419355E+02  0.23915497862E+02  0.99671337545E+02  0.80142931656E+02 0.  0.
          5    1    3    3  501    0 -0.38598159988E+02 -0.81553337266E+02  0.55968794339E+02  0.10627963452E+03  0.47000000000E+01 0. -1.
        -13    1    4    4    0    0 -0.21328846701E+02 -0.23103504715E+01  0.36617769344E+02  0.42439585914E+02  0.00000000000E+00 0.  1.
         14    1    4    4    0    0 -0.38351406148E+02  0.37628516099E+02 -0.32489840045E+02  0.62787938997E+02  0.00000000000E+00 0. -1.
         -5    1    5    5    0  502  0.49540285317E+02  0.69986590993E+02  0.13003763009E+03  0.15583400793E+03  0.47000000000E+01 0.  1.
         11    1    6    6    0    0  0.96994144822E+01 -0.70192660634E+01  0.48933850169E+02  0.50377280889E+02  0.00000000000E+00 0. -1.
        -12    1    6    6    0    0  0.39038713037E+02 -0.16732153291E+02 -0.25018352308E+02  0.49294056655E+02  0.00000000000E+00 0.  1.
</event>
<event>
12    1  0.1630640E-001  0.2744428E+03  0.7818608E-02  0.1098820E+00
         21   -1    0    0  503  502  0.00000000000E+00  0.00000000000E+00  0.36235860075E+03  0.36235860075E+03  0.00000000000E+00 0.  1.
         21   -1    0    0  501  503 -0.00000000000E+00 -0.00000000000E+00 -0.23958345898E+03  0.23958345898E+03  0.00000000000E+00 0.  1.
          6    2    1    2  501    0  0.20722946171E+03  0.53455218181E+02 -0.48698973986E+02  0.27833390012E+03  0.17116267039E+03 0.  0.
         24    2    3    3    0    0  0.22484783444E+03  0.46574421805E+02 -0.20808587026E+02  0.24430867269E+03  0.80796069449E+02 0.  0.
         -6    2    1    2    0  502 -0.20722946171E+03 -0.53455218181E+02  0.17147411575E+03  0.32360815961E+03  0.17180616533E+03 0.  0.
        -24    2    5    5    0    0 -0.75576127989E+02 -0.43067160468E+02  0.15346338382E+02  0.11906358039E+03  0.79837927340E+02 0.  0.
          5    1    3    3  501    0 -0.17618372734E+02  0.68807963757E+01 -0.27890386960E+02  0.34025227425E+02  0.47000000000E+01 0. -1.
        -11    1    4    4    0    0  0.19642336988E+03  0.66502902074E+02 -0.26734282274E+02  0.20909208036E+03  0.00000000000E+00 0.  1.
         12    1    4    4    0    0  0.28424464562E+02 -0.19928480269E+02  0.59256952483E+01  0.35216592334E+02  0.00000000000E+00 0. -1.
         -5    1    5    5    0  502 -0.13165333372E+03 -0.10388057712E+02  0.15612777737E+03  0.20454457922E+03  0.47000000000E+01 0.  1.
         13    1    6    6    0    0  0.12059893084E+02 -0.12873042699E+01  0.18275401635E+02  0.21933729241E+02  0.00000000000E+00 0. -1.
        -14    1    6    6    0    0 -0.87636021074E+02 -0.41779856199E+02 -0.29290632523E+01  0.97129851154E+02  0.00000000000E+00 0.  1.
</event>
<event>
12    1  0.1630640E-001  0.1764245E+03  0.7818608E-02  0.1171583E+00
         21   -1    0    0  501  502  0.00000000000E+00  0.00000000000E+00  0.70575563992E+03  0.70575563992E+03  0.00000000000E+00 0.  1.
         21   -1    0    0  502  503 -0.00000000000E+00 -0.00000000000E+00 -0.13053707863E+03  0.13053707863E+03  0.00000000000E+00 0.  1.
         -6    2    1    2    0  503  0.29525956937E+02 -0.26575973570E+02 -0.53488536616E+02  0.18330098168E+03  0.17076346750E+03 0.  0.
        -24    2    3    3    0    0  0.94193661437E+01  0.53622525939E+02 -0.69735542730E+01  0.88317783696E+02  0.69190322380E+02 0.  0.
          6    2    1    2  501    0 -0.29525956937E+02  0.26575973570E+02  0.62870709791E+03  0.65299173688E+03  0.17189394686E+03 0.  0.
         24    2    5    5    0    0 -0.24052010454E+02 -0.54571134714E-01  0.62137222640E+03  0.62444282549E+03  0.56981544230E+02 0.  0.
          5    1    5    5  501    0 -0.54739464836E+01  0.26630544705E+02  0.73348715104E+01  0.28548911388E+02  0.47000000000E+01 0. -1.
        -13    1    6    6    0    0  0.38221469421E+00 -0.24516234850E+02  0.35336230122E+03  0.35421195319E+03  0.00000000000E+00 0.  1.
         14    1    6    6    0    0 -0.24434225148E+02  0.24461663715E+02  0.26800992518E+03  0.27023087230E+03  0.00000000000E+00 0. -1.
         -5    1    3    3    0  503  0.20106590794E+02 -0.80198499509E+02 -0.46514982343E+02  0.94983197984E+02  0.47000000000E+01 0.  1.
         13    1    4    4    0    0  0.12939790371E+01 -0.16861228324E+02 -0.35832693969E+01  0.17286272644E+02  0.00000000000E+00 0. -1.
        -14    1    4    4    0    0  0.81253871066E+01  0.70483754264E+02 -0.33902848761E+01  0.71031511051E+02  0.00000000000E+00 0.  1.
</event>
<event>
12    1  0.1630640E-001  0.2044243E+03  0.7818608E-02  0.1146235E+00
         21   -1    0    0  501  502  0.00000000000E+00  0.00000000000E+00  0.98604045077E+02  0.98604045077E+02  0.00000000000E+00 0. -1.
         21   -1    0    0  502  503 -0.00000000000E+00 -0.00000000000E+00 -0.88747698694E+03  0.88747698694E+03  0.00000000000E+00 0.  1.
         -6    2    1    2    0  503 -0.65405840046E+02 -0.87820119328E+02 -0.75109822283E+03  0.77819586368E+03  0.17160991997E+03 0.  0.
        -24    2    3    3    0    0 -0.47034023407E+02 -0.20962382419E+02 -0.18707687826E+03  0.20990927421E+03  0.80078237908E+02 0.  0.
          6    2    1    2  501    0  0.65405840046E+02  0.87820119328E+02 -0.37774719033E+02  0.20788516834E+03  0.17262391650E+03 0.  0.
         24    2    5    5    0    0 -0.12809164448E+02  0.75135506461E+02  0.16392128655E+02  0.11178821876E+03  0.80115447611E+02 0.  0.
          5    1    5    5  501    0  0.78215004493E+02  0.12684612867E+02 -0.54166847688E+02  0.96096949587E+02  0.47000000000E+01 0. -1.
        -11    1    6    6    0    0  0.58199360619E+01  0.52516857397E+02 -0.27071279161E+02  0.59369572358E+02  0.00000000000E+00 0.  1.
         12    1    6    6    0    0 -0.18629100510E+02  0.22618649064E+02  0.43463407815E+02  0.52418646398E+02  0.00000000000E+00 0. -1.
         -5    1    3    3    0  503 -0.18371816639E+02 -0.66857736909E+02 -0.56402134458E+03  0.56828658947E+03  0.47000000000E+01 0.  1.
         13    1    4    4    0    0 -0.21563351270E+02  0.30128220172E+02 -0.58744828632E+02  0.69452448911E+02  0.00000000000E+00 0. -1.
        -14    1    4    4    0    0 -0.25470672137E+02 -0.51090602591E+02 -0.12833204962E+03  0.14045682530E+03  0.00000000000E+00 0.  1.
</event>
<event>
12    1  0.1630640E-001  0.2602884E+03  0.7818608E-02  0.1107004E+00
         21   -1    0    0  503  502  0.00000000000E+00  0.00000000000E+00  0.10384731483E+04  0.10384731483E+04  0.00000000000E+00 0. -1.
         21   -1    0    0  501  503 -0.00000000000E+00 -0.00000000000E+00 -0.75763768837E+02  0.75763768837E+02  0.00000000000E+00 0.  1.
          6    2    1    2  501    0  0.28779101303E+02 -0.19295874064E+03  0.27298239587E+03  0.37703045210E+03  0.17196296432E+03 0.  0.
         24    2    3    3    0    0  0.33375597477E+02 -0.21001629446E+03  0.20449301029E+03  0.30614340211E+03  0.81765622071E+02 0.  0.
         -6    2    1    2    0  502 -0.28779101303E+02  0.19295874064E+03  0.68972698364E+03  0.73720646508E+03  0.17230423076E+03 0.  0.
        -24    2    5    5    0    0 -0.22057238849E+02  0.94346526761E+02  0.56520432074E+03  0.57815447441E+03  0.73613064072E+02 0.  0.
          5    1    3    3  501    0 -0.45964961747E+01  0.17057553822E+02  0.68489385583E+02  0.70887049995E+02  0.47000000000E+01 0. -1.
        -11    1    4    4    0    0  0.56373865946E+02 -0.14011645540E+03  0.11242627944E+03  0.18828250621E+03  0.00000000000E+00 0.  1.
         12    1    4    4    0    0 -0.22998268469E+02 -0.69899839054E+02  0.92066730848E+02  0.11786089590E+03  0.00000000000E+00 0. -1.
         -5    1    5    5    0  502 -0.67218624535E+01  0.98612213876E+02  0.12452266290E+03  0.15905199067E+03  0.47000000000E+01 0.  1.
         13    1    6    6    0    0  0.22661223766E+02  0.63317690987E+02  0.31042442799E+03  0.31762554454E+03  0.00000000000E+00 0. -1.
        -14    1    6    6    0    0 -0.44718462615E+02  0.31028835774E+02  0.25477989276E+03  0.26052892987E+03  0.00000000000E+00 0.  1.
</event>
<event>
12    1  0.1630640E-001  0.2022335E+03  0.7818608E-02  0.1147965E+00
         21   -1    0    0  503  502  0.00000000000E+00  0.00000000000E+00  0.11876186512E+03  0.11876186512E+03  0.00000000000E+00 0.  1.
         21   -1    0    0  501  503 -0.00000000000E+00 -0.00000000000E+00 -0.45862791355E+03  0.45862791355E+03  0.00000000000E+00 0.  1.
          6    2    1    2  501    0  0.81285981081E+02 -0.67887144199E+02 -0.31438053236E+03  0.37355672265E+03  0.17173651576E+03 0.  0.
         24    2    3    3    0    0  0.41763212455E+01  0.18763147166E+02 -0.10454230882E+03  0.13374775141E+03  0.81178010084E+02 0.  0.
         -6    2    1    2    0  502 -0.81285981081E+02  0.67887144199E+02 -0.25485516069E+02  0.20383305602E+03  0.17228560047E+03 0.  0.
        -24    2    5    5    0    0 -0.85611352573E+02  0.64952964628E+02 -0.75925803503E+02  0.15290535389E+03  0.77891773038E+02 0.  0.
          5    1    3    3  501    0  0.77109659836E+02 -0.86650291365E+02 -0.20983822354E+03  0.23980897125E+03  0.47000000000E+01 0. -1.
        -13    1    4    4    0    0  0.80144602994E+00 -0.19421367195E+02 -0.91061592186E+02  0.93113078517E+02  0.00000000000E+00 0.  1.
         14    1    4    4    0    0  0.33748752156E+01  0.38184514362E+02 -0.13480716639E+02  0.40634672890E+02  0.00000000000E+00 0. -1.
         -5    1    5    5    0  502  0.43253714914E+01  0.29341795709E+01  0.50440287434E+02  0.50927702135E+02  0.47000000000E+01 0.  1.
         13    1    6    6    0    0 -0.19813297576E+02 -0.73687356655E+01  0.94002085187E+01  0.23135015590E+02  0.00000000000E+00 0. -1.
        -14    1    6    6    0    0 -0.65798054997E+02  0.72321700294E+02 -0.85326012022E+02  0.12977033830E+03  0.00000000000E+00 0.  1.
</event>
<event>
12    1  0.1630640E-001  0.1769678E+03  0.7818608E-02  0.1171608E+00
         21   -1    0    0  503  502  0.00000000000E+00  0.00000000000E+00  0.26319984154E+03  0.26319984154E+03  0.00000000000E+00 0. -1.
         21   -1    0    0  501  503 -0.00000000000E+00 -0.00000000000E+00 -0.14652826951E+03  0.14652826951E+03  0.00000000000E+00 0. -1.
          6    2    1    2  501    0  0.29417626393E+02  0.67363308069E+01 -0.33577851206E+02  0.18012520537E+03  0.17437557921E+03 0.  0.
         24    2    3    3    0    0 -0.64479859319E+01 -0.17230494639E+01  0.45727338903E+02  0.92550628926E+02  0.80187804369E+02 0.  0.
         -6    2    1    2    0  502 -0.29417626393E+02 -0.67363308069E+01  0.15024942323E+03  0.22960290567E+03  0.17097318566E+03 0.  0.
        -24    2    5    5    0    0 -0.82766024734E+02  0.12213699441E+02  0.10185491480E+03  0.15497533906E+03  0.81507930551E+02 0.  0.
          5    1    3    3  501    0  0.35865612325E+02  0.84593802707E+01 -0.79305190109E+02  0.87574576449E+02  0.47000000000E+01 0. -1.
        -13    1    4    4    0    0 -0.39849042082E+02 -0.16506893350E+02  0.18211205656E+02  0.46819565295E+02  0.00000000000E+00 0.  1.
         14    1    4    4    0    0  0.33401056150E+02  0.14783843886E+02  0.27516133247E+02  0.45731063632E+02  0.00000000000E+00 0. -1.
         -5    1    5    5    0  502  0.53348398342E+02 -0.18950030248E+02  0.48394508436E+02  0.74627566614E+02  0.47000000000E+01 0.  1.
         13    1    6    6    0    0 -0.36749757811E+02  0.15325925823E+02  0.10130668199E+03  0.10885068910E+03  0.00000000000E+00 0. -1.
        -14    1    6    6    0    0 -0.46016266923E+02 -0.31122263818E+01  0.54823280980E+00  0.46124649959E+02  0.00000000000E+00 0.  1.
</event>
<event>
12    1  0.1630640E-001  0.2007499E+03  0.7818608E-02  0.1149948E+00
         21   -1    0    0  503  502  0.00000000000E+00  0.00000000000E+00  0.53971930133E+03  0.53971930133E+03  0.00000000000E+00 0. -1.
         21   -1    0    0  501  503 -0.00000000000E+00 -0.00000000000E+00 -0.89903609375E+02  0.89903609375E+02  0.00000000000E+00 0. -1.
          6    2    1    2  501    0  0.16998020448E+02  0.98367000144E+02  0.87408789534E+02  0.21532921143E+03  0.16959178456E+03 0.  0.
         24    2    3    3    0    0 -0.12967822758E+02  0.11666276216E+03  0.26544198631E+02  0.14490709066E+03  0.80716206186E+02 0.  0.
         -6    2    1    2    0  502 -0.16998020448E+02 -0.98367000144E+02  0.36240690242E+03  0.41429369928E+03  0.17417091297E+03 0.  0.
        -24    2    5    5    0    0 -0.42953516988E+02 -0.10349258513E+03  0.36350779791E+03  0.38740017974E+03  0.73384332965E+02 0.  0.
          5    1    3    3  501    0  0.29965843206E+02 -0.18295762020E+02  0.60864590902E+02  0.70422120762E+02  0.47000000000E+01 0. -1.
        -13    1    4    4    0    0 -0.19948088144E+02 -0.50214704284E+01  0.37013136964E+01  0.20900744220E+02  0.00000000000E+00 0.  1.
         14    1    4    4    0    0  0.69802653860E+01  0.12168423259E+03  0.22842884935E+02  0.12400634644E+03  0.00000000000E+00 0. -1.
         -5    1    5    5    0  502  0.25955496540E+02  0.51255849889E+01 -0.11008954898E+01  0.26893519535E+02  0.47000000000E+01 0.  1.
         11    1    6    6    0    0 -0.53497370160E+02 -0.83822639064E+02  0.34288485367E+03  0.35701292177E+03  0.00000000000E+00 0. -1.
        -12    1    6    6    0    0  0.10543853172E+02 -0.19669946069E+02  0.20622944238E+02  0.30387257973E+02  0.00000000000E+00 0.  1.
</event>
<event>
12    1  0.1630640E-001  0.2117311E+03  0.7818608E-02  0.1140578E+00
         21   -1    0    0  503  502  0.00000000000E+00  0.00000000000E+00  0.90859144204E+03  0.90859144204E+03  0.00000000000E+00 0.  1.
         21   -1    0    0  501  503 -0.00000000000E+00 -0.00000000000E+00 -0.48899603567E+02  0.48899603567E+02  0.00000000000E+00 0. -1.
          6    2    1    2  501    0  0.24786818128E+02 -0.12079842350E+03  0.42405989744E+03  0.47313038831E+03  0.16976136853E+03 0.  0.
         24    2    3    3    0    0  0.79935991301E+02 -0.98801490055E+02  0.32243254074E+03  0.35533605053E+03  0.78418545847E+02 0.  0.
         -6    2    1    2    0  502 -0.24786818128E+02  0.12079842350E+03  0.43563194103E+03  0.48436065730E+03  0.17211453402E+03 0.  0.
        -24    2    5    5    0    0 -0.62394182558E+02  0.11766798110E+03  0.23841787462E+03  0.28351347280E+03  0.76144720969E+02 0.  0.
          5    1    3    3  501    0 -0.55149173173E+02 -0.21996933444E+02  0.10162735670E+03  0.11779433778E+03  0.47000000000E+01 0. -1.
        -13    1    4    4    0    0 -0.70264800672E+01 -0.38363367140E+02  0.12954513106E+03  0.13528880346E+03  0.00000000000E+00 0.  1.
         14    1    4    4    0    0  0.86962471369E+02 -0.60438122915E+02  0.19288740969E+03  0.22004724707E+03  0.00000000000E+00 0. -1.
         -5    1    5    5    0  502  0.37607364430E+02  0.31304423995E+01  0.19721406641E+03  0.20084718450E+03  0.47000000000E+01 0.  1.
         11    1    6    6    0    0 -0.50544584575E+02  0.20466312474E+02  0.70480264941E+02  0.89112808969E+02  0.00000000000E+00 0. -1.
        -12    1    6    6    0    0 -0.11849597983E+02  0.97201668625E+02  0.16793760968E+03  0.19440066383E+03  0.00000000000E+00 0.  1.
</event>
<event>
12    1  0.1630640E-001  0.1841930E+03  0.7818608E-02  0.1165723E+00
         21   -1    0    0  503  502  0.00000000000E+00  0.00000000000E+00  0.22454545131E+03  0.22454545131E+03  0.00000000000E+00 0.  1.
         21   -1    0    0  501  503 -0.00000000000E+00 -0.00000000000E+00 -0.34134621014E+03  0.34134621014E+03  0.00000000000E+00 0.  1.
          6    2    1    2  501    0 -0.27675881027E+02 -0.58527530161E+02 -0.27263117121E+03  0.32462378692E+03  0.16389454337E+03 0.  0.
         24    2    3    3    0    0  0.63386715920E+01  0.65400243727E+01 -0.62013614892E+02  0.10152600238E+03  0.79867953838E+02 0.  0.
         -6    2    1    2    0  502  0.27675881027E+02  0.58527530161E+02  0.15583041237E+03  0.24126787452E+03  0.17244026119E+03 0.  0.
        -24    2    5    5    0    0 -0.11557464121E+02  0.24773850973E+02  0.16787678950E+03  0.18792210213E+03  0.79904826821E+02 0.  0.
          5    1    3    3  501    0 -0.34014552619E+02 -0.65067554534E+02 -0.21061755631E+03  0.22309778455E+03  0.47000000000E+01 0. -1.
        -13    1    4    4    0    0 -0.31991956026E+02  0.21681522069E+02 -0.24229241502E+02  0.45613921047E+02  0.00000000000E+00 0.  1.
         14    1    4    4    0    0  0.38330627618E+02 -0.15141497696E+02 -0.37784373390E+02  0.55912081329E+02  0.00000000000E+00 0. -1.
         -5    1    5    5    0  502  0.39233345148E+02  0.33753679187E+02 -0.12046377126E+02  0.53345772392E+02  0.47000000000E+01 0.  1.
         11    1    6    6    0    0  0.28757336001E+02  0.13002842800E+02  0.12070788719E+03  0.12476558951E+03  0.00000000000E+00 0. -1.
        -12    1    6    6    0    0 -0.40314800122E+02  0.11771008174E+02  0.47168902304E+02  0.63156512625E+02  0.00000000000E+00 0.  1.
</event>
<event>
12    1  0.1630640E-001  0.1793324E+03  0.7818608E-02  0.1168613E+00
         21   -1    0    0  503  502  0.00000000000E+00  0.00000000000E+00  0.40493156469E+02  0.40493156469E+02  0.00000000000E+00 0.  1.
         21   -1    0    0  501  503 -0.00000000000E+00 -0.00000000000E+00 -0.94428474829E+03  0.94428474829E+03  0.00000000000E+00 0.  1.
          6    2    1    2  501    0  0.13539367261E+02  0.49681810504E+02 -0.65080592390E+03  0.67506182266E+03  0.17178043271E+03 0.  0.
         24    2    3    3    0    0  0.63895909854E+02 -0.12810608734E+01 -0.29960279073E+03  0.31659463254E+03  0.79912456643E+02 0.  0.
         -6    2    1    2    0  502 -0.13539367261E+02 -0.49681810504E+02 -0.25298566791E+03  0.30971608210E+03  0.17108683929E+03 0.  0.
        -24    2    5    5    0    0  0.50734698836E+02 -0.37265803199E+02 -0.89179110232E+02  0.13325081314E+03  0.76420649994E+02 0.  0.
          5    1    3    3  501    0 -0.50356542593E+02  0.50962871378E+02 -0.35120313317E+03  0.35846719012E+03  0.47000000000E+01 0. -1.
        -13    1    4    4    0    0  0.52436108149E+02  0.33993264372E+02 -0.15071295078E+03  0.16315477619E+03  0.00000000000E+00 0.  1.
         14    1    4    4    0    0  0.11459801705E+02 -0.35274325245E+02 -0.14888983995E+03  0.15343985635E+03  0.00000000000E+00 0. -1.
         -5    1    5    5    0  502 -0.64274066097E+02 -0.12416007305E+02 -0.16380655768E+03  0.17646526896E+03  0.47000000000E+01 0.  1.
         13    1    6    6    0    0  0.37542916538E+02 -0.59358431005E+02 -0.78658602997E+02  0.10545174128E+03  0.00000000000E+00 0. -1.
        -14    1    6    6    0    0  0.13191782298E+02  0.22092627806E+02 -0.10520507235E+02  0.27799071856E+02  0.00000000000E+00 0.  1.
</event>
<event>
12    1  0.1630640E-001  0.1824837E+03  0.7818608E-02  0.1165909E+00
         21   -1    0    0  501  502  0.00000000000E+00  0.00000000000E+00  0.20586246325E+02  0.20586246325E+02  0.00000000000E+00 0. -1.
         21   -1    0    0  502  503 -0.00000000000E+00 -0.00000000000E+00 -0.16422304350E+04  0.16422304350E+04  0.00000000000E+00 0.  1.
         -6    2    1    2    0  503 -0.19570378065E+02 -0.54105820947E+02 -0.67232650131E+03  0.69611902393E+03  0.17102143596E+03 0.  0.
        -24    2    3    3    0    0 -0.75018792809E+02 -0.25889826067E+02 -0.33785633065E+03  0.35587932295E+03  0.78772393467E+02 0.  0.
          6    2    1    2  501    0  0.19570378065E+02  0.54105820947E+02 -0.94931768732E+03  0.96669765735E+03  0.17317577691E+03 0.  0.
         24    2    5    5    0    0  0.41181932294E+02 -0.30956310252E+02 -0.50934784052E+03  0.51803499840E+03  0.79188333955E+02 0.  0.
          5    1    5    5  501    0 -0.21611554229E+02  0.85062131199E+02 -0.43996984680E+03  0.44866265895E+03  0.47000000000E+01 0. -1.
        -13    1    6    6    0    0  0.12820420980E+02  0.21683904658E+02 -0.27602771703E+03  0.27717477425E+03  0.00000000000E+00 0.  1.
         14    1    6    6    0    0  0.28361511314E+02 -0.52640214910E+02 -0.23332012349E+03  0.24086022415E+03  0.00000000000E+00 0. -1.
         -5    1    3    3    0  503  0.55448414744E+02 -0.28215994880E+02 -0.33447017066E+03  0.34023970099E+03  0.47000000000E+01 0.  1.
         11    1    4    4    0    0 -0.30222418093E+02  0.10851794534E+02 -0.34869487449E+02  0.47402923485E+02  0.00000000000E+00 0. -1.
        -12    1    4    4    0    0 -0.44796374716E+02 -0.36741620601E+02 -0.30298684320E+03  0.30847639946E+03  0.00000000000E+00 0.  1.
</event>
<event>
12    1  0.1630640E-001  0.1868267E+03  0.7818608E-02  0.1162014E+00
         21   -1    0    0  501  502  0.00000000000E+00  0.00000000000E+00  0.38667247313E+02  0.38667247313E+02  0.00000000000E+00 0. -1.
         21   -1    0    0  502  503 -0.00000000000E+00 -0.00000000000E+00 -0.14775771890E+04  0.14775771890E+04  0.00000000000E+00 0. -1.
         -6    2    1    2    0  503 -0.95989942721E+01 -0.74937557923E+02 -0.12012276043E+04  0.12156693457E+04  0.17086960722E+03 0.  0.
        -24    2    3    3    0    0 -0.62192462302E+02 -0.82822344629E+02 -0.92111710294E+03  0.93051635928E+03  0.81710063152E+02 0.  0.
          6    2    1    2  501    0  0.95989942721E+01  0.74937557923E+02 -0.23768233743E+03  0.30057509058E+03  0.16776386163E+03 0.  0.
         24    2    5    5    0    0  0.57392570960E+01  0.22606544692E+02 -0.33584406390E+02  0.89787311107E+02  0.79936562025E+02 0.  0.
          5    1    5    5  501    0  0.38597371761E+01  0.52331013231E+02 -0.20409793104E+03  0.21078777947E+03  0.47000000000E+01 0. -1.
        -13    1    6    6    0    0 -0.31465262340E+02  0.20910459657E+02 -0.36368503986E+02  0.52440233975E+02  0.00000000000E+00 0.  1.
         14    1    6    6    0    0  0.37204519436E+02  0.16960850353E+01  0.27840975958E+01  0.37347077132E+02  0.00000000000E+00 0. -1.
         -5    1    3    3    0  503  0.52593468030E+02  0.78847867060E+01 -0.28011050131E+03  0.28515298646E+03  0.47000000000E+01 0.  1.
         13    1    4    4    0    0 -0.31269192384E+02 -0.39342899141E+02 -0.73998532873E+03  0.74168990343E+03  0.00000000000E+00 0. -1.
        -14    1    4    4    0    0 -0.30923269918E+02 -0.43479445488E+02 -0.18113177420E+03  0.18882645585E+03  0.00000000000E+00 0.  1.
</event>
<event>
12    1  0.1630640E-001  0.2859972E+03  0.7818608E-02  0.1092507E+00
         21   -1    0    0  503  502  0.00000000000E+00  0.00000000000E+00  0.43427288568E+03  0.43427288568E+03  0.00000000000E+00 0. -1.
         21   -1    0    0  501  503 -0.00000000000E+00 -0.00000000000E+00 -0.22735794900E+03  0.22735794900E+03  0.00000000000E+00 0. -1.
          6    2    1    2  501    0  0.17531888749E+03 -0.14585669808E+03  0.24085892349E+03  0.37362632996E+03  0.17196721993E+03 0.  0.
         24    2    3    3    0    0  0.52866630948E+02 -0.25860222186E+02  0.14939367169E+03  0.17925119872E+03  0.79679930596E+02 0.  0.
         -6    2    1    2    0  502 -0.17531888749E+03  0.14585669808E+03 -0.33943986803E+02  0.28800450472E+03  0.17257900165E+03 0.  0.
        -24    2    5    5    0    0 -0.37645348710E+02  0.11230660406E+03 -0.57877670326E+01  0.14345529233E+03  0.80721602166E+02 0.  0.
          5    1    3    3  501    0  0.12245225654E+03 -0.11999647590E+03  0.91465251794E+02  0.19437513125E+03  0.47000000000E+01 0. -1.
        -13    1    4    4    0    0  0.69092144425E+02 -0.74695201054E+01  0.81738337583E+02  0.10728780911E+03  0.00000000000E+00 0.  1.
         14    1    4    4    0    0 -0.16225513477E+02 -0.18390702081E+02  0.67655334109E+02  0.71963389609E+02  0.00000000000E+00 0. -1.
         -5    1    5    5    0  502 -0.13767353878E+03  0.33550094029E+02 -0.28156219770E+02  0.14454921239E+03  0.47000000000E+01 0.  1.
         11    1    6    6    0    0 -0.44047510467E+02  0.10421943982E+03 -0.30070166236E+02  0.11707301018E+03  0.00000000000E+00 0. -1.
        -12    1    6    6    0    0  0.64021617571E+01  0.80871642384E+01  0.24282399204E+02  0.26382282154E+02  0.00000000000E+00 0.  1.
</event>
<event>
12    1  0.1630640E-001  0.2196098E+03  0.7818608E-02  0.1134706E+00
         21   -1    0    0  501  502  0.00000000000E+00  0.00000000000E+00  0.24828201823E+03  0.24828201823E+03  0.00000000000E+00 0. -1.
         21   -1    0    0  502  503 -0.00000000000E+00 -0.00000000000E+00 -0.23882658742E+03  0.23882658742E+03  0.00000000000E+00 0.  1.
         -6    2    1    2    0  503  0.59971823347E+02  0.12357047560E+03 -0.10337140789E+03  0.24272230838E+03  0.17135398735E+03 0.  0.
        -24    2    3    3    0    0 -0.23035800668E+02  0.97012522502E+02 -0.17872429558E+02  0.12054311288E+03  0.65338661523E+02 0.  0.
          6    2    1    2  501    0 -0.59971823347E+02 -0.12357047560E+03  0.11282683869E+03  0.24438629727E+03  0.16771548744E+03 0.  0.
         24    2    5    5    0    0 -0.15769031330E+02 -0.14479955335E+03  0.74422005567E+02  0.18192365426E+03  0.79636725610E+02 0.  0.
          5    1    5    5  501    0 -0.44202792017E+02  0.21229077748E+02  0.38404833127E+02  0.62462643009E+02  0.47000000000E+01 0. -1.
        -11    1    6    6    0    0 -0.13916838306E+02 -0.15402503597E+03  0.62668041914E+02  0.16686723337E+03  0.00000000000E+00 0.  1.
         12    1    6    6    0    0 -0.18521930237E+01  0.92254826176E+01  0.11753963653E+02  0.15056420892E+02  0.00000000000E+00 0. -1.
         -5    1    3    3    0  503  0.83007624014E+02  0.26557953102E+02 -0.85498978335E+02  0.12217919550E+03  0.47000000000E+01 0.  1.
         11    1    4    4    0    0  0.35852535973E+01  0.60180884269E+02  0.17699072867E+02  0.62831919078E+02  0.00000000000E+00 0. -1.
        -12    1    4    4    0    0 -0.26621054265E+02  0.36831638233E+02 -0.35571502425E+02  0.57711193800E+02  0.00000000000E+00 0.  1.
</event>
<event>
12    1  0.1630640E-001  0.1975345E+03  0.7818608E-02  0.1151882E+00
         21   -1    0    0  501  502  0.00000000000E+00  0.00000000000E+00  0.89102369647E+03  0.89102369647E+03  0.00000000000E+00 0.  1.
         21   -1    0    0  502  503 -0.00000000000E+00 -0.00000000000E+00 -0.51018201701E+02  0.51018201701E+02  0.00000000000E+00 0.  1.
         -6    2    1    2    0  503  0.63836939882E+02 -0.72989847821E+02  0.24195966634E+03  0.31221756278E+03  0.17185067237E+03 0.  0.
        -24    2    3    3    0    0  0.56364578330E+02  0.22710777920E+02  0.99603592103E+02  0.14045671792E+03  0.78195069698E+02 0.  0.
          6    2    1    2  501    0 -0.63836939882E+02  0.72989847821E+02  0.59804582843E+03  0.62982433539E+03  0.17209650714E+03 0.  0.
         24    2    5    5    0    0 -0.47644697962E+02  0.49412805996E+02  0.59071126741E+03  0.59992531559E+03  0.79113464087E+02 0.  0.
          5    1    5    5  501    0 -0.16192241920E+02  0.23577041825E+02  0.73345610160E+01  0.29899019798E+02  0.47000000000E+01 0. -1.
        -11    1    6    6    0    0 -0.11925421114E+02 -0.20766057705E+02  0.19415124020E+03  0.19562246520E+03  0.00000000000E+00 0.  1.
         12    1    6    6    0    0 -0.35719276847E+02  0.70178863702E+02  0.39656002721E+03  0.40430285039E+03  0.00000000000E+00 0. -1.
         -5    1    3    3    0  503  0.74723615514E+01 -0.95700625741E+02  0.14235607424E+03  0.17176084486E+03  0.47000000000E+01 0.  1.
         11    1    4    4    0    0  0.66236605638E+02  0.27531491130E+02  0.10581501686E+03  0.12783617924E+03  0.00000000000E+00 0. -1.
        -12    1    4    4    0    0 -0.98720273074E+01 -0.48207132106E+01 -0.62114247569E+01  0.12620538678E+02  0.00000000000E+00 0.  1.
</event>
<event>
12    1  0.1630640E-001  0.2234290E+03  0.7818608E-02  0.1131398E+00
         21   -1    0    0  503  502  0.00000000000E+00  0.00000000000E+00  0.16145603753E+03  0.16145603753E+03  0.00000000000E+00 0.  1.
         21   -1    0    0  501  503 -0.00000000000E+00 -0.00000000000E+00 -0.31111569319E+03  0.31111569319E+03  0.00000000000E+00 0.  1.
          6    2    1    2  501    0 -0.92492220089E+02  0.10872982512E+03 -0.54575208127E+02  0.22975173681E+03  0.17155297018E+03 0.  0.
         24    2    3    3    0    0 -0.10347729236E+03  0.13632716390E+03 -0.59550470714E+02  0.19927013320E+03  0.82883543433E+02 0.  0.
         -6    2    1    2    0  502  0.92492220089E+02 -0.10872982512E+03 -0.95084447532E+02  0.24281999390E+03  0.17188226095E+03 0.  0.
        -24    2    5    5    0    0  0.80564169036E+01 -0.65207520490E+01  0.37280217954E+01  0.77405080516E+02  0.76617375853E+02 0.  0.
          5    1    3    3  501    0  0.10985072274E+02 -0.27597338782E+02  0.49752625868E+01  0.30481603608E+02  0.47000000000E+01 0. -1.
        -13    1    4    4    0    0 -0.62693874580E+02  0.11887404369E+03 -0.72967903545E+02  0.15292440983E+03  0.00000000000E+00 0.  1.
         14    1    4    4    0    0 -0.40783417784E+02  0.17453120205E+02  0.13417432831E+02  0.46345723371E+02  0.00000000000E+00 0. -1.
         -5    1    5    5    0  502  0.84435803185E+02 -0.10220907307E+03 -0.98812469327E+02  0.16541491339E+03  0.47000000000E+01 0.  1.
         13    1    6    6    0    0 -0.27526272109E+02  0.15624360174E+02 -0.10177364827E+02  0.33247481738E+02  0.00000000000E+00 0. -1.
        -14    1    6    6    0    0  0.35582689013E+02 -0.22145112223E+02  0.13905386622E+02  0.44157598778E+02  0.00000000000E+00 0.  1.
</event>
<event>
12    1  0.1630640E-001  0.4341563E+03  0.7818608E-02  0.1032746E+00
         21   -1    0    0  503  502  0.00000000000E+00  0.00000000000E+00  0.14112340364E+04  0.14112340364E+04  0.00000000000E+00 0.  1.
         21   -1    0    0  501  503 -0.00000000000E+00 -0.00000000000E+00 -0.43018380923E+03  0.43018380923E+03  0.00000000000E+00 0. -1.
          6    2    1    2  501    0  0.30072236984E+03  0.25735675118E+03 -0.27454357924E+03  0.51367878995E+03  0.17839641603E+03 0.  0.
         24    2    3    3    0    0  0.29271974836E+03  0.26565829201E+03 -0.22368207906E+03  0.46131525559E+03  0.80739787917E+02 0.  0.
         -6    2    1    2    0  502 -0.30072236984E+03 -0.25735675118E+03  0.12555938064E+04  0.13277390557E+04  0.17236227028E+03 0.  0.
        -24    2    5    5    0    0 -0.17068660426E+03 -0.23500644758E+03  0.89210299902E+03  0.94101370941E+03  0.72781131892E+02 0.  0.
          5    1    3    3  501    0  0.80026214711E+01 -0.83015408321E+01 -0.50861500177E+02  0.52363534362E+02  0.47000000000E+01 0. -1.
        -13    1    4    4    0    0  0.19499252143E+03  0.20318973462E+03 -0.12139038132E+03  0.30666557737E+03  0.00000000000E+00 0.  1.
         14    1    4    4    0    0  0.97727226931E+02  0.62468557396E+02 -0.10229169774E+03  0.15464967822E+03  0.00000000000E+00 0. -1.
         -5    1    5    5    0  502 -0.13003576558E+03 -0.22350303605E+02  0.36349080742E+03  0.38672534631E+03  0.47000000000E+01 0.  1.
         13    1    6    6    0    0 -0.11421364744E+03 -0.17731370033E+03  0.53894912702E+03  0.57874957201E+03  0.00000000000E+00 0. -1.
        -14    1    6    6    0    0 -0.56472956815E+02 -0.57692747246E+02  0.35315387200E+03  0.36226413740E+03  0.00000000000E+00 0.  1.
</event>
<event>
12    1  0.1630640E-001  0.1949743E+03  0.7818608E-02  0.1154296E+00
         21   -1    0    0  501  502  0.00000000000E+00  0.00000000000E+00  0.16849960654E+03  0.16849960654E+03  0.00000000000E+00 0.  1.
         21   -1    0    0  502  503 -0.00000000000E+00 -0.00000000000E+00 -0.27682880007E+03  0.27682880007E+03  0.00000000000E+00 0. -1.
         -6    2    1    2    0  503 -0.32325983830E+02 -0.82821868840E+02 -0.15102353137E+03  0.24573431934E+03  0.17225799686E+03 0.  0.
        -24    2    3    3    0    0  0.28587873279E+02 -0.89821681160E+02 -0.66004250536E+02  0.14080642279E+03  0.81146082493E+02 0.  0.
          6    2    1    2  501    0  0.32325983830E+02  0.82821868840E+02  0.42694337851E+02  0.19959408727E+03  0.17352395224E+03 0.  0.
         24    2    5    5    0    0 -0.16266677973E+02  0.90328405612E+02 -0.15089987643E+02  0.12357623971E+03  0.81360639256E+02 0.  0.
          5    1    5    5  501    0  0.48592661802E+02 -0.75065367727E+01  0.57784325494E+02  0.76017847563E+02  0.47000000000E+01 0. -1.
        -11    1    6    6    0    0  0.11654942537E+02  0.58029011556E+02  0.25701231134E+02  0.64527181478E+02  0.00000000000E+00 0.  1.
         12    1    6    6    0    0 -0.27921620510E+02  0.32299394056E+02 -0.40791218777E+02  0.59049058228E+02  0.00000000000E+00 0. -1.
         -5    1    3    3    0  503 -0.60913857109E+02  0.69998123202E+01 -0.85019280839E+02  0.10492789655E+03  0.47000000000E+01 0.  1.
         13    1    4    4    0    0  0.16130453537E+02 -0.84616142695E+02 -0.82647007908E+02  0.11937592325E+03  0.00000000000E+00 0. -1.
        -14    1    4    4    0    0  0.12457419742E+02 -0.52055384654E+01  0.16642757373E+02  0.21430499535E+02  0.00000000000E+00 0.  1.
</event>
<event>
12    1  0.1630640E-001  0.1900804E+03  0.7818608E-02  0.1158463E+00
         21   -1    0    0  501  502  0.00000000000E+00  0.00000000000E+00  0.37761026472E+02  0.37761026472E+02  0.00000000000E+00 0. -1.
         21   -1    0    0  502  503 -0.00000000000E+00 -0.00000000000E+00 -0.95620026691E+03  0.95620026691E+03  0.00000000000E+00 0. -1.
         -6    2    1    2    0  503 -0.51165130177E+02  0.61618054860E+02 -0.47523873407E+03  0.51171940692E+03  0.17201814390E+03 0.  0.
        -24    2    3    3    0    0 -0.31705242158E+01  0.91675705012E+02 -0.23634165811E+03  0.26615709825E+03  0.81041560213E+02 0.  0.
          6    2    1    2  501    0  0.51165130177E+02 -0.61618054860E+02 -0.44320050637E+03  0.48224188646E+03  0.17238298344E+03 0.  0.
         24    2    5    5    0    0 -0.28246624142E+02 -0.11453515849E+02 -0.29127086100E+03  0.30355944513E+03  0.79878454285E+02 0.  0.
          5    1    5    5  501    0  0.79411754319E+02 -0.50164539011E+02 -0.15192964537E+03  0.17868244133E+03  0.47000000000E+01 0. -1.
        -13    1    6    6    0    0 -0.27519329754E+02  0.30148711211E+02 -0.10404730694E+03  0.11176806511E+03  0.00000000000E+00 0.  1.
         14    1    6    6    0    0 -0.72729438742E+00 -0.41602227060E+02 -0.18722355406E+03  0.19179138002E+03  0.00000000000E+00 0. -1.
         -5    1    3    3    0  503 -0.47994605961E+02 -0.30057650152E+02 -0.23889707596E+03  0.24556230867E+03  0.47000000000E+01 0.  1.
         13    1    4    4    0    0 -0.17898593527E+02 -0.35294870876E+01 -0.83635587316E+02  0.85602151813E+02  0.00000000000E+00 0. -1.
        -14    1    4    4    0    0  0.14728069311E+02  0.95205192100E+02 -0.15270607079E+03  0.18055494644E+03  0.00000000000E+00 0.  1.
</event>
<event>
12    1  0.1630640E-001  0.2088924E+03  0.7818608E-02  0.1142991E+00
         21   -1    0    0  503  502  0.00000000000E+00  0.00000000000E+00  0.62553373916E+02  0.62553373916E+02  0.00000000000E+00 0.  1.
         21   -1    0    0  501  503 -0.00000000000E+00 -0.00000000000E+00 -0.13882938445E+04  0.13882938445E+04  0.00000000000E+00 0.  1.
          6    2    1    2  501    0  0.16215222539E+02 -0.11486644005E+03 -0.11800339643E+04  0.11983806462E+04  0.17372041828E+03 0.  0.
         24    2    3    3    0    0 -0.48838683272E+02 -0.10118051322E+03 -0.89911832032E+03  0.90966797882E+03  0.80370171859E+02 0.  0.
         -6    2    1    2    0  502 -0.16215222539E+02  0.11486644005E+03 -0.14570650621E+03  0.25246657218E+03  0.17044574392E+03 0.  0.
        -24    2    5    5    0    0  0.23802781682E+02  0.55792969619E+02 -0.15044491085E+03  0.18080306648E+03  0.79853927718E+02 0.  0.
          5    1    3    3  501    0  0.65053905811E+02 -0.13685926823E+02 -0.28091564402E+03  0.28871266739E+03  0.47000000000E+01 0. -1.
        -11    1    4    4    0    0  0.73627923005E+01 -0.47997345590E+02 -0.54685946804E+03  0.54901114167E+03  0.00000000000E+00 0.  1.
         12    1    4    4    0    0 -0.56201475573E+02 -0.53183167634E+02 -0.35225885228E+03  0.36065683715E+03  0.00000000000E+00 0. -1.
         -5    1    5    5    0  502 -0.40018004222E+02  0.59073470429E+02  0.47384046366E+01  0.71663505698E+02  0.47000000000E+01 0.  1.
         11    1    6    6    0    0 -0.22129904813E+02  0.26229974802E+01 -0.72575429776E+02  0.75919732679E+02  0.00000000000E+00 0. -1.
        -12    1    6    6    0    0  0.45932686496E+02  0.53169972138E+02 -0.77869481075E+02  0.10488333380E+03  0.00000000000E+00 0.  1.
</event>
<event>
12    1  0.1630640E-001  0.1838348E+03  0.7818608E-02  0.1164252E+00
         21   -1    0    0  503  502  0.00000000000E+00  0.00000000000E+00  0.21319302015E+03  0.21319302015E+03  0.00000000000E+00 0. -1.
         21   -1    0    0  501  503 -0.00000000000E+00 -0.00000000000E+00 -0.16302617532E+03  0.16302617532E+03  0.00000000000E+00 0. -1.
          6    2    1    2  501    0  0.15772903545E+02 -0.61888082731E+02  0.57747416930E+02  0.19269145550E+03  0.17238420342E+03 0.  0.
         24    2    3    3    0    0  0.38584619946E+02 -0.10175932139E+03  0.24629085977E+02  0.13586713040E+03  0.77521305847E+02 0.  0.
         -6    2    1    2    0  502 -0.15772903545E+02  0.61888082731E+02 -0.75805720993E+01  0.18352773998E+03  0.17188963610E+03 0.  0.
        -24    2    5    5    0    0 -0.64634263476E+02  0.61919542390E+02  0.29239983769E+02  0.12216588849E+03  0.77832576180E+02 0.  0.
          5    1    3    3  501    0 -0.22811716401E+02  0.39871238662E+02  0.33118330953E+02  0.56824325097E+02  0.47000000000E+01 0. -1.
        -13    1    4    4    0    0  0.19828871697E+02 -0.54729705084E+02 -0.26456785088E+02  0.63941271872E+02  0.00000000000E+00 0.  1.
         14    1    4    4    0    0  0.18755748249E+02 -0.47029616308E+02  0.51085871065E+02  0.71925858528E+02  0.00000000000E+00 0. -1.
         -5    1    5    5    0  502  0.48861359931E+02 -0.31459658962E-01 -0.36820555869E+02  0.61361851492E+02  0.47000000000E+01 0.  1.
         11    1    6    6    0    0 -0.60308701311E+02  0.10831418651E+02  0.35011764239E+02  0.70571118164E+02  0.00000000000E+00 0. -1.
        -12    1    6    6    0    0 -0.43255621656E+01  0.51088123739E+02 -0.57717804698E+01  0.51594770326E+02  0.00000000000E+00 0.  1.
</event>
<event>
12    1  0.1630640E-001  0.1766433E+03  0.7818608E-02  0.1171217E+00
         21   -1    0    0  503  502  0.00000000000E+00  0.00000000000E+00  0.15109492321E+03  0.15109492321E+03  0.00000000000E+00 0. -1.
         21   -1    0    0  501  503 -0.00000000000E+00 -0.00000000000E+00 -0.21028704543E+03  0.21028704543E+03  0.00000000000E+00 0. -1.
          6    2    1    2  501    0 -0.93519119361E+01  0.32063678714E+02 -0.35180785938E+01  0.17617270996E+03  0.17294192409E+03 0.  0.
         24    2    3    3    0    0  0.60626684973E+02  0.29547924138E+02 -0.13598361622E+02  0.10527112216E+03  0.79676966370E+02 0.  0.
         -6    2    1    2    0  502  0.93519119361E+01 -0.32063678714E+02 -0.55674043623E+02  0.18520925869E+03  0.17345700511E+03 0.  0.
        -24    2    5    5    0    0 -0.12566648771E+02 -0.84617606511E+02 -0.26230461769E+02  0.12093365567E+03  0.81356327088E+02 0.  0.
          5    1    3    3  501    0 -0.69978596909E+02  0.25157545761E+01  0.10080283028E+02  0.70901587798E+02  0.47000000000E+01 0. -1.
        -11    1    4    4    0    0 -0.13772229243E+02 -0.11118801194E+02 -0.10169979849E+02  0.20413978751E+02  0.00000000000E+00 0.  1.
         12    1    4    4    0    0  0.74398914215E+02  0.40666725332E+02 -0.34283817729E+01  0.84857143407E+02  0.00000000000E+00 0. -1.
         -5    1    5    5    0  502  0.21918560707E+02  0.52553927797E+02 -0.29443581855E+02  0.64275603014E+02  0.47000000000E+01 0.  1.
         13    1    6    6    0    0 -0.21801060880E+02 -0.25767400345E+02 -0.46984607348E+02  0.57851521187E+02  0.00000000000E+00 0. -1.
        -14    1    6    6    0    0  0.92344121092E+01 -0.58850206166E+02  0.20754145579E+02  0.63082134487E+02  0.00000000000E+00 0.  1.
</event>
<event>
12    1  0.1630640E-001  0.1731661E+03  0.7818608E-02  0.1174612E+00
         21   -1    0    0  501  502  0.00000000000E+00  0.00000000000E+00  0.77863017939E+02  0.77863017939E+02  0.00000000000E+00 0.  1.
         21   -1    0    0  502  503 -0.00000000000E+00 -0.00000000000E+00 -0.39452953383E+03  0.39452953383E+03  0.00000000000E+00 0.  1.
         -6    2    1    2    0  503 -0.13062780444E+02 -0.17660001027E+02 -0.19529302814E+03  0.26100932507E+03  0.17176725259E+03 0.  0.
        -24    2    3    3    0    0  0.41969767864E+02  0.42015992642E+01 -0.48727105235E+02  0.10286328276E+03  0.80171125132E+02 0.  0.
          6    2    1    2  501    0  0.13062780444E+02  0.17660001027E+02 -0.12137348776E+03  0.21138322671E+03  0.17166488614E+03 0.  0.
         24    2    5    5    0    0  0.93571164590E+01  0.77734916180E+02 -0.72995209526E+02  0.13401866647E+03  0.80637643355E+02 0.  0.
          5    1    5    5  501    0  0.37056639854E+01 -0.60074915154E+02 -0.48378278233E+02  0.77364560240E+02  0.47000000000E+01 0. -1.
        -11    1    6    6    0    0  0.50257980605E+01  0.80355455011E+02 -0.87351347319E+02  0.11879610968E+03  0.00000000000E+00 0.  1.
         12    1    6    6    0    0  0.43313183985E+01 -0.26205388305E+01  0.14356137794E+02  0.15222556789E+02  0.00000000000E+00 0. -1.
         -5    1    3    3    0  503 -0.55032548309E+02 -0.21861600291E+02 -0.14656592290E+03  0.15814604230E+03  0.47000000000E+01 0.  1.
         13    1    4    4    0    0  0.18983887753E+02  0.41575551729E+02 -0.32501302073E+02  0.56082520737E+02  0.00000000000E+00 0. -1.
        -14    1    4    4    0    0  0.22985880111E+02 -0.37373952465E+02 -0.16225803161E+02  0.46780762024E+02  0.00000000000E+00 0.  1.
</event>
<event>
12    1  0.1630640E-001  0.2321442E+03  0.7818608E-02  0.1125358E+00
         21   -1    0    0  501  502  0.00000000000E+00  0.00000000000E+00  0.30883883512E+03  0.30883883512E+03  0.00000000000E+00 0. -1.
         21   -1    0    0  502  503 -0.00000000000E+00 -0.00000000000E+00 -0.27843418385E+03  0.27843418385E+03  0.00000000000E+00 0.  1.
         -6    2    1    2    0  503  0.22031198500E+02 -0.15161777628E+03 -0.16498850847E+03  0.28480192791E+03  0.17440644032E+03 0.  0.
        -24    2    3    3    0    0 -0.23561510955E+02 -0.62420425897E+02 -0.13220706224E+02  0.10289420881E+03  0.77207362123E+02 0.  0.
          6    2    1    2  501    0 -0.22031198500E+02  0.15161777628E+03  0.19539315974E+03  0.30247109106E+03  0.17273375542E+03 0.  0.
         24    2    5    5    0    0  0.24566436047E+02  0.79520146192E+02  0.34307848560E+02  0.11987871639E+03  0.79163847425E+02 0.  0.
          5    1    5    5  501    0 -0.46597634547E+02  0.72097630085E+02  0.16108531118E+03  0.18259237467E+03  0.47000000000E+01 0. -1.
        -13    1    6    6    0    0  0.53422587346E+02  0.51117776318E+02  0.17137370628E+02  0.75899205308E+02  0.00000000000E+00 0.  1.
         14    1    6    6    0    0 -0.28856151299E+02  0.28402369874E+02  0.17170477932E+02  0.43979511078E+02  0.00000000000E+00 0. -1.
         -5    1    3    3    0  503  0.45592709455E+02 -0.89197350380E+02 -0.15176780224E+03  0.18190771910E+03  0.47000000000E+01 0.  1.
         13    1    4    4    0    0 -0.21801757611E+01 -0.58816332272E+02 -0.37930165507E+02  0.70020079718E+02  0.00000000000E+00 0. -1.
        -14    1    4    4    0    0 -0.21381335194E+02 -0.36040936247E+01  0.24709459283E+02  0.32874129093E+02  0.00000000000E+00 0.  1.
</event>
<event>
12    1  0.1630640E-001  0.2169851E+03  0.7818608E-02  0.1136242E+00
         21   -1    0    0  501  502  0.00000000000E+00  0.00000000000E+00  0.31053256932E+03  0.31053256932E+03  0.00000000000E+00 0.  1.
         21   -1    0    0  502  503 -0.00000000000E+00 -0.00000000000E+00 -0.16501695763E+03  0.16501695763E+03  0.00000000000E+00 0. -1.
         -6    2    1    2    0  503 -0.62184484627E+02 -0.11728881998E+03  0.40854470722E+01  0.21654171952E+03  0.17102645408E+03 0.  0.
        -24    2    3    3    0    0  0.14494266081E+02 -0.10774909727E+03  0.22998009243E+02  0.13685224639E+03  0.79872881512E+02 0.  0.
          6    2    1    2  501    0  0.62184484627E+02  0.11728881998E+03  0.14143016462E+03  0.25900780743E+03  0.17163617167E+03 0.  0.
         24    2    5    5    0    0  0.55091959621E+02  0.80046655731E+00  0.88489746456E+02  0.13077123593E+03  0.78961485283E+02 0.  0.
          5    1    5    5  501    0  0.70925250068E+01  0.11648835342E+03  0.52940418161E+02  0.12823657149E+03  0.47000000000E+01 0. -1.
        -13    1    6    6    0    0  0.11458102284E+02 -0.26018493932E+02  0.71279788229E+02  0.76740200315E+02  0.00000000000E+00 0.  1.
         14    1    6    6    0    0  0.43633857337E+02  0.26818960489E+02  0.17209958227E+02  0.54031035618E+02  0.00000000000E+00 0. -1.
         -5    1    3    3    0  503 -0.76678750708E+02 -0.95397227074E+01 -0.18912562171E+02  0.79689473128E+02  0.47000000000E+01 0.  1.
         11    1    4    4    0    0 -0.31484151418E+02 -0.64466021180E+02  0.13296296273E+02  0.72965136688E+02  0.00000000000E+00 0. -1.
        -12    1    4    4    0    0  0.45978417499E+02 -0.43283076088E+02  0.97017129697E+01  0.63887109700E+02  0.00000000000E+00 0.  1.
</event>
<event>
12    1  0.1630640E-001  0.2324107E+03  0.7818608E-02  0.1125055E+00
         21   -1    0    0  503  502  0.00000000000E+00  0.00000000000E+00  0.19200656810E+04  0.19200656810E+04  0.00000000000E+00 0. -1.
         21   -1    0    0  501  503 -0.00000000000E+00 -0.00000000000E+00 -0.40763421737E+02  0.40763421737E+02  0.00000000000E+00 0. -1.
          6    2    1    2  501    0  0.14331107365E+03  0.65690073342E+02  0.39318519323E+03  0.45673771830E+03  0.17076737856E+03 0.  0.
         24    2    3    3    0    0  0.80243423957E+02 -0.11147303963E+02  0.85231135732E+02  0.13310319833E+03  0.62360608035E+02 0.  0.
         -6    2    1    2    0  502 -0.14331107365E+03 -0.65690073342E+02  0.14861170660E+04  0.15040913844E+04  0.16998149661E+03 0.  0.
        -24    2    5    5    0    0 -0.36405290515E+02 -0.41124975200E+02  0.10469085084E+04  0.10513679173E+04  0.79627030469E+02 0.  0.
          5    1    3    3  501    0  0.63067649697E+02  0.76837377305E+02  0.30795405749E+03  0.32363451997E+03  0.47000000000E+01 0. -1.
        -13    1    4    4    0    0  0.35759585232E+00 -0.19999088163E+02  0.77131718125E+01  0.21437920178E+02  0.00000000000E+00 0.  1.
         14    1    4    4    0    0  0.79885828104E+02  0.88517841992E+01  0.77517963919E+02  0.11166527816E+03  0.00000000000E+00 0. -1.
         -5    1    5    5    0  502 -0.10690578314E+03 -0.24565098142E+02  0.43920855766E+03  0.45272346707E+03  0.47000000000E+01 0.  1.
         13    1    6    6    0    0  0.15250794491E+02  0.49757871150E+01  0.47692879271E+03  0.47719851059E+03  0.00000000000E+00 0. -1.
        -14    1    6    6    0    0 -0.51656085005E+02 -0.46100762315E+02  0.56997971565E+03  0.57416940676E+03  0.00000000000E+00 0.  1.
</event>
<event>
12    1  0.1630640E-001  0.2119009E+03  0.7818608E-02  0.1140152E+00
         21   -1    0    0  501  502  0.00000000000E+00  0.00000000000E+00  0.59462505779E+03  0.59462505779E+03  0.00000000000E+00 0.  1.
         21   -1    0    0  502  503 -0.00000000000E+00 -0.00000000000E+00 -0.78072072552E+02  0.78072072552E+02  0.00000000000E+00 0.  1.
         -6    2    1    2    0  503 -0.10665099374E+03  0.61242623396E+02  0.19537463628E+03  0.28791467272E+03  0.17204219506E+03 0.  0.
        -24    2    3    3    0    0 -0.58760785531E+01  0.29448227912E+02  0.15051780712E+03  0.17302040726E+03  0.79866918316E+02 0.  0.
          6    2    1    2  501    0  0.10665099374E+03 -0.61242623396E+02  0.32117834896E+03  0.38478245762E+03  0.17255988661E+03 0.  0.
         24    2    5    5    0    0  0.57743987083E+01 -0.74620926578E+02  0.18720170839E+03  0.21647649623E+03  0.78841406845E+02 0.  0.
          5    1    5    5  501    0  0.10087659503E+03  0.13378303182E+02  0.13397664057E+03  0.16830596139E+03  0.47000000000E+01 0. -1.
        -13    1    6    6    0    0  0.15440281925E+02  0.77326362133E+00  0.11568455653E+01  0.15502855679E+02  0.00000000000E+00 0.  1.
         14    1    6    6    0    0 -0.96658832163E+01 -0.75394190199E+02  0.18604486282E+03  0.20097364055E+03  0.00000000000E+00 0. -1.
         -5    1    3    3    0  503 -0.10077491518E+03  0.31794395483E+02  0.44856829160E+02  0.11489426546E+03  0.47000000000E+01 0.  1.
         13    1    4    4    0    0  0.24520063867E+02 -0.11901455657E+02  0.88067387787E+02  0.92188627121E+02  0.00000000000E+00 0. -1.
        -14    1    4    4    0    0 -0.30396142420E+02  0.41349683569E+02  0.62450419330E+02  0.80831780135E+02  0.00000000000E+00 0.  1.
</event>
<event>
12    1  0.1630640E-001  0.1803328E+03  0.7818608E-02  0.1167957E+00
         21   -1    0    0  503  502  0.00000000000E+00  0.00000000000E+00  0.66275301662E+02  0.66275301662E+02  0.00000000000E+00 0.  1.
         21   -1    0    0  501  503 -0.00000000000E+00 -0.00000000000E+00 -0.96579973880E+03  0.96579973880E+03  0.00000000000E+00 0. -1.
          6    2    1    2  501    0  0.48788472882E+02 -0.14399212012E+02 -0.81495300527E+03  0.83466659863E+03  0.17300947281E+03 0.  0.
         24    2    3    3    0    0 -0.13799651655E+02 -0.42503563811E+02 -0.64402410756E+03  0.65042245084E+03  0.79280073901E+02 0.  0.
         -6    2    1    2    0  502 -0.48788472882E+02  0.14399212012E+02 -0.84571431873E+02  0.19740844183E+03  0.17096816495E+03 0.  0.
        -24    2    5    5    0    0 -0.48661636146E+02 -0.39961108730E+02 -0.98057689987E+02  0.14120319549E+03  0.79738239306E+02 0.  0.
          5    1    3    3  501    0  0.62588124537E+02  0.28104351798E+02 -0.17092889771E+03  0.18424414779E+03  0.47000000000E+01 0. -1.
        -11    1    4    4    0    0  0.27631968661E+02 -0.32471125806E+02 -0.20835605462E+03  0.21267379998E+03  0.00000000000E+00 0.  1.
         12    1    4    4    0    0 -0.41431620315E+02 -0.10032438004E+02 -0.43566805294E+03  0.43774865086E+03  0.00000000000E+00 0. -1.
         -5    1    5    5    0  502 -0.12683673649E+00  0.54360320742E+02  0.13486258114E+02  0.56205246344E+02  0.47000000000E+01 0.  1.
         13    1    6    6    0    0 -0.39820300101E+02 -0.56114601102E+02 -0.38463153769E+02  0.78828414641E+02  0.00000000000E+00 0. -1.
        -14    1    6    6    0    0 -0.88413360449E+01  0.16153492373E+02 -0.59594536217E+02  0.62374780848E+02  0.00000000000E+00 0.  1.
</event>
<event>
12    1  0.1630640E-001  0.2212458E+03  0.7818608E-02  0.1133036E+00
         21   -1    0    0  503  502  0.00000000000E+00  0.00000000000E+00  0.28716565491E+03  0.28716565491E+03  0.00000000000E+00 0.  1.
         21   -1    0    0  501  503 -0.00000000000E+00 -0.00000000000E+00 -0.31229259596E+03  0.31229259596E+03  0.00000000000E+00 0.  1.
          6    2    1    2  501    0 -0.60194954263E+02 -0.12495922714E+03 -0.21478431292E+03  0.30804851902E+03  0.17182359566E+03 0.  0.
         24    2    3    3    0    0  0.18015862506E+01 -0.10620077392E+03 -0.73081623765E+02  0.15217295097E+03  0.80832129616E+02 0.  0.
         -6    2    1    2    0  502  0.60194954263E+02  0.12495922714E+03  0.18965737187E+03  0.29140973185E+03  0.17237016025E+03 0.  0.
        -24    2    5    5    0    0  0.12551845388E+01 -0.55237114997E+00  0.93057863347E+02  0.12235171575E+03  0.79424780855E+02 0.  0.
          5    1    3    3  501    0 -0.61996540514E+02 -0.18758453218E+02 -0.14170268915E+03  0.15587556805E+03  0.47000000000E+01 0. -1.
        -11    1    4    4    0    0 -0.76530964118E+01 -0.40176381874E+02 -0.75022949435E+02  0.85446793311E+02  0.00000000000E+00 0.  1.
         12    1    4    4    0    0  0.94546826623E+01 -0.66024392051E+02  0.19413256710E+01  0.66726157654E+02  0.00000000000E+00 0. -1.
         -5    1    5    5    0  502  0.58939769724E+02  0.12551159829E+03  0.96599508525E+02  0.16905801610E+03  0.47000000000E+01 0.  1.
         13    1    6    6    0    0  0.20520587427E+02 -0.28041079350E+02  0.15908761511E+02  0.38216296685E+02  0.00000000000E+00 0. -1.
        -14    1    6    6    0    0 -0.19265402889E+02  0.27488708200E+02  0.77149101836E+02  0.84135419064E+02  0.00000000000E+00 0.  1.
</event>
<event>
12    1  0.1630640E-001  0.1788843E+03  0.7818608E-02  0.1170257E+00
         21   -1    0    0  503  502  0.00000000000E+00  0.00000000000E+00  0.35054775593E+03  0.35054775593E+03  0.00000000000E+00 0. -1.
         21   -1    0    0  501  503 -0.00000000000E+00 -0.00000000000E+00 -0.40585537898E+03  0.40585537898E+03  0.00000000000E+00 0. -1.
          6    2    1    2  501    0 -0.34247862754E+02  0.22629102643E+02 -0.36217954115E+03  0.40394753845E+03  0.17411088822E+03 0.  0.
         24    2    3    3    0    0 -0.12481182713E+02 -0.54574173641E+02 -0.21111958698E+03  0.23284717613E+03  0.80698247047E+02 0.  0.
         -6    2    1    2    0  502  0.34247862754E+02 -0.22629102643E+02  0.30687191810E+03  0.35245559647E+03  0.16843271942E+03 0.  0.
        -24    2    5    5    0    0  0.48889895323E+02 -0.70790751709E+02  0.17049615234E+03  0.20701016668E+03  0.79891919206E+02 0.  0.
          5    1    3    3  501    0 -0.21766680041E+02  0.77203276284E+02 -0.15105995417E+03  0.17110036231E+03  0.47000000000E+01 0. -1.
        -13    1    4    4    0    0 -0.41714952358E+02 -0.37824138915E+02 -0.17319025130E+03  0.18211443073E+03  0.00000000000E+00 0.  1.
         14    1    4    4    0    0  0.29233769645E+02 -0.16750034726E+02 -0.37929335676E+02  0.50732745400E+02  0.00000000000E+00 0. -1.
         -5    1    5    5    0  502 -0.14642032569E+02  0.48161649066E+02  0.13637576577E+03  0.14544542979E+03  0.47000000000E+01 0.  1.
         13    1    6    6    0    0  0.10540341496E+02 -0.42995422062E+02  0.18805661854E+02  0.48097380749E+02  0.00000000000E+00 0. -1.
        -14    1    6    6    0    0  0.38349553827E+02 -0.27795329647E+02  0.15169049048E+03  0.15891278593E+03  0.00000000000E+00 0.  1.
</event>
<event>
12    1  0.1630640E-001  0.1910937E+03  0.7818608E-02  0.1157751E+00
         21   -1    0    0  501  502  0.00000000000E+00  0.00000000000E+00  0.52377650259E+03  0.52377650259E+03  0.00000000000E+00 0.  1.
         21   -1    0    0  502  503 -0.00000000000E+00 -0.00000000000E+00 -0.31654364217E+03  0.31654364217E+03  0.00000000000E+00 0.  1.
         -6    2    1    2    0  503  0.74816948097E+02 -0.40913577842E+02 -0.26780291762E+03  0.32828909247E+03  0.16965797646E+03 0.  0.
        -24    2    3    3    0    0  0.15739904274E+02 -0.84298264294E+02 -0.16227761756E+03  0.19972001735E+03  0.78740829427E+02 0.  0.
          6    2    1    2  501    0 -0.74816948097E+02  0.40913577842E+02  0.47503577805E+03  0.51203105229E+03  0.17101260628E+03 0.  0.
         24    2    5    5    0    0 -0.45446429233E+02 -0.44486601635E+02  0.22992222425E+03  0.25076765591E+03  0.77302990821E+02 0.  0.
          5    1    5    5  501    0 -0.29370518864E+02  0.85400179477E+02  0.24511355379E+03  0.26126339638E+03  0.47000000000E+01 0. -1.
        -11    1    6    6    0    0 -0.76711212716E+01 -0.18170201450E+02  0.18631288271E+03  0.18735392333E+03  0.00000000000E+00 0.  1.
         12    1    6    6    0    0 -0.37775307961E+02 -0.26316400185E+02  0.43609341543E+02  0.63413732583E+02  0.00000000000E+00 0. -1.
         -5    1    3    3    0  503  0.59077043823E+02  0.43384686452E+02 -0.10552530006E+03  0.12856907512E+03  0.47000000000E+01 0.  1.
         13    1    4    4    0    0 -0.25520391034E+02 -0.44337970115E+02 -0.41116094701E+02  0.65632912444E+02  0.00000000000E+00 0. -1.
        -14    1    4    4    0    0  0.41260295308E+02 -0.39960294179E+02 -0.12116152286E+03  0.13408710490E+03  0.00000000000E+00 0.  1.
</event>
<event>
12    1  0.1630640E-001  0.1862397E+03  0.7818608E-02  0.1161975E+00
         21   -1    0    0  503  502  0.00000000000E+00  0.00000000000E+00  0.18330536856E+03  0.18330536856E+03  0.00000000000E+00 0. -1.
         21   -1    0    0  501  503 -0.00000000000E+00 -0.00000000000E+00 -0.28198150694E+03  0.28198150694E+03  0.00000000000E+00 0. -1.
          6    2    1    2  501    0  0.41867408988E+02 -0.56708872330E+02 -0.18298597940E+03  0.26085262378E+03  0.17202164555E+03 0.  0.
         24    2    3    3    0    0 -0.67783083783E+00 -0.52133169212E+02 -0.29060967085E+02  0.10102135679E+03  0.81501214305E+02 0.  0.
         -6    2    1    2    0  502 -0.41867408988E+02  0.56708872330E+02  0.84309841024E+02  0.20443425172E+03  0.17238456383E+03 0.  0.
        -24    2    5    5    0    0 -0.54549866917E+01  0.90749476827E+02  0.98809335086E+02  0.15230985647E+03  0.71901204814E+02 0.  0.
          5    1    3    3  501    0  0.42545239826E+02 -0.45757031178E+01 -0.15392501232E+03  0.15983126699E+03  0.47000000000E+01 0. -1.
        -13    1    4    4    0    0 -0.38057223169E+02 -0.41512742077E+02 -0.81827250896E+01  0.56908847994E+02  0.00000000000E+00 0.  1.
         14    1    4    4    0    0  0.37379392331E+02 -0.10620427135E+02 -0.20878241996E+02  0.44112508797E+02  0.00000000000E+00 0. -1.
         -5    1    5    5    0  502 -0.36412422296E+02 -0.34040604497E+02 -0.14499494062E+02  0.52124395249E+02  0.47000000000E+01 0.  1.
         13    1    6    6    0    0 -0.38510912473E+02  0.55041935412E+02  0.54614568015E+02  0.86576302028E+02  0.00000000000E+00 0. -1.
        -14    1    6    6    0    0  0.33055925781E+02  0.35707541415E+02  0.44194767072E+02  0.65733554443E+02  0.00000000000E+00 0.  1.
</event>
<event>
12    1  0.1630640E-001  0.2812979E+03  0.7818608E-02  0.1095260E+00
         21   -1    0    0  503  502  0.00000000000E+00  0.00000000000E+00  0.28855853130E+03  0.28855853130E+03  0.00000000000E+00 0.  1.
         21   -1    0    0  501  503 -0.00000000000E+00 -0.00000000000E+00 -0.29368999386E+03  0.29368999386E+03  0.00000000000E+00 0.  1.
          6    2    1    2  501    0  0.21885302433E+03  0.21840121547E+02 -0.81235601606E+02  0.29083761180E+03  0.17208618858E+03 0.  0.
         24    2    3    3    0    0  0.14656810986E+03  0.76285264123E+02 -0.27999368911E+02  0.18573971039E+03  0.80085098509E+02 0.  0.
         -6    2    1    2    0  502 -0.21885302433E+03 -0.21840121547E+02  0.76104139047E+02  0.29141091336E+03  0.17537058841E+03 0.  0.
        -24    2    5    5    0    0 -0.61718640110E+02  0.42478792098E+02  0.45299841763E+02  0.11878666220E+03  0.80277999094E+02 0.  0.
          5    1    3    3  501    0  0.72284914469E+02 -0.54445142576E+02 -0.53236232695E+02  0.10509790141E+03  0.47000000000E+01 0. -1.
        -11    1    4    4    0    0  0.11952967654E+03  0.20134702965E+02 -0.15857674960E+02  0.12224653652E+03  0.00000000000E+00 0.  1.
         12    1    4    4    0    0  0.27038433327E+02  0.56150561158E+02 -0.12141693951E+02  0.63493173863E+02  0.00000000000E+00 0. -1.
         -5    1    5    5    0  502 -0.15713438422E+03 -0.64318913645E+02  0.30804297284E+02  0.17262425116E+03  0.47000000000E+01 0.  1.
         13    1    6    6    0    0  0.16062804015E+01  0.46319893964E+02  0.20265816537E+02  0.50584741113E+02  0.00000000000E+00 0. -1.
        -14    1    6    6    0    0 -0.63324920512E+02 -0.38411018663E+01  0.25034025226E+02  0.68201921090E+02  0.00000000000E+00 0.  1.
</event>
<event>
12    1  0.1630640E-001  0.2367837E+03  0.7818608E-02  0.1122000E+00
         21   -1    0    0  501  502  0.00000000000E+00  0.00000000000E+00  0.17225500749E+03  0.17225500749E+03  0.00000000000E+00 0. -1.
         21   -1    0    0  502  503 -0.00000000000E+00 -0.00000000000E+00 -0.32546074680E+03  0.32546074680E+03  0.00000000000E+00 0. -1.
         -6    2    1    2    0  503  0.15962054556E+03  0.33199443418E+02 -0.84775306542E+02  0.25150226886E+03  0.17171376484E+03 0.  0.
        -24    2    3    3    0    0  0.13038852393E+03  0.21131706925E+02  0.68144120065E+01  0.15449243484E+03  0.79835831565E+02 0.  0.
          6    2    1    2  501    0 -0.15962054556E+03 -0.33199443418E+02 -0.68430432764E+02  0.24621348543E+03  0.17134011403E+03 0.  0.
         24    2    5    5    0    0 -0.18219470362E+03 -0.35024818507E+02 -0.33962782165E+02  0.20470404622E+03  0.79552674539E+02 0.  0.
          5    1    5    5  501    0  0.22574158062E+02  0.18253750894E+01 -0.34467650599E+02  0.41509439218E+02  0.47000000000E+01 0. -1.
        -11    1    6    6    0    0 -0.47748637353E+02 -0.12066784054E+02 -0.46504730059E+02  0.67736471449E+02  0.00000000000E+00 0.  1.
         12    1    6    6    0    0 -0.13444606627E+03 -0.22958034453E+02  0.12541947894E+02  0.13696757477E+03  0.00000000000E+00 0. -1.
         -5    1    3    3    0  503  0.29232021626E+02  0.12067736492E+02 -0.91589718549E+02  0.97009834018E+02  0.47000000000E+01 0.  1.
         13    1    4    4    0    0  0.77626902573E+02 -0.24421788452E+02 -0.12083902247E+02  0.82270167423E+02  0.00000000000E+00 0. -1.
        -14    1    4    4    0    0  0.52761621359E+02  0.45553495377E+02  0.18898314254E+02  0.72222267419E+02  0.00000000000E+00 0.  1.
</event>
<event>
12    1  0.1630640E-001  0.1722221E+03  0.7818608E-02  0.1175917E+00
         21   -1    0    0  503  502  0.00000000000E+00  0.00000000000E+00  0.19887020367E+03  0.19887020367E+03  0.00000000000E+00 0. -1.
         21   -1    0    0  501  503 -0.00000000000E+00 -0.00000000000E+00 -0.15734561344E+03  0.15734561344E+03  0.00000000000E+00 0. -1.
          6    2    1    2  501    0 -0.64625056691E+01 -0.27568348276E+01  0.64454322300E+02  0.18388807692E+03  0.17207876409E+03 0.  0.
         24    2    3    3    0    0  0.16826466348E+01  0.62608790650E+02  0.61315734838E+02  0.11777492217E+03  0.78667788747E+02 0.  0.
         -6    2    1    2    0  502  0.64625056691E+01  0.27568348276E+01 -0.22929732076E+02  0.17232774019E+03  0.17065085206E+03 0.  0.
        -24    2    5    5    0    0 -0.62682180213E+02  0.82986330982E+01 -0.66823242040E+01  0.10092908911E+03  0.78384338639E+02 0.  0.
          5    1    3    3  501    0 -0.81451523039E+01 -0.65365625478E+02  0.31385874623E+01  0.66113154753E+02  0.47000000000E+01 0. -1.
        -11    1    4    4    0    0  0.19875406690E+02  0.58878181250E+01  0.53899108250E+02  0.57747831678E+02  0.00000000000E+00 0.  1.
         12    1    4    4    0    0 -0.18192760055E+02  0.56720972525E+02  0.74166265882E+01  0.60027090489E+02  0.00000000000E+00 0. -1.
         -5    1    5    5    0  502  0.69144685882E+02 -0.55417982706E+01 -0.16247407872E+02  0.71398651082E+02  0.47000000000E+01 0.  1.
         11    1    6    6    0    0 -0.12677031172E+02  0.22179771052E+01  0.33888071160E+02  0.36249522876E+02  0.00000000000E+00 0. -1.
        -12    1    6    6    0    0 -0.50005149041E+02  0.60806559930E+01 -0.40570395364E+02  0.64679566232E+02  0.00000000000E+00 0.  1.
</event>
<event>
12    1  0.1630640E-001  0.1730567E+03  0.7818608E-02  0.1175058E+00
         21   -1    0    0  503  502  0.00000000000E+00  0.00000000000E+00  0.91786046636E+02  0.91786046636E+02  0.00000000000E+00 0.  1.
         21   -1    0    0  501  503 -0.00000000000E+00 -0.00000000000E+00 -0.33122397583E+03  0.33122397583E+03  0.00000000000E+00 0.  1.
          6    2    1    2  501    0 -0.81612389469E+01  0.11534693886E+02 -0.15125626615E+03  0.22878170203E+03  0.17106418138E+03 0.  0.
         24    2    3    3    0    0  0.31382798658E+02  0.54593855810E+02 -0.13117125931E+03  0.16678718747E+03  0.81527280667E+02 0.  0.
         -6    2    1    2    0  502  0.81612389469E+01 -0.11534693886E+02 -0.88181663035E+02  0.19422832043E+03  0.17247892560E+03 0.  0.
        -24    2    5    5    0    0  0.60420689736E+02  0.11070833458E+02 -0.15643652922E+02  0.10189244996E+03  0.79775462274E+02 0.  0.
          5    1    3    3  501    0 -0.39544037605E+02 -0.43059161924E+02 -0.20085006849E+02  0.61994514563E+02  0.47000000000E+01 0. -1.
        -13    1    4    4    0    0  0.17243627984E+02  0.75445900639E+02 -0.92118808935E+02  0.12031334751E+03  0.00000000000E+00 0.  1.
         14    1    4    4    0    0  0.14139170674E+02 -0.20852044829E+02 -0.39052450371E+02  0.46473839963E+02  0.00000000000E+00 0. -1.
         -5    1    5    5    0  502 -0.52259450789E+02 -0.22605527344E+02 -0.72538010112E+02  0.92335870464E+02  0.47000000000E+01 0.  1.
         13    1    6    6    0    0  0.69030115709E+02 -0.16953482744E+02 -0.14548369299E+02  0.72555030847E+02  0.00000000000E+00 0. -1.
        -14    1    6    6    0    0 -0.86094259727E+01  0.28024316202E+02 -0.10952836235E+01  0.29337419116E+02  0.00000000000E+00 0.  1.
</event>
<event>
12    1  0.1630640E-001  0.2151070E+03  0.7818608E-02  0.1137809E+00
         21   -1    0    0  503  502  0.00000000000E+00  0.00000000000E+00  0.20431755739E+03  0.20431755739E+03  0.00000000000E+00 0.  1.
         21   -1    0    0  501  503 -0.00000000000E+00 -0.00000000000E+00 -0.95843286353E+03  0.95843286353E+03  0.00000000000E+00 0.  1.
          6    2    1    2  501    0 -0.12841650018E+03 -0.50207498774E+01 -0.88530914963E+03  0.91079237425E+03  0.17103933207E+03 0.  0.
         24    2    3    3    0    0  0.15150862028E+01  0.18936627499E+02 -0.35442190095E+03  0.36369134712E+03  0.79344947846E+02 0.  0.
         -6    2    1    2    0  502  0.12841650018E+03  0.50207498774E+01  0.13119384349E+03  0.25195804667E+03  0.17249645580E+03 0.  0.
        -24    2    5    5    0    0  0.17803543202E+01 -0.32315696468E+02  0.25807982676E+02  0.82963983685E+02  0.71899212230E+02 0.  0.
          5    1    3    3  501    0 -0.12993158638E+03 -0.23957377377E+02 -0.53088724868E+03  0.54710102713E+03  0.47000000000E+01 0. -1.
        -13    1    4    4    0    0 -0.26997792543E+02  0.27111170842E+02 -0.92577775030E+02  0.10017255520E+03  0.00000000000E+00 0.  1.
         14    1    4    4    0    0  0.28512878746E+02 -0.81745433430E+01 -0.26184412592E+03  0.26351879192E+03  0.00000000000E+00 0. -1.
         -5    1    5    5    0  502  0.12663614586E+03  0.37336446345E+02  0.10538586081E+03  0.16899406298E+03  0.47000000000E+01 0.  1.
         13    1    6    6    0    0  0.20622564372E+02 -0.31947503477E+02 -0.12701278699E+02  0.40090592666E+02  0.00000000000E+00 0. -1.
        -14    1    6    6    0    0 -0.18842210052E+02 -0.36819299080E+00  0.38509261376E+02  0.42873391019E+02  0.00000000000E+00 0.  1.
</event>
<event>
12    1  0.1630640E-001  0.1987097E+03  0.7818608E-02  0.1150997E+00
         21   -1    0    0  501  502  0.00000000000E+00  0.00000000000E+00  0.16290751118E+03  0.16290751118E+03  0.00000000000E+00 0.  1.
         21   -1    0    0  502  503 -0.00000000000E+00 -0.00000000000E+00 -0.25016298632E+03  0.25016298632E+03  0.00000000000E+00 0.  1.
         -6    2    1    2    0  503  0.26518542440E+02  0.92507227883E+02 -0.82116905647E+02  0.21429432950E+03  0.17296835884E+03 0.  0.
        -24    2    3    3    0    0 -0.63892337351E+01 -0.25264382780E+02 -0.93740590248E+01  0.71933219131E+02  0.66388279741E+02 0.  0.
          6    2    1    2  501    0 -0.26518542440E+02 -0.92507227883E+02 -0.51385694928E+01  0.19877616801E+03  0.17385263808E+03 0.  0.
         24    2    5    5    0    0 -0.78428564528E+02 -0.91660931881E+02 -0.16086398677E+02  0.14550974731E+03  0.79759314017E+02 0.  0.
          5    1    5    5  501    0  0.51910022088E+02 -0.84629600175E+00  0.10947829185E+02  0.53266420698E+02  0.47000000000E+01 0. -1.
        -13    1    6    6    0    0 -0.20005507585E+02  0.39306899260E+01 -0.26000273913E+02  0.33040655269E+02  0.00000000000E+00 0.  1.
         14    1    6    6    0    0 -0.58423056942E+02 -0.95591621807E+02  0.99138752357E+01  0.11246909204E+03  0.00000000000E+00 0. -1.
         -5    1    3    3    0  503  0.32907776175E+02  0.11777161066E+03 -0.72742846622E+02  0.14236111037E+03  0.47000000000E+01 0.  1.
         11    1    4    4    0    0 -0.33946218457E+02 -0.26746858924E-01 -0.49335205604E+01  0.34302858307E+02  0.00000000000E+00 0. -1.
        -12    1    4    4    0    0  0.27556984722E+02 -0.25237635921E+02 -0.44405384645E+01  0.37630360824E+02  0.00000000000E+00 0.  1.
</event>
<event>
12    1  0.1630640E-001  0.2377242E+03  0.7818608E-02  0.1121590E+00
         21   -1    0    0  503  502  0.00000000000E+00  0.00000000000E+00  0.88355515849E+03  0.88355515849E+03  0.00000000000E+00 0.  1.
         21   -1    0    0  501  503 -0.00000000000E+00 -0.00000000000E+00 -0.10214520162E+04  0.10214520162E+04  0.00000000000E+00 0.  1.
          6    2    1    2  501    0  0.95142957560E+02  0.13164059300E+03 -0.99137057852E+03  0.10194745744E+04  0.17358385786E+03 0.  0.
         24    2    3    3    0    0  0.96266293062E+02  0.12216244418E+03 -0.99319248716E+03  0.10086807549E+04  0.82551116175E+02 0.  0.
         -6    2    1    2    0  502 -0.95142957560E+02 -0.13164059300E+03  0.85347372086E+03  0.88553260028E+03  0.17137434428E+03 0.  0.
        -24    2    5    5    0    0 -0.19313194091E+02 -0.39236616795E+02  0.18398076376E+03  0.20543587375E+03  0.80264968852E+02 0.  0.
          5    1    3    3  501    0 -0.11233355023E+01  0.94781488172E+01  0.18219086407E+01  0.10793819470E+02  0.47000000000E+01 0. -1.
        -13    1    4    4    0    0  0.73651398498E+02  0.41653764908E+02 -0.64812287750E+03  0.65362284918E+03  0.00000000000E+00 0.  1.
         14    1    4    4    0    0  0.22614894563E+02  0.80508679275E+02 -0.34506960967E+03  0.35505790571E+03  0.00000000000E+00 0. -1.
         -5    1    5    5    0  502 -0.75829763469E+02 -0.92403976205E+02  0.66949295710E+03  0.68009672654E+03  0.47000000000E+01 0.  1.
         11    1    6    6    0    0 -0.48928746728E+02 -0.29317797913E+02  0.14265127985E+03  0.15363249387E+03  0.00000000000E+00 0. -1.
        -12    1    6    6    0    0  0.29615552637E+02 -0.99188188819E+01  0.41329483909E+02  0.51803379873E+02  0.00000000000E+00 0.  1.
</event>
<event>
12    1  0.1630640E-001  0.1966891E+03  0.7818608E-02  0.1152624E+00
         21   -1    0    0  501  502  0.00000000000E+00  0.00000000000E+00  0.22997667105E+03  0.22997667105E+03  0.00000000000E+00 0.  1.
         21   -1    0    0  502  503 -0.00000000000E+00 -0.00000000000E+00 -0.79814093612E+03  0.79814093612E+03  0.00000000000E+00 0.  1.
         -6    2    1    2    0  503  0.28158142333E+02  0.89736100389E+02 -0.74081130008E+03  0.76640477844E+03  0.17242231121E+03 0.  0.
        -24    2    3    3    0    0 -0.68479578226E+01  0.36748578790E+02 -0.16264636779E+03  0.18474346512E+03  0.79239853472E+02 0.  0.
          6    2    1    2  501    0 -0.28158142333E+02 -0.89736100389E+02  0.17264703501E+03  0.26171282873E+03  0.17274593290E+03 0.  0.
         24    2    5    5    0    0  0.26617733062E+02 -0.21615446526E+02  0.14582714989E+03  0.17015838457E+03  0.80700600689E+02 0.  0.
          5    1    5    5  501    0 -0.54775875395E+02 -0.68120653863E+02  0.26819885116E+02  0.91554444161E+02  0.47000000000E+01 0. -1.
        -11    1    6    6    0    0  0.32851272605E+02 -0.49331574088E+02  0.99476419363E+02  0.11579450904E+03  0.00000000000E+00 0.  1.
         12    1    6    6    0    0 -0.62335395431E+01  0.27716127562E+02  0.46350730532E+02  0.54363875535E+02  0.00000000000E+00 0. -1.
         -5    1    3    3    0  503  0.35006100156E+02  0.52987521599E+02 -0.57816493228E+03  0.58166131332E+03  0.47000000000E+01 0.  1.
         11    1    4    4    0    0  0.31103768002E+02  0.87596377958E+01 -0.30496844656E+02  0.44432343762E+02  0.00000000000E+00 0. -1.
        -12    1    4    4    0    0 -0.37951725824E+02  0.27988940994E+02 -0.13214952313E+03  0.14031112135E+03  0.00000000000E+00 0.  1.
</event>
<event>
12    1  0.1630640E-001  0.2156398E+03  0.7818608E-02  0.1137467E+00
         21   -1    0    0  503  502  0.00000000000E+00  0.00000000000E+00  0.95311184373E+02  0.95311184373E+02  0.00000000000E+00 0.  1.
         21   -1    0    0  501  503 -0.00000000000E+00 -0.00000000000E+00 -0.83615617339E+03  0.83615617339E+03  0.00000000000E+00 0.  1.
          6    2    1    2  501    0 -0.12441803883E+03  0.39063010861E+02 -0.67322549016E+03  0.70691803178E+03  0.17174043161E+03 0.  0.
         24    2    3    3    0    0 -0.56023416627E+02  0.76114053813E+02 -0.52187850692E+03  0.53668700210E+03  0.82120581083E+02 0.  0.
         -6    2    1    2    0  502  0.12441803883E+03 -0.39063010861E+02 -0.67619498862E+02  0.22454932599E+03  0.16983590896E+03 0.  0.
        -24    2    5    5    0    0  0.64495001804E+01 -0.18394238377E+02  0.13797774612E+00  0.86865122451E+02  0.84649786784E+02 0.  0.
          5    1    3    3  501    0 -0.68394622204E+02 -0.37051042952E+02 -0.15134698323E+03  0.17023102968E+03  0.47000000000E+01 0. -1.
        -13    1    4    4    0    0  0.96156334370E+01  0.54809065529E+02 -0.20830279194E+03  0.21560739134E+03  0.00000000000E+00 0.  1.
         14    1    4    4    0    0 -0.65639050064E+02  0.21304988284E+02 -0.31357571499E+03  0.32107961076E+03  0.00000000000E+00 0. -1.
         -5    1    5    5    0  502  0.11796853865E+03 -0.20668772483E+02 -0.67757476608E+02  0.13768420354E+03  0.47000000000E+01 0.  1.
         13    1    6    6    0    0 -0.39156633545E+02 -0.10280417588E+02 -0.15331739429E+01  0.40512708607E+02  0.00000000000E+00 0. -1.
        -14    1    6    6    0    0  0.45606133725E+02 -0.81138207890E+01  0.16711516890E+01  0.46352413844E+02  0.00000000000E+00 0.  1.
</event>
<event>
12    1  0.1630640E-001  0.2311129E+03  0.7818608E-02  0.1125864E+00
         21   -1    0    0  503  502  0.00000000000E+00  0.00000000000E+00  0.13048266320E+04  0.13048266320E+04  0.00000000000E+00 0. -1.
         21   -1    0    0  501  503 -0.00000000000E+00 -0.00000000000E+00 -0.45902167094E+02  0.45902167094E+02  0.00000000000E+00 0.  1.
          6    2    1    2  501    0  0.14972593942E+03  0.37554747157E+02  0.40721530847E+03  0.46822804432E+03  0.17200284320E+03 0.  0.
         24    2    3    3    0    0  0.14081688642E+03  0.75687617786E+02  0.25387550885E+03  0.30989715285E+03  0.77623838880E+02 0.  0.
         -6    2    1    2    0  502 -0.14972593942E+03 -0.37554747157E+02  0.85170915644E+03  0.88250075478E+03  0.17196185346E+03 0.  0.
        -24    2    5    5    0    0 -0.62895949341E+02  0.15756859815E+02  0.21739317136E+03  0.24003641059E+03  0.78444301144E+02 0.  0.
          5    1    3    3  501    0  0.89090529975E+01 -0.38132870628E+02  0.15333979961E+03  0.15833089147E+03  0.47000000000E+01 0. -1.
        -13    1    4    4    0    0  0.66839497986E+02  0.54188652987E+02  0.19433438139E+03  0.21253183384E+03  0.00000000000E+00 0.  1.
         14    1    4    4    0    0  0.73977388438E+02  0.21498964799E+02  0.59541127462E+02  0.97365319015E+02  0.00000000000E+00 0. -1.
         -5    1    5    5    0  502 -0.86829990080E+02 -0.53311606972E+02  0.63431598508E+03  0.64246434418E+03  0.47000000000E+01 0.  1.
         11    1    6    6    0    0 -0.78440185799E+02 -0.19576948717E+00  0.18245985653E+03  0.19860639546E+03  0.00000000000E+00 0. -1.
        -12    1    6    6    0    0  0.15544236458E+02  0.15952629302E+02  0.34933314828E+02  0.41430015129E+02  0.00000000000E+00 0.  1.
</event>
<event>
12    1  0.1630640E-001  0.2031356E+03  0.7818608E-02  0.1147215E+00
         21   -1    0    0  501  502  0.00000000000E+00  0.00000000000E+00  0.12785383754E+03  0.12785383754E+03  0.00000000000E+00 0. -1.
         21   -1    0    0  502  503 -0.00000000000E+00 -0.00000000000E+00 -0.32573566058E+03  0.32573566058E+03  0.00000000000E+00 0. -1.
         -6    2    1    2    0  503 -0.33579070608E+02 -0.10372830081E+03 -0.74817809376E+02  0.21647584246E+03  0.17139711606E+03 0.  0.
        -24    2    3    3    0    0 -0.84413715139E+02 -0.96552255849E+02 -0.50015770395E+02  0.15926668372E+03  0.80101721838E+02 0.  0.
          6    2    1    2  501    0  0.33579070608E+02  0.10372830081E+03 -0.12306401366E+03  0.23711365566E+03  0.17085379677E+03 0.  0.
         24    2    5    5    0    0 -0.90054975701E+01  0.12999340851E+03 -0.92854904366E+02  0.17847935159E+03  0.79078824209E+02 0.  0.
          5    1    5    5  501    0  0.42584568178E+02 -0.26265107700E+02 -0.30209109297E+02  0.58634304071E+02  0.47000000000E+01 0. -1.
        -11    1    6    6    0    0  0.12397104221E+02  0.10604088828E+02 -0.45386067175E+02  0.48228933085E+02  0.00000000000E+00 0.  1.
         12    1    6    6    0    0 -0.21402601791E+02  0.11938931968E+03 -0.47468837190E+02  0.13025041851E+03  0.00000000000E+00 0. -1.
         -5    1    3    3    0  503  0.50834644531E+02 -0.71760449604E+01 -0.24802038980E+02  0.57209158737E+02  0.47000000000E+01 0.  1.
         11    1    4    4    0    0 -0.59179478102E+02 -0.10552355863E+03 -0.53449437845E+02  0.13226592327E+03  0.00000000000E+00 0. -1.
        -12    1    4    4    0    0 -0.25234237037E+02  0.89713027782E+01  0.34336674501E+01  0.27000760443E+02  0.00000000000E+00 0.  1.
</event>
<event>
12    1  0.1630640E-001  0.2021472E+03  0.7818608E-02  0.1148038E+00
         21   -1    0    0  503  502  0.00000000000E+00  0.00000000000E+00  0.78612489690E+02  0.78612489690E+02  0.00000000000E+00 0. -1.
         21   -1    0    0  501  503 -0.00000000000E+00 -0.00000000000E+00 -0.71963904282E+03  0.71963904282E+03  0.00000000000E+00 0. -1.
          6    2    1    2  501    0 -0.30063911715E+02 -0.10236272976E+03 -0.53173490101E+03  0.56886333721E+03  0.17170184693E+03 0.  0.
         24    2    3    3    0    0 -0.78947341242E+02 -0.35007569143E+02 -0.28242598833E+03  0.30598821233E+03  0.80038332130E+02 0.  0.
         -6    2    1    2    0  502  0.30063911715E+02  0.10236272976E+03 -0.10929165212E+03  0.22938819530E+03  0.17114996841E+03 0.  0.
        -24    2    5    5    0    0  0.28774079084E+02  0.12840184377E+03 -0.12541380732E+03  0.19837669718E+03  0.79433681820E+02 0.  0.
          5    1    3    3  501    0  0.48883429526E+02 -0.67355160614E+02 -0.24930891268E+03  0.26287512489E+03  0.47000000000E+01 0. -1.
        -13    1    4    4    0    0 -0.32614276789E+02  0.23084439922E+02 -0.13656874159E+03  0.14229407435E+03  0.00000000000E+00 0.  1.
         14    1    4    4    0    0 -0.46333064453E+02 -0.58092009064E+02 -0.14585724675E+03  0.16369413797E+03  0.00000000000E+00 0. -1.
         -5    1    5    5    0  502  0.12898326312E+01 -0.26039114015E+02  0.16122155202E+02  0.31011498114E+02  0.47000000000E+01 0.  1.
         13    1    6    6    0    0  0.77157622120E+01  0.87439411829E+02 -0.30586123316E+02  0.92955336947E+02  0.00000000000E+00 0. -1.
        -14    1    6    6    0    0  0.21058316872E+02  0.40962431943E+02 -0.94827684006E+02  0.10542136024E+03  0.00000000000E+00 0.  1.
</event>
<event>
12    1  0.1630640E-001  0.2139175E+03  0.7818608E-02  0.1138586E+00
         21   -1    0    0  503  502  0.00000000000E+00  0.00000000000E+00  0.17749861153E+03  0.17749861153E+03  0.00000000000E+00 0. -1.
         21   -1    0    0  501  503 -0.00000000000E+00 -0.00000000000E+00 -0.37442515023E+03  0.37442515023E+03  0.00000000000E+00 0. -1.
          6    2    1    2  501    0  0.66350171300E+02 -0.10684809310E+03 -0.25275367979E+03  0.33084146177E+03  0.17248997056E+03 0.  0.
         24    2    3    3    0    0  0.13024894787E+02 -0.87027153665E+02 -0.68367043123E+02  0.13782079827E+03  0.81099608448E+02 0.  0.
         -6    2    1    2    0  502 -0.66350171300E+02  0.10684809310E+03  0.55827141093E+02  0.22108229999E+03  0.17303714473E+03 0.  0.
        -24    2    5    5    0    0 -0.79646302422E+02  0.49479240402E+02 -0.19869391237E+02  0.12506132640E+03  0.80335633018E+02 0.  0.
          5    1    3    3  501    0  0.53325276513E+02 -0.19820939438E+02 -0.18438663667E+03  0.19302066350E+03  0.47000000000E+01 0. -1.
        -13    1    4    4    0    0  0.26807171620E+01  0.12646182453E+02 -0.25975507284E+02  0.29014464562E+02  0.00000000000E+00 0.  1.
         14    1    4    4    0    0  0.10344177625E+02 -0.99673336118E+02 -0.42391535838E+02  0.10880633370E+03  0.00000000000E+00 0. -1.
         -5    1    5    5    0  502  0.13296131122E+02  0.57368852701E+02  0.75696532330E+02  0.96020973593E+02  0.47000000000E+01 0.  1.
         11    1    6    6    0    0 -0.95003702719E+02  0.48978384814E+02 -0.11336210168E+02  0.10748532630E+03  0.00000000000E+00 0. -1.
        -12    1    6    6    0    0  0.15357400298E+02  0.50085558722E+00 -0.85331810694E+01  0.17576000096E+02  0.00000000000E+00 0.  1.
</event>
<event>
12    1  0.1630640E-001  0.3066496E+03  0.7818608E-02  0.1082245E+00
         21   -1    0    0  503  502  0.00000000000E+00  0.00000000000E+00  0.75588808758E+02  0.75588808758E+02  0.00000000000E+00 0. -1.
         21   -1    0    0  501  503 -0.00000000000E+00 -0.00000000000E+00 -0.14455304954E+04  0.14455304954E+04  0.00000000000E+00 0.  1.
          6    2    1    2  501    0  0.22358641037E+03 -0.11846066240E+03 -0.97323814609E+03  0.10197135997E+04  0.16911394078E+03 0.  0.
         24    2    3    3    0    0  0.47304759958E+02 -0.28925400005E+02 -0.21117255153E+03  0.23240308669E+03  0.79642508134E+02 0.  0.
         -6    2    1    2    0  502 -0.22358641037E+03  0.11846066240E+03 -0.39670354052E+03  0.50140570443E+03  0.17323443633E+03 0.  0.
        -24    2    5    5    0    0 -0.28834452809E+02  0.14717082547E+02 -0.90371291298E+02  0.12384432895E+03  0.78245954118E+02 0.  0.
          5    1    3    3  501    0  0.17628165041E+03 -0.89535262399E+02 -0.76206559456E+03  0.78731051301E+03  0.47000000000E+01 0. -1.
        -13    1    4    4    0    0  0.18922387349E+02 -0.55205876371E+02 -0.12792273707E+03  0.14060573313E+03  0.00000000000E+00 0.  1.
         14    1    4    4    0    0  0.28382372609E+02  0.26280476366E+02 -0.83249814460E+02  0.91797353559E+02  0.00000000000E+00 0. -1.
         -5    1    5    5    0  502 -0.19475195756E+03  0.10374357986E+03 -0.30633224922E+03  0.37756137547E+03  0.47000000000E+01 0.  1.
         11    1    6    6    0    0 -0.75386402610E+01 -0.27925497738E+02 -0.61897834095E+02  0.68322810148E+02  0.00000000000E+00 0. -1.
        -12    1    6    6    0    0 -0.21295812548E+02  0.42642580285E+02 -0.28473457203E+02  0.55521518806E+02  0.00000000000E+00 0.  1.
</event>
<event>
12    1  0.1630640E-001  0.2013069E+03  0.7818608E-02  0.1148709E+00
         21   -1    0    0  501  502  0.00000000000E+00  0.00000000000E+00  0.17070449270E+03  0.17070449270E+03  0.00000000000E+00 0.  1.
         21   -1    0    0  502  503 -0.00000000000E+00 -0.00000000000E+00 -0.12987411660E+04  0.12987411660E+04  0.00000000000E+00 0. -1.
         -6    2    1    2    0  503 -0.10171940035E+03 -0.20305641845E+02 -0.12284072391E+04  0.12447926711E+04  0.17252621082E+03 0.  0.
        -24    2    3    3    0    0 -0.56465123110E+02  0.45673186287E+02 -0.87995718177E+03  0.88724450955E+03  0.87199930581E+02 0.  0.
          6    2    1    2  501    0  0.10171940035E+03  0.20305641845E+02  0.10037056584E+03  0.22465298757E+03  0.17214981510E+03 0.  0.
         24    2    5    5    0    0  0.88501827130E+02 -0.42129763459E+02  0.33211268533E+02  0.13188798721E+03  0.81755504019E+02 0.  0.
          5    1    5    5  501    0  0.13217573219E+02  0.62435405304E+02  0.67159297305E+02  0.92765000360E+02  0.47000000000E+01 0. -1.
        -11    1    6    6    0    0  0.61773705362E+02  0.29228598952E+01  0.47050388343E+02  0.77706324243E+02  0.00000000000E+00 0.  1.
         12    1    6    6    0    0  0.26728121767E+02 -0.45052623355E+02 -0.13839119810E+02  0.54181662963E+02  0.00000000000E+00 0. -1.
         -5    1    3    3    0  503 -0.45254277238E+02 -0.65978828132E+02 -0.34845005736E+03  0.35754816158E+03  0.47000000000E+01 0.  1.
         11    1    4    4    0    0  0.43542078708E+01  0.26990476173E+02 -0.57853447570E+03  0.57918009677E+03  0.00000000000E+00 0. -1.
        -12    1    4    4    0    0 -0.60819330981E+02  0.18682710115E+02 -0.30142270608E+03  0.30806441277E+03  0.00000000000E+00 0.  1.
</event>
<event>
12    1  0.1630640E-001  0.1920169E+03  0.7818608E-02  0.1156692E+00
         21   -1    0    0  501  502  0.00000000000E+00  0.00000000000E+00  0.24266169688E+03  0.24266169688E+03  0.00000000000E+00 0.  1.
         21   -1    0    0  502  503 -0.00000000000E+00 -0.00000000000E+00 -0.30206931999E+03  0.30206931999E+03  0.00000000000E+00 0. -1.
         -6    2    1    2    0  503  0.84036726620E+02 -0.37489275092E+01 -0.22180743846E+03  0.29337522537E+03  0.17261013072E+03 0.  0.
        -24    2    3    3    0    0  0.75110542012E+02 -0.36429909759E+02 -0.64020992696E+02  0.13192437886E+03  0.79602904381E+02 0.  0.
          6    2    1    2  501    0 -0.84036726620E+02  0.37489275092E+01  0.16239981535E+03  0.25135579149E+03  0.17242333952E+03 0.  0.
         24    2    5    5    0    0 -0.57456798493E+02 -0.54843315197E+02  0.14617512321E+03  0.18483606419E+03  0.80548935849E+02 0.  0.
          5    1    5    5  501    0 -0.26579928127E+02  0.58592242707E+02  0.16224692141E+02  0.66519727297E+02  0.47000000000E+01 0. -1.
        -13    1    6    6    0    0 -0.35824312780E+02  0.15394067295E+02  0.60269977787E+02  0.71783207761E+02  0.00000000000E+00 0.  1.
         14    1    6    6    0    0 -0.21632485713E+02 -0.70237382492E+02  0.85905145422E+02  0.11305285643E+03  0.00000000000E+00 0. -1.
         -5    1    3    3    0  503  0.89261846082E+01  0.32680982250E+02 -0.15778644576E+03  0.16145084651E+03  0.47000000000E+01 0.  1.
         13    1    4    4    0    0  0.87648076361E+02 -0.25674956362E+02 -0.69229589846E+02  0.11460420928E+03  0.00000000000E+00 0. -1.
        -14    1    4    4    0    0 -0.12537534349E+02 -0.10754953397E+02  0.52085971503E+01  0.17320169583E+02  0.00000000000E+00 0.  1.
</event>
<event>
12    1  0.1630640E-001  0.2948225E+03  0.7818608E-02  0.1087952E+00
         21   -1    0    0  501  502  0.00000000000E+00  0.00000000000E+00  0.31739763617E+04  0.31739763617E+04  0.00000000000E+00 0.  1.
         21   -1    0    0  502  503 -0.00000000000E+00 -0.00000000000E+00 -0.18525403829E+03  0.18525403829E+03  0.00000000000E+00 0. -1.
         -6    2    1    2    0  503 -0.45813735976E+02  0.23460963552E+03 -0.56206605683E+02  0.30013247889E+03  0.17256808186E+03 0.  0.
        -24    2    3    3    0    0 -0.78006485792E+02  0.23584958871E+03 -0.58960418739E+02  0.26745857323E+03  0.79672561743E+02 0.  0.
          6    2    1    2  501    0  0.45813735976E+02 -0.23460963552E+03  0.30449289291E+04  0.30590979211E+04  0.17131061902E+03 0.  0.
         24    2    5    5    0    0 -0.30346229305E+02 -0.12841556773E+03  0.12696647195E+04  0.12790241517E+04  0.80267236425E+02 0.  0.
          5    1    5    5  501    0  0.76159965281E+02 -0.10619406780E+03  0.17752642097E+04  0.17800737694E+04  0.47000000000E+01 0. -1.
        -13    1    6    6    0    0 -0.26739542205E+02 -0.64434857512E+02  0.97396778461E+03  0.97646305585E+03  0.00000000000E+00 0.  1.
         14    1    6    6    0    0 -0.36066871000E+01 -0.63980710214E+02  0.29569693485E+03  0.30256109590E+03  0.00000000000E+00 0. -1.
         -5    1    3    3    0  503  0.32192749816E+02 -0.12399531918E+01  0.27538130564E+01  0.32673905659E+02  0.47000000000E+01 0.  1.
         13    1    4    4    0    0 -0.11990439734E+02  0.68374627289E+02  0.17949021785E+02  0.71700960139E+02  0.00000000000E+00 0. -1.
        -14    1    4    4    0    0 -0.66016046058E+02  0.16747496143E+03 -0.76909440524E+02  0.19575761309E+03  0.00000000000E+00 0.  1.
</event>
<event>
12    1  0.1630640E-001  0.3060739E+03  0.7818608E-02  0.1082315E+00
         21   -1    0    0  501  502  0.00000000000E+00  0.00000000000E+00  0.14035258635E+03  0.14035258635E+03  0.00000000000E+00 0. -1.
         21   -1    0    0  502  503 -0.00000000000E+00 -0.00000000000E+00 -0.19098784824E+04  0.19098784824E+04  0.00000000000E+00 0. -1.
         -6    2    1    2    0  503  0.92494880609E+01 -0.25315307057E+03 -0.17122952694E+04  0.17394356273E+04  0.17178236771E+03 0.  0.
        -24    2    3    3    0    0 -0.37434311746E+02 -0.19990658608E+03 -0.10017985812E+04  0.10254032757E+04  0.80545078132E+02 0.  0.
          6    2    1    2  501    0 -0.92494880609E+01  0.25315307057E+03 -0.57230626728E+02  0.31079544149E+03  0.17072326043E+03 0.  0.
         24    2    5    5    0    0 -0.44753848976E+02  0.21159273024E+03 -0.88945347347E+02  0.24742561400E+03  0.80831733632E+02 0.  0.
          5    1    5    5  501    0  0.35504360915E+02  0.41560340326E+02  0.31714720619E+02  0.63369827488E+02  0.47000000000E+01 0. -1.
        -11    1    6    6    0    0 -0.14383716249E+02  0.30871877317E+01 -0.21762825626E+02  0.26268661947E+02  0.00000000000E+00 0.  1.
         12    1    6    6    0    0 -0.30370132727E+02  0.20850554251E+03 -0.67182521721E+02  0.22115695206E+03  0.00000000000E+00 0. -1.
         -5    1    3    3    0  503  0.46683799807E+02 -0.53246484488E+02 -0.71049668815E+03  0.71403235161E+03  0.47000000000E+01 0.  1.
         13    1    4    4    0    0 -0.59030742217E+02 -0.17650992131E+03 -0.88376107603E+03  0.90314673246E+03  0.00000000000E+00 0. -1.
        -14    1    4    4    0    0  0.21596430471E+02 -0.23396664763E+02 -0.11803750517E+03  0.12225654321E+03  0.00000000000E+00 0.  1.
</event>
<event>
12    1  0.1630640E-001  0.2278101E+03  0.7818608E-02  0.1128289E+00
         21   -1    0    0  503  502  0.00000000000E+00  0.00000000000E+00  0.15177762346E+04  0.15177762346E+04  0.00000000000E+00 0. -1.
         21   -1    0    0  501  503 -0.00000000000E+00 -0.00000000000E+00 -0.37002157638E+02  0.37002157638E+02  0.00000000000E+00 0. -1.
          6    2    1    2  501    0  0.93759006733E+02 -0.11544929361E+03  0.52389368174E+03  0.57128102630E+03  0.17256341010E+03 0.  0.
         24    2    3    3    0    0  0.75390027308E+01 -0.97951015520E+02  0.21045400238E+03  0.24569447648E+03  0.80147680259E+02 0.  0.
         -6    2    1    2    0  502 -0.93759006733E+02  0.11544929361E+03  0.95688039523E+03  0.98349736595E+03  0.17183622235E+03 0.  0.
        -24    2    5    5    0    0 -0.30286495707E+02  0.97040390735E+02  0.83312940842E+03  0.84312627171E+03  0.80144804061E+02 0.  0.
          5    1    3    3  501    0  0.86220004002E+02 -0.17498278086E+02  0.31343967937E+03  0.32558654983E+03  0.47000000000E+01 0. -1.
        -11    1    4    4    0    0 -0.19307813892E+02 -0.14284542062E+02  0.10838280451E+03  0.11101203598E+03  0.00000000000E+00 0.  1.
         12    1    4    4    0    0  0.26846816623E+02 -0.83666473458E+02  0.10207119787E+03  0.13468244049E+03  0.00000000000E+00 0. -1.
         -5    1    5    5    0  502 -0.63472511026E+02  0.18408902871E+02  0.12375098681E+03  0.14037109423E+03  0.47000000000E+01 0.  1.
         11    1    6    6    0    0 -0.22424444772E+02  0.93825797865E+02  0.46511169776E+03  0.47501055511E+03  0.00000000000E+00 0. -1.
        -12    1    6    6    0    0 -0.78620509357E+01  0.32145928695E+01  0.36801771066E+03  0.36811571660E+03  0.00000000000E+00 0.  1.
</event>
<event>
12    1  0.1630640E-001  0.2128523E+03  0.7818608E-02  0.1140285E+00
         21   -1    0    0  501  502  0.00000000000E+00  0.00000000000E+00  0.13418689449E+03  0.13418689449E+03  0.00000000000E+00 0. -1.
         21   -1    0    0  502  503 -0.00000000000E+00 -0.00000000000E+00 -0.34743032631E+03  0.34743032631E+03  0.00000000000E+00 0.  1.
         -6    2    1    2    0  503 -0.93568561882E+00 -0.12128995818E+03 -0.51462842781E+02  0.21426153709E+03  0.16895991425E+03 0.  0.
        -24    2    3    3    0    0 -0.32647614516E+01 -0.13904559130E+03 -0.82414195386E+02  0.17819544041E+03  0.74947850226E+02 0.  0.
          6    2    1    2  501    0  0.93568561882E+00  0.12128995818E+03 -0.16178058905E+03  0.26735568371E+03  0.17491132941E+03 0.  0.
         24    2    5    5    0    0 -0.10420496928E+02  0.93975381516E+02 -0.19204309164E+03  0.22477683869E+03  0.68586580876E+02 0.  0.
          5    1    5    5  501    0  0.11356182547E+02  0.27314576667E+02  0.30262502593E+02  0.42578845026E+02  0.47000000000E+01 0. -1.
        -13    1    6    6    0    0 -0.39352364912E+02  0.44652738732E+02 -0.93127470754E+02  0.11052240275E+03  0.00000000000E+00 0.  1.
         14    1    6    6    0    0  0.28931867984E+02  0.49322642784E+02 -0.98915620885E+02  0.11425443594E+03  0.00000000000E+00 0. -1.
         -5    1    3    3    0  503  0.23290758327E+01  0.17755633117E+02  0.30951352605E+02  0.36066096679E+02  0.47000000000E+01 0.  1.
         11    1    4    4    0    0  0.79384101136E+01 -0.82706611114E+02 -0.69787088961E+01  0.83379279530E+02  0.00000000000E+00 0. -1.
        -12    1    4    4    0    0 -0.11203171565E+02 -0.56338980186E+02 -0.75435486489E+02  0.94816160877E+02  0.00000000000E+00 0.  1.
</event>
<event>
12    1  0.1630640E-001  0.1796749E+03  0.7818608E-02  0.1169588E+00
         21   -1    0    0  501  502  0.00000000000E+00  0.00000000000E+00  0.13010606268E+03  0.13010606268E+03  0.00000000000E+00 0.  1.
         21   -1    0    0  502  503 -0.00000000000E+00 -0.00000000000E+00 -0.43894592868E+03  0.43894592868E+03  0.00000000000E+00 0.  1.
         -6    2    1    2    0  503  0.24784325559E+02 -0.10890479931E+02 -0.34739066122E+03  0.39110529623E+03  0.17762380440E+03 0.  0.
        -24    2    3    3    0    0 -0.81361086624E+01 -0.70390681249E+02 -0.25242101796E+03  0.27420639937E+03  0.80322692168E+02 0.  0.
          6    2    1    2  501    0 -0.24784325559E+02  0.10890479931E+02  0.38550795220E+02  0.17794669513E+03  0.17159835999E+03 0.  0.
         24    2    5    5    0    0 -0.47443118910E+02 -0.12070638237E+02  0.80457587163E+02  0.12485335210E+03  0.81965763332E+02 0.  0.
          5    1    5    5  501    0  0.22658793351E+02  0.22961118169E+02 -0.41906791943E+02  0.53093343035E+02  0.47000000000E+01 0. -1.
        -13    1    6    6    0    0 -0.12171146619E+02  0.74252701701E+01 -0.15328630404E+02  0.20934143335E+02  0.00000000000E+00 0.  1.
         14    1    6    6    0    0 -0.35271972291E+02 -0.19495908408E+02  0.95786217567E+02  0.10391920876E+03  0.00000000000E+00 0. -1.
         -5    1    3    3    0  503  0.32920434221E+02  0.59500201318E+02 -0.94969643261E+02  0.11689889686E+03  0.47000000000E+01 0.  1.
         11    1    4    4    0    0 -0.30024780909E+02  0.16409226836E+01 -0.51384788617E+02  0.59536346857E+02  0.00000000000E+00 0. -1.
        -12    1    4    4    0    0  0.21888672246E+02 -0.72031603933E+02 -0.20103622935E+03  0.21467005252E+03  0.00000000000E+00 0.  1.
</event>
<event>
12    1  0.1630640E-001  0.2411478E+03  0.7818608E-02  0.1119057E+00
         21   -1    0    0  503  502  0.00000000000E+00  0.00000000000E+00  0.65479871375E+03  0.65479871375E+03  0.00000000000E+00 0. -1.
         21   -1    0    0  501  503 -0.00000000000E+00 -0.00000000000E+00 -0.89430371932E+02  0.89430371932E+02  0.00000000000E+00 0. -1.
          6    2    1    2  501    0 -0.13608292420E+03 -0.10013502265E+03  0.31503704130E+03  0.39664023089E+03  0.17184164323E+03 0.  0.
         24    2    3    3    0    0 -0.13393906713E+03 -0.12949931007E+03  0.23061119071E+03  0.30710436240E+03  0.80136278361E+02 0.  0.
         -6    2    1    2    0  502  0.13608292420E+03  0.10013502265E+03  0.25033130052E+03  0.34758885479E+03  0.17206587964E+03 0.  0.
        -24    2    5    5    0    0  0.93818888402E+02  0.39615123791E+01  0.18970156123E+03  0.22620661521E+03  0.79781407798E+02 0.  0.
          5    1    3    3  501    0 -0.21438570714E+01  0.29364287418E+02  0.84425850592E+02  0.89535868493E+02  0.47000000000E+01 0. -1.
        -11    1    4    4    0    0 -0.59136215029E+02 -0.14295845572E+02  0.42639227971E+02  0.74293787698E+02  0.00000000000E+00 0.  1.
         12    1    4    4    0    0 -0.74802852098E+02 -0.11520346450E+03  0.18797196274E+03  0.23281057470E+03  0.00000000000E+00 0. -1.
         -5    1    5    5    0  502  0.42264035796E+02  0.96173510275E+02  0.60629739288E+02  0.12138223958E+03  0.47000000000E+01 0.  1.
         11    1    6    6    0    0  0.10608960433E+03 -0.58347517985E+01  0.15286482717E+03  0.18616311090E+03  0.00000000000E+00 0. -1.
        -12    1    6    6    0    0 -0.12270715924E+02  0.97962641776E+01  0.36836734061E+02  0.40043504310E+02  0.00000000000E+00 0.  1.
</event>
<event>
12    1  0.1630640E-001  0.2023947E+03  0.7818608E-02  0.1149350E+00
         21   -1    0    0  503  502  0.00000000000E+00  0.00000000000E+00  0.29147694688E+03  0.29147694688E+03  0.00000000000E+00 0.  1.
         21   -1    0    0  501  503 -0.00000000000E+00 -0.00000000000E+00 -0.17734820153E+03  0.17734820153E+03  0.00000000000E+00 0.  1.
          6    2    1    2  501    0 -0.81642742521E+02 -0.41213800841E+02 -0.56232918061E+02  0.21006135205E+03  0.18055335988E+03 0.  0.
         24    2    3    3    0    0 -0.66225212061E+02 -0.55221965039E+02  0.30800024544E+02  0.12044688889E+03  0.78253226101E+02 0.  0.
         -6    2    1    2    0  502  0.81642742521E+02  0.41213800841E+02  0.17036166341E+03  0.25876379636E+03  0.17196363326E+03 0.  0.
        -24    2    5    5    0    0  0.53291695493E+02  0.95782665751E+02  0.64214419216E+02  0.13600032324E+03  0.48562047093E+02 0.  0.
          5    1    3    3  501    0 -0.15417530461E+02  0.14008164198E+02 -0.87032942605E+02  0.89614463164E+02  0.47000000000E+01 0. -1.
        -11    1    4    4    0    0 -0.25450277495E+02  0.63130800409E+01 -0.18134896553E+02  0.31881751476E+02  0.00000000000E+00 0.  1.
         12    1    4    4    0    0 -0.40774934566E+02 -0.61535045080E+02  0.48934921097E+02  0.88565137411E+02  0.00000000000E+00 0. -1.
         -5    1    5    5    0  502  0.28351047028E+02 -0.54568864910E+02  0.10614724419E+03  0.12276347313E+03  0.47000000000E+01 0.  1.
         13    1    6    6    0    0  0.54237898014E+02  0.85585985267E+02  0.38623534890E+02  0.10843656165E+03  0.00000000000E+00 0. -1.
        -14    1    6    6    0    0 -0.94620252118E+00  0.10196680484E+02  0.25590884326E+02  0.27563761585E+02  0.00000000000E+00 0.  1.
</event>
<event>
12    1  0.1630640E-001  0.4046782E+03  0.7818608E-02  0.1042234E+00
         21   -1    0    0  501  502  0.00000000000E+00  0.00000000000E+00  0.29390893547E+03  0.29390893547E+03  0.00000000000E+00 0. -1.
         21   -1    0    0  502  503 -0.00000000000E+00 -0.00000000000E+00 -0.86898128842E+03  0.86898128842E+03  0.00000000000E+00 0.  1.
         -6    2    1    2    0  503  0.26189075978E+03  0.25485674647E+03  0.61141494558E+02  0.40927096047E+03  0.17385541537E+03 0.  0.
        -24    2    3    3    0    0  0.18059325239E+03  0.25846042755E+03  0.44614519569E+02  0.32609943814E+03  0.70247226155E+02 0.  0.
          6    2    1    2  501    0 -0.26189075978E+03 -0.25485674647E+03 -0.63621384751E+03  0.75361926342E+03  0.17214878204E+03 0.  0.
         24    2    5    5    0    0 -0.13392459925E+03 -0.53862665121E+02 -0.25395358508E+03  0.30315399593E+03  0.81073651076E+02 0.  0.
          5    1    5    5  501    0 -0.12796616053E+03 -0.20099408135E+03 -0.38226026243E+03  0.45046526749E+03  0.47000000000E+01 0. -1.
        -13    1    6    6    0    0 -0.11900893322E+02 -0.40190628656E+02 -0.51835986946E+02  0.66662488974E+02  0.00000000000E+00 0.  1.
         14    1    6    6    0    0 -0.12202370593E+03 -0.13672036465E+02 -0.20211759813E+03  0.23649150696E+03  0.00000000000E+00 0. -1.
         -5    1    3    3    0  503  0.81297507386E+02 -0.36036810806E+01  0.16526974989E+02  0.83171522331E+02  0.47000000000E+01 0.  1.
         13    1    4    4    0    0  0.64197930649E+02  0.12140097538E+03  0.50148608901E+02  0.14620004821E+03  0.00000000000E+00 0. -1.
        -14    1    4    4    0    0  0.11639532174E+03  0.13705945217E+03 -0.55340893321E+01  0.17989938993E+03  0.00000000000E+00 0.  1.
</event>
<event>
12    1  0.1630640E-001  0.2052150E+03  0.7818608E-02  0.1146410E+00
         21   -1    0    0  501  502  0.00000000000E+00  0.00000000000E+00  0.93662680972E+03  0.93662680972E+03  0.00000000000E+00 0.  1.
         21   -1    0    0  502  503 -0.00000000000E+00 -0.00000000000E+00 -0.82954915915E+02  0.82954915915E+02  0.00000000000E+00 0. -1.
         -6    2    1    2    0  503 -0.11135770519E+03 -0.16590763270E+02  0.79795355783E+02  0.22018287474E+03  0.17157333007E+03 0.  0.
        -24    2    3    3    0    0 -0.12584954192E+03  0.15462146297E+02  0.98875095352E+02  0.17988983805E+03  0.80665260059E+02 0.  0.
          6    2    1    2  501    0  0.11135770519E+03  0.16590763270E+02  0.77387653802E+03  0.79939885090E+03  0.16576439541E+03 0.  0.
         24    2    5    5    0    0  0.11849490033E+03  0.53500091632E+02  0.69968390411E+03  0.71609293873E+03  0.79550173011E+02 0.  0.
          5    1    5    5  501    0 -0.71371951433E+01 -0.36909328362E+02  0.74192633914E+02  0.83305912166E+02  0.47000000000E+01 0. -1.
        -13    1    6    6    0    0  0.47040310072E+02  0.59055803238E+02  0.45144591622E+03  0.45771584410E+03  0.00000000000E+00 0.  1.
         14    1    6    6    0    0  0.71454590259E+02 -0.55557116065E+01  0.24823798788E+03  0.25837709463E+03  0.00000000000E+00 0. -1.
         -5    1    3    3    0  503  0.14491836737E+02 -0.32052909567E+02 -0.19079739570E+02  0.40293036691E+02  0.47000000000E+01 0.  1.
         13    1    4    4    0    0 -0.84769240074E+02  0.48274460800E+02  0.60350345912E+02  0.11471012109E+03  0.00000000000E+00 0. -1.
        -14    1    4    4    0    0 -0.41080301851E+02 -0.32812314504E+02  0.38524749441E+02  0.65179716958E+02  0.00000000000E+00 0.  1.
</event>
<event>
12    1  0.1630640E-001  0.2772772E+03  0.7818608E-02  0.1097614E+00
         21   -1    0    0  503  502  0.00000000000E+00  0.00000000000E+00  0.38586353838E+03  0.38586353838E+03  0.00000000000E+00 0.  1.
         21   -1    0    0  501  503 -0.00000000000E+00 -0.00000000000E+00 -0.36461423842E+03  0.36461423842E+03  0.00000000000E+00 0.  1.
          6    2    1    2  501    0 -0.10504839293E+03  0.18994359807E+03 -0.24379101192E+03  0.36690379278E+03  0.16754283142E+03 0.  0.
         24    2    3    3    0    0 -0.54851899640E+02  0.19309499969E+03 -0.17287809078E+03  0.27983857782E+03  0.90157559670E+02 0.  0.
         -6    2    1    2    0  502  0.10504839293E+03 -0.18994359807E+03  0.26504031188E+03  0.38357398402E+03  0.17253665986E+03 0.  0.
        -24    2    5    5    0    0  0.16471790771E+02 -0.11148051972E+03  0.66695039175E+02  0.15256487962E+03  0.78285299217E+02 0.  0.
          5    1    3    3  501    0 -0.50196493289E+02 -0.31514016244E+01 -0.70912921145E+02  0.87065214960E+02  0.47000000000E+01 0. -1.
        -13    1    4    4    0    0 -0.79517244152E+02  0.13696235055E+03 -0.13175178356E+03  0.20601021833E+03  0.00000000000E+00 0.  1.
         14    1    4    4    0    0  0.24665344512E+02  0.56132649139E+02 -0.41126307219E+02  0.73828359488E+02  0.00000000000E+00 0. -1.
         -5    1    5    5    0  502  0.88576602158E+02 -0.78463078342E+02  0.19834527271E+03  0.23100910441E+03  0.47000000000E+01 0.  1.
         11    1    6    6    0    0 -0.45305868829E+01 -0.60960330035E+02  0.75505472145E+02  0.97148156850E+02  0.00000000000E+00 0. -1.
        -12    1    6    6    0    0  0.21002377654E+02 -0.50520189688E+02 -0.88104329706E+01  0.55416722768E+02  0.00000000000E+00 0.  1.
</event>
<event>
12    1  0.1630640E-001  0.1798177E+03  0.7818608E-02  0.1168468E+00
         21   -1    0    0  501  502  0.00000000000E+00  0.00000000000E+00  0.32504033839E+03  0.32504033839E+03  0.00000000000E+00 0.  1.
         21   -1    0    0  502  503 -0.00000000000E+00 -0.00000000000E+00 -0.98373394737E+02  0.98373394737E+02  0.00000000000E+00 0.  1.
         -6    2    1    2    0  503  0.25261199069E+02  0.41143887406E+02  0.11366900339E+03  0.21273232015E+03  0.17321503993E+03 0.  0.
        -24    2    3    3    0    0  0.68178498700E+02 -0.17188754150E+02  0.51163937809E+02  0.11695359129E+03  0.78208906335E+02 0.  0.
          6    2    1    2  501    0 -0.25261199069E+02 -0.41143887406E+02  0.11299794027E+03  0.21068141298E+03  0.17113496317E+03 0.  0.
         24    2    5    5    0    0  0.17539872294E+02 -0.74662435234E+02  0.36704829108E+02  0.11688293981E+03  0.80201314103E+02 0.  0.
          5    1    5    5  501    0 -0.42801071363E+02  0.33518547828E+02  0.76293111157E+02  0.93798473166E+02  0.47000000000E+01 0. -1.
        -13    1    6    6    0    0 -0.10887193883E+02 -0.80612878919E+02  0.32229874826E+02  0.87497040348E+02  0.00000000000E+00 0.  1.
         14    1    6    6    0    0  0.28427066176E+02  0.59504436853E+01  0.44749542821E+01  0.29385899463E+02  0.00000000000E+00 0. -1.
         -5    1    3    3    0  503 -0.42917299631E+02  0.58332641556E+02  0.62505065581E+02  0.95778728859E+02  0.47000000000E+01 0.  1.
         13    1    4    4    0    0  0.26683717447E+02 -0.30196020430E+02  0.60293542148E+02  0.72519870734E+02  0.00000000000E+00 0. -1.
        -14    1    4    4    0    0  0.41494781253E+02  0.13007266280E+02 -0.91296043387E+01  0.44433720559E+02  0.00000000000E+00 0.  1.
</event>
<event>
12    1  0.1630640E-001  0.1719637E+03  0.7818608E-02  0.1175910E+00
         21   -1    0    0  503  502  0.00000000000E+00  0.00000000000E+00  0.14015523189E+03  0.14015523189E+03  0.00000000000E+00 0. -1.
         21   -1    0    0  501  503 -0.00000000000E+00 -0.00000000000E+00 -0.21809385471E+03  0.21809385471E+03  0.00000000000E+00 0. -1.
          6    2    1    2  501    0 -0.76886584234E+01 -0.13032042047E+01 -0.72265099332E+02  0.18619180577E+03  0.17141858168E+03 0.  0.
         24    2    3    3    0    0  0.34393505303E+02  0.20412808911E+02  0.11169879069E+02  0.90139844052E+02  0.80005183036E+02 0.  0.
         -6    2    1    2    0  502  0.76886584234E+01  0.13032042047E+01 -0.56735234934E+01  0.17205728083E+03  0.17178680161E+03 0.  0.
        -24    2    5    5    0    0  0.55350586410E+02  0.25401453033E+02 -0.40742480573E+02  0.10799241740E+03  0.79331527528E+02 0.  0.
          5    1    3    3  501    0 -0.42082163727E+02 -0.21716013116E+02 -0.83434978401E+02  0.96051961721E+02  0.47000000000E+01 0. -1.
        -13    1    4    4    0    0  0.46396181787E+02  0.16232970859E+02 -0.22568106657E+02  0.54087285617E+02  0.00000000000E+00 0.  1.
         14    1    4    4    0    0 -0.12002676484E+02  0.41798380526E+01  0.33737985726E+02  0.36052558436E+02  0.00000000000E+00 0. -1.
         -5    1    5    5    0  502 -0.47661927986E+02 -0.24098248828E+02  0.35068957080E+02  0.64064863432E+02  0.47000000000E+01 0.  1.
         11    1    6    6    0    0  0.43623541455E+01  0.10339800655E+02  0.22637120856E+02  0.25266199792E+02  0.00000000000E+00 0. -1.
        -12    1    6    6    0    0  0.50988232264E+02  0.15061652377E+02 -0.63379601430E+02  0.82726217605E+02  0.00000000000E+00 0.  1.
</event>
<event>
12    1  0.1630640E-001  0.2338948E+03  0.7818608E-02  0.1124039E+00
         21   -1    0    0  501  502  0.00000000000E+00  0.00000000000E+00  0.10203739036E+03  0.10203739036E+03  0.00000000000E+00 0.  1.
         21   -1    0    0  502  503 -0.00000000000E+00 -0.00000000000E+00 -0.54777840845E+03  0.54777840845E+03  0.00000000000E+00 0. -1.
         -6    2    1    2    0  503 -0.43403703594E+02  0.15173412844E+03 -0.17291115650E+03  0.29086945657E+03  0.17262573824E+03 0.  0.
        -24    2    3    3    0    0 -0.67936260248E+02  0.16140949042E+03 -0.12344232932E+03  0.23461366728E+03  0.95588729219E+02 0.  0.
          6    2    1    2  501    0  0.43403703594E+02 -0.15173412844E+03 -0.27282986159E+03  0.35894634224E+03  0.17175335809E+03 0.  0.
         24    2    5    5    0    0  0.23841199733E+02 -0.13810569115E+03 -0.28810911702E+03  0.33024143836E+03  0.80068468004E+02 0.  0.
          5    1    5    5  501    0  0.19562503861E+02 -0.13628437289E+02  0.15279255429E+02  0.28704903880E+02  0.47000000000E+01 0. -1.
        -13    1    6    6    0    0  0.53556591706E+02 -0.94062112036E+02 -0.18989801863E+03  0.21858006981E+03  0.00000000000E+00 0.  1.
         14    1    6    6    0    0 -0.29715391973E+02 -0.44043579114E+02 -0.98211098384E+02  0.11166136855E+03  0.00000000000E+00 0. -1.
         -5    1    3    3    0  503  0.24532556654E+02 -0.96753619833E+01 -0.49468827184E+02  0.56255789289E+02  0.47000000000E+01 0.  1.
         11    1    4    4    0    0 -0.11621164684E+02  0.12715090683E+03 -0.53301251626E+02  0.13835977740E+03  0.00000000000E+00 0. -1.
        -12    1    4    4    0    0 -0.56315095564E+02  0.34258583590E+02 -0.70141077693E+02  0.96253889884E+02  0.00000000000E+00 0.  1.
</event>
<event>
12    1  0.1630640E-001  0.4014187E+03  0.7818608E-02  0.1043313E+00
         21   -1    0    0  501  502  0.00000000000E+00  0.00000000000E+00  0.53852051336E+03  0.53852051336E+03  0.00000000000E+00 0. -1.
         21   -1    0    0  502  503 -0.00000000000E+00 -0.00000000000E+00 -0.45187064234E+03  0.45187064234E+03  0.00000000000E+00 0.  1.
         -6    2    1    2    0  503  0.51879919756E+02  0.35909058923E+03 -0.24467408817E+03  0.47010889342E+03  0.17175384974E+03 0.  0.
        -24    2    3    3    0    0  0.60807949276E+02  0.99294937076E+02 -0.10271948447E+03  0.17388821537E+03  0.78286191199E+02 0.  0.
          6    2    1    2  501    0 -0.51879919756E+02 -0.35909058923E+03  0.33132395920E+03  0.52028226228E+03  0.17111542641E+03 0.  0.
         24    2    5    5    0    0 -0.10155591297E+02 -0.61174191015E+02  0.58666799415E+02  0.11425379445E+03  0.75938913021E+02 0.  0.
          5    1    5    5  501    0 -0.41724328458E+02 -0.29791639822E+03  0.27265715978E+03  0.40602846783E+03  0.47000000000E+01 0. -1.
        -11    1    6    6    0    0 -0.65618397278E+01 -0.77171452592E+02  0.33882681178E+02  0.84537133377E+02  0.00000000000E+00 0.  1.
         12    1    6    6    0    0 -0.35937515696E+01  0.15997261577E+02  0.24784118237E+02  0.29716661069E+02  0.00000000000E+00 0. -1.
         -5    1    3    3    0  503 -0.89280295205E+01  0.25979565215E+03 -0.14195460371E+03  0.29622067805E+03  0.47000000000E+01 0.  1.
         13    1    4    4    0    0  0.29608356211E+02  0.57206124169E+01 -0.58450432677E+02  0.65771066922E+02  0.00000000000E+00 0. -1.
        -14    1    4    4    0    0  0.31199593065E+02  0.93574324659E+02 -0.44269051789E+02  0.10811714845E+03  0.00000000000E+00 0.  1.
</event>
<event>
12    1  0.1630640E-001  0.1857768E+03  0.7818608E-02  0.1162521E+00
         21   -1    0    0  503  502  0.00000000000E+00  0.00000000000E+00  0.10923122474E+03  0.10923122474E+03  0.00000000000E+00 0. -1.
         21   -1    0    0  501  503 -0.00000000000E+00 -0.00000000000E+00 -0.58615355689E+03  0.58615355689E+03  0.00000000000E+00 0. -1.
          6    2    1    2  501    0  0.24909096185E+02  0.61116173981E+02 -0.47485219935E+03  0.50959645489E+03  0.17276656454E+03 0.  0.
         24    2    3    3    0    0  0.63267970663E+02 -0.92326058967E+01 -0.30733167653E+03  0.32383970631E+03  0.79569585006E+02 0.  0.
         -6    2    1    2    0  502 -0.24909096185E+02 -0.61116173981E+02 -0.20701328011E+01  0.18578832673E+03  0.17365876628E+03 0.  0.
        -24    2    5    5    0    0  0.47834838249E+02 -0.26442222336E+02  0.24639263947E+02  0.10076218490E+03  0.80984947406E+02 0.  0.
          5    1    3    3  501    0 -0.38358874479E+02  0.70348779878E+02 -0.16752052282E+03  0.18575674859E+03  0.47000000000E+01 0. -1.
        -13    1    4    4    0    0  0.63817595715E+02  0.12475875921E+02 -0.13177946479E+03  0.14694951631E+03  0.00000000000E+00 0.  1.
         14    1    4    4    0    0 -0.54962505195E+00 -0.21708481818E+02 -0.17555221174E+03  0.17689019000E+03  0.00000000000E+00 0. -1.
         -5    1    5    5    0  502 -0.72743934433E+02 -0.34673951645E+02 -0.26709396748E+02  0.85026141828E+02  0.47000000000E+01 0.  1.
         13    1    6    6    0    0  0.61084952865E+02 -0.39529080903E+02  0.38643808470E+01  0.72861877158E+02  0.00000000000E+00 0. -1.
        -14    1    6    6    0    0 -0.13250114617E+02  0.13086858566E+02  0.20774883100E+02  0.27900307746E+02  0.00000000000E+00 0.  1.
</event>
<event>
12    1  0.1630640E-001  0.2048299E+03  0.7818608E-02  0.1145817E+00
         21   -1    0    0  503  502  0.00000000000E+00  0.00000000000E+00  0.68460763421E+03  0.68460763421E+03  0.00000000000E+00 0. -1.
         21   -1    0    0  501  503 -0.00000000000E+00 -0.00000000000E+00 -0.89530024377E+02  0.89530024377E+02  0.00000000000E+00 0. -1.
          6    2    1    2  501    0 -0.96153283437E+02 -0.56304270183E+02  0.79398091891E+02  0.21926770605E+03  0.17134364641E+03 0.  0.
         24    2    3    3    0    0  0.57693911330E+01 -0.10352491210E+02 -0.40169207822E+01  0.79697107713E+02  0.78708534333E+02 0.  0.
         -6    2    1    2    0  502  0.96153283437E+02  0.56304270183E+02  0.51567951794E+03  0.55486995253E+03  0.17187109775E+03 0.  0.
        -24    2    5    5    0    0  0.26119987599E+02  0.66377692633E+02  0.43182334437E+03  0.44505153781E+03  0.80692123119E+02 0.  0.
          5    1    3    3  501    0 -0.10192267457E+03 -0.45951778972E+02  0.83415012673E+02  0.13957059834E+03  0.47000000000E+01 0. -1.
        -11    1    4    4    0    0  0.17026166856E+02 -0.35699944527E+02  0.18790755120E+02  0.43788912695E+02  0.00000000000E+00 0.  1.
         12    1    4    4    0    0 -0.11256775723E+02  0.25347453317E+02 -0.22807675903E+02  0.35908195017E+02  0.00000000000E+00 0. -1.
         -5    1    5    5    0  502  0.70033295838E+02 -0.10073422450E+02  0.83856173569E+02  0.10981841472E+03  0.47000000000E+01 0.  1.
         11    1    6    6    0    0  0.45555911260E+02  0.82322561781E+01  0.19529969735E+03  0.20071144182E+03  0.00000000000E+00 0. -1.
        -12    1    6    6    0    0 -0.19435923661E+02  0.58145436454E+02  0.23652364702E+03  0.24434009599E+03  0.00000000000E+00 0.  1.
</event>
<event>
12    1  0.1630640E-001  0.2379586E+03  0.7818608E-02  0.1121360E+00
         21   -1    0    0  501  502  0.00000000000E+00  0.00000000000E+00  0.10907077351E+04  0.10907077351E+04  0.00000000000E+00 0. -1.
         21   -1    0    0  502  503 -0.00000000000E+00 -0.00000000000E+00 -0.20246217995E+03  0.20246217995E+03  0.00000000000E+00 0.  1.
         -6    2    1    2    0  503  0.16279067605E+03 -0.78355298566E+01 -0.11419573420E+03  0.26287246024E+03  0.17175291820E+03 0.  0.
        -24    2    3    3    0    0  0.14477584854E+03 -0.63008550311E+02 -0.96548747984E+02  0.20202755644E+03  0.81014499270E+02 0.  0.
          6    2    1    2  501    0 -0.16279067605E+03  0.78355298566E+01  0.10024412893E+04  0.10302974548E+04  0.17338427572E+03 0.  0.
         24    2    5    5    0    0 -0.89605120544E+02  0.70768122840E+02  0.66545506564E+03  0.67972871439E+03  0.78507808142E+02 0.  0.
          5    1    5    5  501    0 -0.73185555501E+02 -0.62932592983E+02  0.33698622369E+03  0.35056874040E+03  0.47000000000E+01 0. -1.
        -13    1    6    6    0    0  0.96728200433E+01  0.27663981561E+02  0.11064378041E+03  0.11445918691E+03  0.00000000000E+00 0.  1.
         14    1    6    6    0    0 -0.99277940587E+02  0.43104141279E+02  0.55481128523E+03  0.56526952748E+03  0.00000000000E+00 0. -1.
         -5    1    3    3    0  503  0.18014827510E+02  0.55173020455E+02 -0.17646986213E+02  0.60844903802E+02  0.47000000000E+01 0.  1.
         11    1    4    4    0    0  0.16516033736E+02  0.14298367228E+02  0.32194179962E+01  0.22081379667E+02  0.00000000000E+00 0. -1.
        -12    1    4    4    0    0  0.12825981480E+03 -0.77306917540E+02 -0.99768165981E+02  0.17994617677E+03  0.00000000000E+00 0.  1.
</event>
<event>
12    1  0.1630640E-001  0.2130665E+03  0.7818608E-02  0.1139496E+00
         21   -1    0    0  503  502  0.00000000000E+00  0.00000000000E+00  0.21498929277E+02  0.21498929277E+02  0.00000000000E+00 0. -1.
         21   -1    0    0  501  503 -0.00000000000E+00 -0.00000000000E+00 -0.21596989390E+04  0.21596989390E+04  0.00000000000E+00 0.  1.
          6    2    1    2  501    0  0.88143005457E+02 -0.87212812029E+02 -0.12626767976E+04  0.12805272392E+04  0.17326872452E+03 0.  0.
         24    2    3    3    0    0  0.64091420901E+02 -0.10775880244E+03 -0.12160657546E+04  0.12240002918E+04  0.60341736024E+02 0.  0.
         -6    2    1    2    0  502 -0.88143005457E+02  0.87212812029E+02 -0.87552321209E+03  0.90067062914E+03  0.17114737303E+03 0.  0.
        -24    2    5    5    0    0 -0.58705156316E+02  0.12334383514E+03 -0.75618075933E+03  0.77246474463E+03  0.78945828673E+02 0.  0.
          5    1    3    3  501    0  0.24051584556E+02  0.20545990413E+02 -0.46611043054E+02  0.56526947346E+02  0.47000000000E+01 0. -1.
        -13    1    4    4    0    0  0.92749228130E+01 -0.40546905265E+02 -0.64992149115E+03  0.65125111929E+03  0.00000000000E+00 0.  1.
         14    1    4    4    0    0  0.54816498088E+02 -0.67211897177E+02 -0.56614426345E+03  0.57274917252E+03  0.00000000000E+00 0. -1.
         -5    1    5    5    0  502 -0.29437849140E+02 -0.36131023112E+02 -0.11934245275E+03  0.12820588451E+03  0.47000000000E+01 0.  1.
         13    1    6    6    0    0 -0.43131775365E+02  0.39686723586E+02 -0.16312795737E+03  0.17333815665E+03  0.00000000000E+00 0. -1.
        -14    1    6    6    0    0 -0.15573380952E+02  0.83657111555E+02 -0.59305280196E+03  0.59912658798E+03  0.00000000000E+00 0.  1.
</event>
<event>
12    1  0.1630640E-001  0.1771954E+03  0.7818608E-02  0.1170987E+00
         21   -1    0    0  503  502  0.00000000000E+00  0.00000000000E+00  0.36893680693E+03  0.36893680693E+03  0.00000000000E+00 0. -1.
         21   -1    0    0  501  503 -0.00000000000E+00 -0.00000000000E+00 -0.96043735838E+02  0.96043735838E+02  0.00000000000E+00 0.  1.
          6    2    1    2  501    0  0.34470785856E+02  0.11374609760E+02  0.55592190414E+02  0.18571134650E+03  0.17343758462E+03 0.  0.
         24    2    3    3    0    0  0.68967313755E+00 -0.45398734299E+02  0.12772920359E+02  0.10684464845E+03  0.95870280503E+02 0.  0.
         -6    2    1    2    0  502 -0.34470785856E+02 -0.11374609760E+02  0.21730088068E+03  0.27926919627E+03  0.17162166069E+03 0.  0.
        -24    2    5    5    0    0 -0.60030316037E+02  0.37282006158E+02  0.63603854131E+02  0.11597307928E+03  0.66413236859E+02 0.  0.
          5    1    3    3  501    0  0.33781112718E+02  0.56773344059E+02  0.42819270054E+02  0.78866698042E+02  0.47000000000E+01 0. -1.
        -11    1    4    4    0    0 -0.15224500838E+02  0.66507505803E+01 -0.32204537910E+02  0.36237413967E+02  0.00000000000E+00 0.  1.
         12    1    4    4    0    0  0.15914173976E+02 -0.52049484879E+02  0.44977458269E+02  0.70607234487E+02  0.00000000000E+00 0. -1.
         -5    1    5    5    0  502  0.25559530181E+02 -0.48656615918E+02  0.15369702655E+03  0.16329611699E+03  0.47000000000E+01 0.  1.
         13    1    6    6    0    0 -0.16728447592E+02  0.49280027402E+02  0.33940587840E+02  0.62131518270E+02  0.00000000000E+00 0. -1.
        -14    1    6    6    0    0 -0.43301868446E+02 -0.11998021244E+02  0.29663266290E+02  0.53841561007E+02  0.00000000000E+00 0.  1.
</event>
<event>
12    1  0.1630640E-001  0.2047383E+03  0.7818608E-02  0.1146105E+00
         21   -1    0    0  501  502  0.00000000000E+00  0.00000000000E+00  0.12936597973E+03  0.12936597973E+03  0.00000000000E+00 0. -1.
         21   -1    0    0  502  503 -0.00000000000E+00 -0.00000000000E+00 -0.33651002582E+03  0.33651002582E+03  0.00000000000E+00 0. -1.
         -6    2    1    2    0  503  0.97314208005E+02 -0.55050288083E+02 -0.15280459001E+03  0.25547406562E+03  0.17151433228E+03 0.  0.
        -24    2    3    3    0    0  0.89444484074E+02  0.22118332876E+02 -0.12364522147E+03  0.17247233438E+03  0.77259491018E+02 0.  0.
          6    2    1    2  501    0 -0.97314208005E+02  0.55050288083E+02 -0.54339456080E+02  0.21040193993E+03  0.16975161425E+03 0.  0.
         24    2    5    5    0    0 -0.80114358174E+02  0.10090308512E+03 -0.28767695368E+02  0.15495540012E+03  0.81140943781E+02 0.  0.
          5    1    5    5  501    0 -0.17199849830E+02 -0.45852797037E+02 -0.25571760712E+02  0.55446539804E+02  0.47000000000E+01 0. -1.
        -11    1    6    6    0    0 -0.66128526246E+02  0.85444665327E+02 -0.55169769335E+02  0.12131560602E+03  0.00000000000E+00 0.  1.
         12    1    6    6    0    0 -0.13985831928E+02  0.15458419793E+02  0.26402073967E+02  0.33639794099E+02  0.00000000000E+00 0. -1.
         -5    1    3    3    0  503  0.78697239302E+01 -0.77168620959E+02 -0.29159368543E+02  0.83001731243E+02  0.47000000000E+01 0.  1.
         11    1    4    4    0    0  0.83223421710E+02  0.28967937114E+02 -0.56468226293E+02  0.10466107148E+03  0.00000000000E+00 0. -1.
        -12    1    4    4    0    0  0.62210623643E+01 -0.68496042384E+01 -0.67176995177E+02  0.67811262901E+02  0.00000000000E+00 0.  1.
</event>
<event>
12    1  0.1630640E-001  0.2174662E+03  0.7818608E-02  0.1135848E+00
         21   -1    0    0  503  502  0.00000000000E+00  0.00000000000E+00  0.29280065711E+03  0.29280065711E+03  0.00000000000E+00 0. -1.
         21   -1    0    0  501  503 -0.00000000000E+00 -0.00000000000E+00 -0.18818428534E+03  0.18818428534E+03  0.00000000000E+00 0. -1.
          6    2    1    2  501    0 -0.91323170875E+02  0.95145820764E+02  0.14328482534E+03  0.26042676148E+03  0.17291300754E+03 0.  0.
         24    2    3    3    0    0 -0.11426182135E+03  0.89248447962E+02  0.16081011756E+03  0.23059076713E+03  0.79316824780E+02 0.  0.
         -6    2    1    2    0  502  0.91323170875E+02 -0.95145820764E+02 -0.38668453579E+02  0.22055818096E+03  0.17250511048E+03 0.  0.
        -24    2    5    5    0    0  0.75613529669E+02 -0.11881200110E+03  0.10410659545E+02  0.16365712418E+03  0.82713813766E+02 0.  0.
          5    1    3    3  501    0  0.22938650478E+02  0.58973728017E+01 -0.17525292218E+02  0.29835994353E+02  0.47000000000E+01 0. -1.
        -13    1    4    4    0    0 -0.68217219969E+01 -0.10248938429E+02  0.36455687114E+02  0.38478484285E+02  0.00000000000E+00 0.  1.
         14    1    4    4    0    0 -0.10744009936E+03  0.99497386391E+02  0.12435443045E+03  0.19211228285E+03  0.00000000000E+00 0. -1.
         -5    1    5    5    0  502  0.15709641205E+02  0.23666180335E+02 -0.49079113124E+02  0.56901056787E+02  0.47000000000E+01 0.  1.
         13    1    6    6    0    0  0.70294686669E+01 -0.57676473080E+02 -0.27479931488E+02  0.64273910813E+02  0.00000000000E+00 0. -1.
        -14    1    6    6    0    0  0.68584061003E+02 -0.61135528019E+02  0.37890591033E+02  0.99383213364E+02  0.00000000000E+00 0.  1.
</event>
<event>
12    1  0.1630640E-001  0.1913964E+03  0.7818608E-02  0.1161282E+00
         21   -1    0    0  501  502  0.00000000000E+00  0.00000000000E+00  0.19523548467E+03  0.19523548467E+03  0.00000000000E+00 0.  1.
         21   -1    0    0  502  503 -0.00000000000E+00 -0.00000000000E+00 -0.27875260998E+03  0.27875260998E+03  0.00000000000E+00 0.  1.
         -6    2    1    2    0  503  0.29073048294E+02  0.89295796993E+01 -0.18777437683E+03  0.25603821013E+03  0.17138077174E+03 0.  0.
        -24    2    3    3    0    0 -0.40710956611E+02 -0.21351415349E+02 -0.92346780696E+02  0.13391015395E+03  0.85385809714E+02 0.  0.
          6    2    1    2  501    0 -0.29073048294E+02 -0.89295796993E+01  0.10425725152E+03  0.21794988452E+03  0.18896454201E+03 0.  0.
         24    2    5    5    0    0  0.23976392613E+02  0.32014453370E+02  0.12165330070E+03  0.14855702068E+03  0.75298540451E+02 0.  0.
          5    1    5    5  501    0 -0.53049440907E+02 -0.40944033069E+02 -0.17396049182E+02  0.69392863838E+02  0.47000000000E+01 0. -1.
        -13    1    6    6    0    0  0.20418784565E+02 -0.13474481490E+02  0.89383892927E+02  0.92671293987E+02  0.00000000000E+00 0.  1.
         14    1    6    6    0    0  0.35576080480E+01  0.45488934860E+02  0.32269407777E+02  0.55885726693E+02  0.00000000000E+00 0. -1.
         -5    1    3    3    0  503  0.69784004905E+02  0.30280995048E+02 -0.95427596132E+02  0.12212805618E+03  0.47000000000E+01 0.  1.
         13    1    4    4    0    0  0.26553032522E+02 -0.11533972500E+02 -0.29522149898E+02  0.41347955116E+02  0.00000000000E+00 0. -1.
        -14    1    4    4    0    0 -0.67263989132E+02 -0.98174428495E+01 -0.62824630798E+02  0.92562198834E+02  0.00000000000E+00 0.  1.
</event>
<event>
12    1  0.1630640E-001  0.2148947E+03  0.7818608E-02  0.1137879E+00
         21   -1    0    0  503  502  0.00000000000E+00  0.00000000000E+00  0.15683822827E+03  0.15683822827E+03  0.00000000000E+00 0.  1.
         21   -1    0    0  501  503 -0.00000000000E+00 -0.00000000000E+00 -0.73698415124E+03  0.73698415124E+03  0.00000000000E+00 0. -1.
          6    2    1    2  501    0 -0.12728241356E+03  0.24551944823E+00 -0.63656770207E+03  0.67164421810E+03  0.17229812335E+03 0.  0.
         24    2    3    3    0    0 -0.18520240145E+02 -0.36196612416E+02 -0.17874365929E+03  0.19964614237E+03  0.79095463739E+02 0.  0.
         -6    2    1    2    0  502  0.12728241356E+03 -0.24551944823E+00  0.56421779099E+02  0.22217816141E+03  0.17314400125E+03 0.  0.
        -24    2    5    5    0    0  0.16393952688E+02  0.44800971618E+02  0.88756140770E+01  0.93305492004E+02  0.79694727368E+02 0.  0.
          5    1    3    3  501    0 -0.10876217342E+03  0.36442131865E+02 -0.45782404278E+03  0.47199807572E+03  0.47000000000E+01 0. -1.
        -13    1    4    4    0    0 -0.16672318326E+02  0.14898787458E+02 -0.12284604110E+02  0.25511792650E+02  0.00000000000E+00 0.  1.
         14    1    4    4    0    0 -0.18479218193E+01 -0.51095399874E+02 -0.16645905518E+03  0.17413434972E+03  0.00000000000E+00 0. -1.
         -5    1    5    5    0  502  0.11088846088E+03 -0.45046491066E+02  0.47546165022E+02  0.12887266941E+03  0.47000000000E+01 0.  1.
         11    1    6    6    0    0 -0.28798198800E+02  0.17613021070E+02  0.20232938836E+02  0.39356404553E+02  0.00000000000E+00 0. -1.
        -12    1    6    6    0    0  0.45192151489E+02  0.27187950548E+02 -0.11357324759E+02  0.53949087451E+02  0.00000000000E+00 0.  1.
</event>
<event>
12    1  0.1630640E-001  0.1761530E+03  0.7818608E-02  0.1171583E+00
         21   -1    0    0  501  502  0.00000000000E+00  0.00000000000E+00  0.30969794961E+03  0.30969794961E+03  0.00000000000E+00 0. -1.
         21   -1    0    0  502  503 -0.00000000000E+00 -0.00000000000E+00 -0.10081253189E+03  0.10081253189E+03  0.00000000000E+00 0. -1.
         -6    2    1    2    0  503  0.31931837803E+02 -0.12029422353E+02  0.88254701576E+02  0.19701191226E+03  0.17280177069E+03 0.  0.
        -24    2    3    3    0    0  0.52093472292E+02 -0.66102779348E+02  0.75842298412E+02  0.13779555308E+03  0.78436298525E+02 0.  0.
          6    2    1    2  501    0 -0.31931837803E+02  0.12029422353E+02  0.12063071614E+03  0.21349856925E+03  0.17281643477E+03 0.  0.
         24    2    5    5    0    0  0.14860395972E+02 -0.45130517515E+02  0.98336435810E+02  0.13619464436E+03  0.81371564844E+02 0.  0.
          5    1    5    5  501    0 -0.46792233775E+02  0.57159939868E+02  0.22294280329E+02  0.77303924886E+02  0.47000000000E+01 0. -1.
        -13    1    6    6    0    0  0.22925459005E+02 -0.63744303515E+02  0.51312526816E+02  0.84981693967E+02  0.00000000000E+00 0.  1.
         14    1    6    6    0    0 -0.80650630327E+01  0.18613786000E+02  0.47023908993E+02  0.51212950393E+02  0.00000000000E+00 0. -1.
         -5    1    3    3    0  503 -0.20161634490E+02  0.54073356995E+02  0.12412403164E+02  0.59216359179E+02  0.47000000000E+01 0.  1.
         13    1    4    4    0    0 -0.13764669960E+02 -0.57019169310E+01  0.37879418418E+02  0.40704156243E+02  0.00000000000E+00 0. -1.
        -14    1    4    4    0    0  0.65858142253E+02 -0.60400862417E+02  0.37962879994E+02  0.97091396834E+02  0.00000000000E+00 0.  1.
</event>
<event>
12    1  0.1630640E-001  0.1988323E+03  0.7818608E-02  0.1151532E+00
         21   -1    0    0  501  502  0.00000000000E+00  0.00000000000E+00  0.63675860140E+02  0.63675860140E+02  0.00000000000E+00 0. -1.
         21   -1    0    0  502  503 -0.00000000000E+00 -0.00000000000E+00 -0.74977126929E+03  0.74977126929E+03  0.00000000000E+00 0. -1.
         -6    2    1    2    0  503 -0.79458170622E+02 -0.47645743114E+02 -0.51648060416E+03  0.55209781868E+03  0.17168596100E+03 0.  0.
        -24    2    3    3    0    0 -0.10841366279E+03 -0.61384996585E+02 -0.31489239116E+03  0.34792366451E+03  0.79824922359E+02 0.  0.
          6    2    1    2  501    0  0.79458170622E+02  0.47645743114E+02 -0.16961480499E+03  0.26134931075E+03  0.17592771936E+03 0.  0.
         24    2    5    5    0    0  0.15935042664E+01  0.24839364757E+02 -0.15877624792E+03  0.17935783875E+03  0.79622886918E+02 0.  0.
          5    1    5    5  501    0  0.77864666355E+02  0.22806378356E+02 -0.10838557069E+02  0.81991471994E+02  0.47000000000E+01 0. -1.
        -11    1    6    6    0    0 -0.23372097108E+02  0.13085460322E+02 -0.10883014810E+02  0.28912353872E+02  0.00000000000E+00 0.  1.
         12    1    6    6    0    0  0.24965601374E+02  0.11753904435E+02 -0.14789323311E+03  0.15044548488E+03  0.00000000000E+00 0. -1.
         -5    1    3    3    0  503  0.28955492164E+02  0.13739253471E+02 -0.20158821300E+03  0.20417415417E+03  0.47000000000E+01 0.  1.
         11    1    4    4    0    0 -0.54175915272E+01 -0.76315425610E+01 -0.12472468346E+03  0.12507532692E+03  0.00000000000E+00 0. -1.
        -12    1    4    4    0    0 -0.10299607126E+03 -0.53753454024E+02 -0.19016770771E+03  0.22284833759E+03  0.00000000000E+00 0.  1.
</event>
<event>
12    1  0.1630640E-001  0.1733095E+03  0.7818608E-02  0.1174634E+00
         21   -1    0    0  501  502  0.00000000000E+00  0.00000000000E+00  0.14308744641E+03  0.14308744641E+03  0.00000000000E+00 0.  1.
         21   -1    0    0  502  503 -0.00000000000E+00 -0.00000000000E+00 -0.25856386110E+03  0.25856386110E+03  0.00000000000E+00 0.  1.
         -6    2    1    2    0  503  0.92678021429E+01  0.56056991711E+01 -0.14556669771E+03  0.22574905684E+03  0.17220817972E+03 0.  0.
        -24    2    3    3    0    0  0.35444485438E+02  0.56237242681E+02 -0.53514512568E+02  0.11737716595E+03  0.80589434903E+02 0.  0.
          6    2    1    2  501    0 -0.92678021429E+01 -0.56056991711E+01  0.30090283020E+02  0.17590225066E+03  0.17297069300E+03 0.  0.
         24    2    5    5    0    0 -0.47368315369E+02  0.35521540672E+02  0.56553359698E+02  0.11372923889E+03  0.78933643861E+02 0.  0.
          5    1    5    5  501    0  0.38100513226E+02 -0.41127239843E+02 -0.26463076678E+02  0.62173011769E+02  0.47000000000E+01 0. -1.
        -13    1    6    6    0    0 -0.29143202017E+02  0.58348262186E+02  0.53506228935E+02  0.84360905986E+02  0.00000000000E+00 0.  1.
         14    1    6    6    0    0 -0.18225113352E+02 -0.22826721514E+02  0.30471307627E+01  0.29368332906E+02  0.00000000000E+00 0. -1.
         -5    1    3    3    0  503 -0.26176683295E+02 -0.50631543510E+02 -0.92052185143E+02  0.10837189089E+03  0.47000000000E+01 0.  1.
         13    1    4    4    0    0 -0.18851897743E+02  0.39817341878E+02 -0.82832122692E+01  0.44826625662E+02  0.00000000000E+00 0. -1.
        -14    1    4    4    0    0  0.54296383181E+02  0.16419900803E+02 -0.45231300299E+02  0.72550540285E+02  0.00000000000E+00 0.  1.
</event>
<event>
12    1  0.1630640E-001  0.1999068E+03  0.7818608E-02  0.1149834E+00
         21   -1    0    0  501  502  0.00000000000E+00  0.00000000000E+00  0.17061103897E+03  0.17061103897E+03  0.00000000000E+00 0.  1.
         21   -1    0    0  502  503 -0.00000000000E+00 -0.00000000000E+00 -0.30284695747E+03  0.30284695747E+03  0.00000000000E+00 0.  1.
         -6    2    1    2    0  503 -0.81095689356E+02  0.62050470574E+02 -0.17886248925E+03  0.26818562235E+03  0.17177009706E+03 0.  0.
        -24    2    3    3    0    0 -0.56403651496E+02  0.98810113423E+02 -0.81572094712E+02  0.16118805721E+03  0.79892257041E+02 0.  0.
          6    2    1    2  501    0  0.81095689356E+02 -0.62050470574E+02  0.46626570756E+02  0.20527237409E+03  0.17186023022E+03 0.  0.
         24    2    5    5    0    0  0.11949259785E+03 -0.59382815823E+02  0.57654268075E+02  0.16495936041E+03  0.77992154757E+02 0.  0.
          5    1    5    5  501    0 -0.38396908492E+02 -0.26676547508E+01 -0.11027697320E+02  0.40313013678E+02  0.47000000000E+01 0. -1.
        -11    1    6    6    0    0  0.10792405162E+03 -0.25227773104E+02  0.19636500925E+02  0.11255946705E+03  0.00000000000E+00 0.  1.
         12    1    6    6    0    0  0.11568546228E+02 -0.34155042719E+02  0.38017767150E+02  0.52399893359E+02  0.00000000000E+00 0. -1.
         -5    1    3    3    0  503 -0.24692037860E+02 -0.36759642849E+02 -0.97290394539E+02  0.10699756514E+03  0.47000000000E+01 0.  1.
         13    1    4    4    0    0 -0.56240731638E+02  0.28269918984E+02 -0.16161312509E+02  0.64987662187E+02  0.00000000000E+00 0. -1.
        -14    1    4    4    0    0 -0.16291985807E+00  0.70540194438E+02 -0.65410782203E+02  0.96200395023E+02  0.00000000000E+00 0.  1.
</event>
<event>
12    1  0.1630640E-001  0.2247254E+03  0.7818608E-02  0.1130961E+00
         21   -1    0    0  503  502  0.00000000000E+00  0.00000000000E+00  0.76735346532E+03  0.76735346532E+03  0.00000000000E+00 0.  1.
         21   -1    0    0  501  503 -0.00000000000E+00 -0.00000000000E+00 -0.91478664646E+02  0.91478664646E+02  0.00000000000E+00 0.  1.
          6    2    1    2  501    0  0.67954620130E+02 -0.11791069101E+03  0.10497489530E+03  0.24529467449E+03  0.17501139174E+03 0.  0.
         24    2    3    3    0    0  0.18482125398E+02 -0.14414918677E+03  0.75895056950E+02  0.18201977115E+03  0.79060485790E+02 0.  0.
         -6    2    1    2    0  502 -0.67954620130E+02  0.11791069101E+03  0.57089990537E+03  0.61353745547E+03  0.17883161316E+03 0.  0.
        -24    2    5    5    0    0 -0.10336891838E+02 -0.70891407653E+01  0.18098198446E+03  0.20001256432E+03  0.84222561925E+02 0.  0.
          5    1    3    3  501    0  0.49472494732E+02  0.26238495758E+02  0.29079838354E+02  0.63274903345E+02  0.47000000000E+01 0. -1.
        -13    1    4    4    0    0 -0.20883983849E+02 -0.39438008103E+02 -0.36198416650E+01  0.44772765362E+02  0.00000000000E+00 0.  1.
         14    1    4    4    0    0  0.39366109246E+02 -0.10471117867E+03  0.79514898615E+02  0.13724700578E+03  0.00000000000E+00 0. -1.
         -5    1    5    5    0  502 -0.57617728292E+02  0.12499983178E+03  0.38991792091E+03  0.41352489115E+03  0.47000000000E+01 0.  1.
         13    1    6    6    0    0 -0.45243478442E+02 -0.15265668919E+02  0.84101655090E+02  0.96711433543E+02  0.00000000000E+00 0. -1.
        -14    1    6    6    0    0  0.34906586604E+02  0.81765281532E+01  0.96880329370E+02  0.10330113078E+03  0.00000000000E+00 0.  1.
</event>
<event>
12    1  0.1630640E-001  0.1785626E+03  0.7818608E-02  0.1169408E+00
         21   -1    0    0  503  502  0.00000000000E+00  0.00000000000E+00  0.58151252970E+03  0.58151252970E+03  0.00000000000E+00 0. -1.
         21   -1    0    0  501  503 -0.00000000000E+00 -0.00000000000E+00 -0.12336860046E+03  0.12336860046E+03  0.00000000000E+00 0.  1.
          6    2    1    2  501    0 -0.22133752552E+02 -0.38686048802E+02 -0.34356281432E+02  0.18100990595E+03  0.17203987504E+03 0.  0.
         24    2    3    3    0    0  0.25365218768E+02  0.39749400754E+01 -0.68185405022E+02  0.10860402324E+03  0.80538127209E+02 0.  0.
         -6    2    1    2    0  502  0.22133752552E+02  0.38686048802E+02  0.49250021067E+03  0.52387122420E+03  0.17291063782E+03 0.  0.
        -24    2    5    5    0    0 -0.11522150382E+02  0.69561770058E+02  0.16155364504E+03  0.18975485336E+03  0.70254710487E+02 0.  0.
          5    1    3    3  501    0 -0.47498971320E+02 -0.42660988877E+02  0.33829123590E+02  0.72405882712E+02  0.47000000000E+01 0. -1.
        -11    1    4    4    0    0  0.48564288627E+02 -0.16615656747E+02 -0.53978269914E+02  0.74486400114E+02  0.00000000000E+00 0.  1.
         12    1    4    4    0    0 -0.23199069859E+02  0.20590596823E+02 -0.14207135108E+02  0.34117623127E+02  0.00000000000E+00 0. -1.
         -5    1    5    5    0  502  0.33655902934E+02 -0.30875721256E+02  0.33094656563E+03  0.33411637085E+03  0.47000000000E+01 0.  1.
         11    1    6    6    0    0 -0.12903003064E+02  0.21221230772E+02  0.42649660132E+01  0.25199564651E+02  0.00000000000E+00 0. -1.
        -12    1    6    6    0    0  0.13808526821E+01  0.48340539287E+02  0.15728867902E+03  0.16455528871E+03  0.00000000000E+00 0.  1.
</event>
<event>
12    1  0.1630640E-001  0.4220608E+03  0.7818608E-02  0.1036466E+00
         21   -1    0    0  501  502  0.00000000000E+00  0.00000000000E+00  0.85241206147E+03  0.85241206147E+03  0.00000000000E+00 0. -1.
         21   -1    0    0  502  503 -0.00000000000E+00 -0.00000000000E+00 -0.28207876040E+03  0.28207876040E+03  0.00000000000E+00 0.  1.
         -6    2    1    2    0  503 -0.13405330387E+03  0.36093455693E+03 -0.42102288167E+01  0.42208184247E+03  0.17289104387E+03 0.  0.
        -24    2    3    3    0    0 -0.93399340947E+02  0.13200985325E+03  0.41887839797E+02  0.18500298093E+03  0.79507695148E+02 0.  0.
          6    2    1    2  501    0  0.13405330387E+03 -0.36093455693E+03  0.57454352988E+03  0.71240897940E+03  0.17082811106E+03 0.  0.
         24    2    5    5    0    0  0.80741094239E+02 -0.10261131540E+03  0.16444362932E+03  0.22478503899E+03  0.80239642226E+02 0.  0.
          5    1    5    5  501    0  0.53312209631E+02 -0.25832324153E+03  0.41009990057E+03  0.48762394040E+03  0.47000000000E+01 0. -1.
        -13    1    6    6    0    0  0.70350194355E+02 -0.97393506875E+02  0.91759835585E+02  0.15117708971E+03  0.00000000000E+00 0.  1.
         14    1    6    6    0    0  0.10390899884E+02 -0.52178085294E+01  0.72683793731E+02  0.73607949281E+02  0.00000000000E+00 0. -1.
         -5    1    3    3    0  503 -0.40653962922E+02  0.22892470368E+03 -0.46098068614E+02  0.23707886154E+03  0.47000000000E+01 0.  1.
         11    1    4    4    0    0  0.11325556990E+02  0.24780629998E+02  0.19385276292E+02  0.33438552617E+02  0.00000000000E+00 0. -1.
        -12    1    4    4    0    0 -0.10472489794E+03  0.10722922325E+03  0.22502563505E+02  0.15156442832E+03  0.00000000000E+00 0.  1.
</event>
<event>
12    1  0.1630640E-001  0.2731063E+03  0.7818608E-02  0.1099708E+00
         21   -1    0    0  503  502  0.00000000000E+00  0.00000000000E+00  0.60051622829E+03  0.60051622829E+03  0.00000000000E+00 0.  1.
         21   -1    0    0  501  503 -0.00000000000E+00 -0.00000000000E+00 -0.12557304713E+03  0.12557304713E+03  0.00000000000E+00 0. -1.
          6    2    1    2  501    0 -0.13172144472E+03 -0.16569791088E+03  0.19236116879E+03  0.33405068577E+03  0.17257086872E+03 0.  0.
         24    2    3    3    0    0 -0.11123333085E+02 -0.50761342209E+02  0.32800916962E+02  0.10332166004E+03  0.83060356837E+02 0.  0.
         -6    2    1    2    0  502  0.13172144472E+03  0.16569791088E+03  0.28258201236E+03  0.39203858965E+03  0.17039755102E+03 0.  0.
        -24    2    5    5    0    0 -0.15503473862E+01  0.40561718231E+02  0.81161203036E+02  0.11998552550E+03  0.78496680746E+02 0.  0.
          5    1    3    3  501    0 -0.12059811164E+03 -0.11493656867E+03  0.15956025183E+03  0.23072902573E+03  0.47000000000E+01 0. -1.
        -11    1    4    4    0    0  0.17982390247E+02 -0.12793043946E+02  0.48242510301E+02  0.53050618588E+02  0.00000000000E+00 0.  1.
         12    1    4    4    0    0 -0.29105723332E+02 -0.37968298263E+02 -0.15441593340E+02  0.50271041451E+02  0.00000000000E+00 0. -1.
         -5    1    5    5    0  502  0.13327179211E+03  0.12513619265E+03  0.20142080933E+03  0.27205306415E+03  0.47000000000E+01 0.  1.
         11    1    6    6    0    0  0.31348634459E+02  0.23104748980E+02  0.10861132802E+02  0.40429327395E+02  0.00000000000E+00 0. -1.
        -12    1    6    6    0    0 -0.32898981845E+02  0.17456969251E+02  0.70300070234E+02  0.79556198104E+02  0.00000000000E+00 0.  1.
</event>
<event>
12    1  0.1630640E-001  0.1753102E+03  0.7818608E-02  0.1172670E+00
         21   -1    0    0  503  502  0.00000000000E+00  0.00000000000E+00  0.34279800391E+03  0.34279800391E+03  0.00000000000E+00 0. -1.
         21   -1    0    0  501  503 -0.00000000000E+00 -0.00000000000E+00 -0.23244797376E+03  0.23244797376E+03  0.00000000000E+00 0. -1.
          6    2    1    2  501    0 -0.24301050636E+02 -0.42446869141E+01 -0.17059502289E+03  0.24461463162E+03  0.17356583114E+03 0.  0.
         24    2    3    3    0    0  0.14619758375E+02 -0.46013310868E+02 -0.85367453053E+02  0.14192443744E+03  0.10258646007E+03 0.  0.
         -6    2    1    2    0  502  0.24301050636E+02  0.42446869141E+01  0.28094505304E+03  0.33063134605E+03  0.17256420757E+03 0.  0.
        -24    2    5    5    0    0  0.82563675831E+02 -0.45466086140E+01  0.19205597043E+03  0.22388314054E+03  0.80004578768E+02 0.  0.
          5    1    3    3  501    0 -0.38920809011E+02  0.41768623954E+02 -0.85227569834E+02  0.10269019418E+03  0.47000000000E+01 0. -1.
        -13    1    4    4    0    0  0.31021573674E+02  0.19040512641E+02 -0.42322078176E+01  0.36644109184E+02  0.00000000000E+00 0.  1.
         14    1    4    4    0    0 -0.16401815299E+02 -0.65053823509E+02 -0.81135245235E+02  0.10528032826E+03  0.00000000000E+00 0. -1.
         -5    1    5    5    0  502 -0.58262625195E+02  0.87912955281E+01  0.88889082606E+02  0.10674820550E+03  0.47000000000E+01 0.  1.
         13    1    6    6    0    0  0.86740523508E+02 -0.25782278622E+02  0.13193995613E+03  0.15998998823E+03  0.00000000000E+00 0. -1.
        -14    1    6    6    0    0 -0.41768476766E+01  0.21235670008E+02  0.60116014302E+02  0.63893152315E+02  0.00000000000E+00 0.  1.
</event>
<event>
12    1  0.1630640E-001  0.1770303E+03  0.7818608E-02  0.1170774E+00
         21   -1    0    0  501  502  0.00000000000E+00  0.00000000000E+00  0.26736741238E+03  0.26736741238E+03  0.00000000000E+00 0. -1.
         21   -1    0    0  502  503 -0.00000000000E+00 -0.00000000000E+00 -0.12054127727E+03  0.12054127727E+03  0.00000000000E+00 0. -1.
         -6    2    1    2    0  503  0.38151090297E+02 -0.18950712703E+02  0.10641353646E+03  0.20632422627E+03  0.17155526924E+03 0.  0.
        -24    2    3    3    0    0  0.69845050468E+02 -0.19960763999E+02  0.12868926177E+03  0.16728802188E+03  0.78406587703E+02 0.  0.
          6    2    1    2  501    0 -0.38151090297E+02  0.18950712703E+02  0.40412598647E+02  0.18158446337E+03  0.17182870542E+03 0.  0.
         24    2    5    5    0    0 -0.50547259153E+02  0.34409063069E+02 -0.33102066446E+02  0.10530129628E+03  0.79079751931E+02 0.  0.
          5    1    5    5  501    0  0.12396168856E+02 -0.15458350365E+02  0.73514665094E+02  0.76283167096E+02  0.47000000000E+01 0. -1.
        -13    1    6    6    0    0  0.20317640104E+02  0.67434981958E+01  0.20367893823E+01  0.21504180484E+02  0.00000000000E+00 0.  1.
         14    1    6    6    0    0 -0.70864899257E+02  0.27665564873E+02 -0.35138855829E+02  0.83797115794E+02  0.00000000000E+00 0. -1.
         -5    1    3    3    0  503 -0.31693960171E+02  0.10100512954E+01 -0.22275725314E+02  0.39036204390E+02  0.47000000000E+01 0.  1.
         13    1    4    4    0    0  0.56624488134E+02 -0.14583429900E+02  0.26656328714E+02  0.64261722235E+02  0.00000000000E+00 0. -1.
        -14    1    4    4    0    0  0.13220562334E+02 -0.53773340990E+01  0.10203293306E+03  0.10302629965E+03  0.00000000000E+00 0.  1.
</event>
<event>
12    1  0.1630640E-001  0.4893433E+03  0.7818608E-02  0.1016629E+00
         21   -1    0    0  503  502  0.00000000000E+00  0.00000000000E+00  0.42973960900E+03  0.42973960900E+03  0.00000000000E+00 0.  1.
         21   -1    0    0  501  503 -0.00000000000E+00 -0.00000000000E+00 -0.62173354311E+03  0.62173354311E+03  0.00000000000E+00 0. -1.
          6    2    1    2  501    0 -0.39108861269E+03  0.23924147121E+03 -0.26606481474E+03  0.55699855258E+03  0.17108511743E+03 0.  0.
         24    2    3    3    0    0 -0.33135941984E+03  0.18892799756E+03 -0.15044713375E+03  0.41739711897E+03  0.78058705384E+02 0.  0.
         -6    2    1    2    0  502  0.39108861269E+03 -0.23924147121E+03  0.74070880634E+02  0.49447459954E+03  0.16979943967E+03 0.  0.
        -24    2    5    5    0    0  0.13934133413E+03 -0.84755414219E+02  0.80790848175E+02  0.19899214316E+03  0.80443919927E+02 0.  0.
          5    1    3    3  501    0 -0.59729192847E+02  0.50313473646E+02 -0.11561768099E+03  0.13960143361E+03  0.47000000000E+01 0. -1.
        -11    1    4    4    0    0 -0.23704457571E+02  0.29929111800E+02  0.36396624303E+01  0.38352316547E+02  0.00000000000E+00 0.  1.
         12    1    4    4    0    0 -0.30765496227E+03  0.15899888576E+03 -0.15408679618E+03  0.37904480242E+03  0.00000000000E+00 0. -1.
         -5    1    5    5    0  502  0.25174727856E+03 -0.15448605699E+03 -0.67199675411E+01  0.29548245638E+03  0.47000000000E+01 0.  1.
         13    1    6    6    0    0  0.99217725080E+02 -0.94101978165E+02  0.78624005184E+02  0.15773735593E+03  0.00000000000E+00 0. -1.
        -14    1    6    6    0    0  0.40123609047E+02  0.93465639454E+01  0.21668429912E+01  0.41254787226E+02  0.00000000000E+00 0.  1.
</event>
<event>
12    1  0.1630640E-001  0.2312677E+03  0.7818608E-02  0.1125766E+00
         21   -1    0    0  501  502  0.00000000000E+00  0.00000000000E+00  0.11093389513E+04  0.11093389513E+04  0.00000000000E+00 0.  1.
         21   -1    0    0  502  503 -0.00000000000E+00 -0.00000000000E+00 -0.61482503963E+02  0.61482503963E+02  0.00000000000E+00 0. -1.
         -6    2    1    2    0  503 -0.12399259642E+03  0.92199153872E+02  0.25185561705E+03  0.34192978610E+03  0.17207521275E+03 0.  0.
        -24    2    3    3    0    0 -0.46589868280E+02  0.10636614455E+03  0.10668547757E+03  0.17673794204E+03  0.79813134889E+02 0.  0.
          6    2    1    2  501    0  0.12399259642E+03 -0.92199153872E+02  0.79600083032E+03  0.82889166919E+03  0.17195705696E+03 0.  0.
         24    2    5    5    0    0 -0.83476474457E+00 -0.12956371603E+02  0.34128332874E+03  0.35071661246E+03  0.79745014765E+02 0.  0.
          5    1    5    5  501    0  0.12482736117E+03 -0.79242782269E+02  0.45471750157E+03  0.47817505673E+03  0.47000000000E+01 0. -1.
        -13    1    6    6    0    0  0.18567174723E+02  0.27564943504E+02  0.10281605377E+03  0.10805418549E+03  0.00000000000E+00 0.  1.
         14    1    6    6    0    0 -0.19401939468E+02 -0.40521315107E+02  0.23846727497E+03  0.24266242697E+03  0.00000000000E+00 0. -1.
         -5    1    3    3    0  503 -0.77402728145E+02 -0.14166990674E+02  0.14517013948E+03  0.16519184406E+03  0.47000000000E+01 0.  1.
         13    1    4    4    0    0 -0.39138859055E+02  0.67554648857E+02  0.11235005481E+03  0.13681379933E+03  0.00000000000E+00 0. -1.
        -14    1    4    4    0    0 -0.74510092246E+01  0.38811495689E+02 -0.56645772418E+01  0.39924142713E+02  0.00000000000E+00 0.  1.
</event>
<event>
12    1  0.1630640E-001  0.1855167E+03  0.7818608E-02  0.1162844E+00
         21   -1    0    0  501  502  0.00000000000E+00  0.00000000000E+00  0.32346996032E+03  0.32346996032E+03  0.00000000000E+00 0.  1.
         21   -1    0    0  502  503 -0.00000000000E+00 -0.00000000000E+00 -0.10737471774E+03  0.10737471774E+03  0.00000000000E+00 0.  1.
         -6    2    1    2    0  503  0.20206980140E+02  0.66060246850E+02  0.13511427386E+03  0.22950449893E+03  0.17217482327E+03 0.  0.
        -24    2    3    3    0    0 -0.11338128974E+01  0.10965509581E+03  0.88764846636E+02  0.16222671874E+03  0.80079864543E+02 0.  0.
          6    2    1    2  501    0 -0.20206980140E+02 -0.66060246850E+02  0.80980968723E+02  0.20134017912E+03  0.17090252243E+03 0.  0.
         24    2    5    5    0    0 -0.60952870869E+02 -0.33026786263E+02  0.98805588906E+02  0.14574122037E+03  0.81681930916E+02 0.  0.
          5    1    5    5  501    0  0.40745890729E+02 -0.33033460588E+02 -0.17824620183E+02  0.55598958753E+02  0.47000000000E+01 0. -1.
        -11    1    6    6    0    0 -0.21518664820E+01 -0.39923487258E+02  0.68296020447E+02  0.79138244694E+02  0.00000000000E+00 0.  1.
         12    1    6    6    0    0 -0.58801004387E+02  0.68967009958E+01  0.30509568459E+02  0.66602975678E+02  0.00000000000E+00 0. -1.
         -5    1    3    3    0  503  0.21340793037E+02 -0.43594848964E+02  0.46349427227E+02  0.67277780194E+02  0.47000000000E+01 0.  1.
         11    1    4    4    0    0 -0.37953240059E+02  0.40035041734E+02  0.49972370829E+02  0.74434473491E+02  0.00000000000E+00 0. -1.
        -12    1    4    4    0    0  0.36819427161E+02  0.69620054080E+02  0.38792475806E+02  0.87792245249E+02  0.00000000000E+00 0.  1.
</event>
<event>
12    1  0.1630640E-001  0.2142399E+03  0.7818608E-02  0.1138380E+00
         21   -1    0    0  501  502  0.00000000000E+00  0.00000000000E+00  0.93664274050E+02  0.93664274050E+02  0.00000000000E+00 0.  1.
         21   -1    0    0  502  503 -0.00000000000E+00 -0.00000000000E+00 -0.52455895640E+03  0.52455895640E+03  0.00000000000E+00 0.  1.
         -6    2    1    2    0  503  0.86047417833E+02  0.92416468246E+02 -0.29678210289E+03  0.36603052961E+03  0.17307157562E+03 0.  0.
        -24    2    3    3    0    0  0.73685506891E+02  0.12483469127E+03 -0.29116500754E+03  0.33057069618E+03  0.59048026972E+02 0.  0.
          6    2    1    2  501    0 -0.86047417833E+02 -0.92416468246E+02 -0.13411257945E+03  0.25219270084E+03  0.17224985535E+03 0.  0.
         24    2    5    5    0    0 -0.26070969273E+02  0.51440888339E+01 -0.13543975972E+02  0.85837313715E+02  0.80488806998E+02 0.  0.
          5    1    5    5  501    0 -0.59976448560E+02 -0.97560557080E+02 -0.12056860348E+03  0.16635538712E+03  0.47000000000E+01 0. -1.
        -11    1    6    6    0    0 -0.33981695746E+02 -0.18594617719E+02 -0.35503817960E+02  0.52545566355E+02  0.00000000000E+00 0.  1.
         12    1    6    6    0    0  0.79107264726E+01  0.23738706553E+02  0.21959841988E+02  0.33291747360E+02  0.00000000000E+00 0. -1.
         -5    1    3    3    0  503  0.12361910942E+02 -0.32418223026E+02 -0.56170953528E+01  0.35459833424E+02  0.47000000000E+01 0.  1.
         11    1    4    4    0    0 -0.94336873911E+01  0.52333243657E+01 -0.17398118585E+02  0.20471362241E+02  0.00000000000E+00 0. -1.
        -12    1    4    4    0    0  0.83119194282E+02  0.11960136691E+03 -0.27376688896E+03  0.31009933394E+03  0.00000000000E+00 0.  1.
</event>
<event>
12    1  0.1630640E-001  0.2061011E+03  0.7818608E-02  0.1144810E+00
         21   -1    0    0  501  502  0.00000000000E+00  0.00000000000E+00  0.17735012273E+03  0.17735012273E+03  0.00000000000E+00 0. -1.
         21   -1    0    0  502  503 -0.00000000000E+00 -0.00000000000E+00 -0.39581450423E+03  0.39581450423E+03  0.00000000000E+00 0. -1.
         -6    2    1    2    0  503  0.88454140145E+02 -0.69518636710E+02 -0.28961754639E+03  0.35512691595E+03  0.17198787020E+03 0.  0.
        -24    2    3    3    0    0  0.11638888385E+03 -0.46885851992E+02 -0.15037202401E+03  0.21123807568E+03  0.79152533839E+02 0.  0.
          6    2    1    2  501    0 -0.88454140145E+02  0.69518636710E+02  0.71153164880E+02  0.21803771102E+03  0.17268669547E+03 0.  0.
         24    2    5    5    0    0 -0.69537359754E+02 -0.23236233937E+02  0.22478274222E+02  0.11148891661E+03  0.80926749258E+02 0.  0.
          5    1    5    5  501    0 -0.18916780392E+02  0.92754870647E+02  0.48674890657E+02  0.10654879441E+03  0.47000000000E+01 0. -1.
        -11    1    6    6    0    0 -0.31427798765E+02 -0.35734615299E+02 -0.21281320263E+02  0.52130258564E+02  0.00000000000E+00 0.  1.
         12    1    6    6    0    0 -0.38109560988E+02  0.12498381362E+02  0.43759594486E+02  0.59358658045E+02  0.00000000000E+00 0. -1.
         -5    1    3    3    0  503 -0.27934743704E+02 -0.22632784718E+02 -0.13924552238E+03  0.14388884026E+03  0.47000000000E+01 0.  1.
         13    1    4    4    0    0  0.43184023206E+02 -0.30336800240E+02 -0.11845834489E+03  0.12968253847E+03  0.00000000000E+00 0. -1.
        -14    1    4    4    0    0  0.73204860644E+02 -0.16549051752E+02 -0.31913679118E+02  0.81555537216E+02  0.00000000000E+00 0.  1.
</event>
<event>
12    1  0.1630640E-001  0.2449604E+03  0.7818608E-02  0.1116562E+00
         21   -1    0    0  503  502  0.00000000000E+00  0.00000000000E+00  0.11677212023E+03  0.11677212023E+03  0.00000000000E+00 0. -1.
         21   -1    0    0  501  503 -0.00000000000E+00 -0.00000000000E+00 -0.79222466633E+03  0.79222466633E+03  0.00000000000E+00 0. -1.
          6    2    1    2  501    0 -0.16052991154E+03 -0.67260187032E+02 -0.68213642200E+02  0.25428073309E+03  0.17237112571E+03 0.  0.
         24    2    3    3    0    0 -0.60383063924E+02 -0.81142243381E+01 -0.92857757301E+02  0.13529729559E+03  0.77271211050E+02 0.  0.
         -6    2    1    2    0  502  0.16052991154E+03  0.67260187032E+02 -0.60723890390E+03  0.65471605346E+03  0.17210531368E+03 0.  0.
        -24    2    5    5    0    0  0.12543931491E+03  0.11117604238E+03 -0.41614710751E+03  0.45547219039E+03  0.78621670105E+02 0.  0.
          5    1    3    3  501    0 -0.10014684761E+03 -0.59145962694E+02  0.24644115101E+02  0.11898343750E+03  0.47000000000E+01 0. -1.
        -13    1    4    4    0    0  0.12823163162E+02 -0.20358612863E+02 -0.19944779429E+02  0.31252213645E+02  0.00000000000E+00 0.  1.
         14    1    4    4    0    0 -0.73206227086E+02  0.12244388525E+02 -0.72912977872E+02  0.10404508194E+03  0.00000000000E+00 0. -1.
         -5    1    5    5    0  502  0.35090596631E+02 -0.43915855352E+02 -0.19109179639E+03  0.19924386307E+03  0.47000000000E+01 0.  1.
         13    1    6    6    0    0  0.95599343738E+02  0.32568814906E+02 -0.23303176089E+03  0.25397591188E+03  0.00000000000E+00 0. -1.
        -14    1    6    6    0    0  0.29839971169E+02  0.78607227478E+02 -0.18311534661E+03  0.20149627852E+03  0.00000000000E+00 0.  1.
</event>
<event>
12    1  0.1630640E-001  0.1889753E+03  0.7818608E-02  0.1159578E+00
         21   -1    0    0  501  502  0.00000000000E+00  0.00000000000E+00  0.33963719685E+03  0.33963719685E+03  0.00000000000E+00 0. -1.
         21   -1    0    0  502  503 -0.00000000000E+00 -0.00000000000E+00 -0.10830366008E+03  0.10830366008E+03  0.00000000000E+00 0. -1.
         -6    2    1    2    0  503 -0.57084665294E+02  0.51612550937E+02  0.74972908768E+02  0.20330418195E+03  0.17259530388E+03 0.  0.
        -24    2    3    3    0    0 -0.10387905539E+03  0.47762200830E+02  0.68330111672E+02  0.15565172248E+03  0.80537994605E+02 0.  0.
          6    2    1    2  501    0  0.57084665294E+02 -0.51612550937E+02  0.15636062800E+03  0.24463667499E+03  0.17168559152E+03 0.  0.
         24    2    5    5    0    0 -0.84153488262E+01 -0.70033721277E+02  0.13770634506E+03  0.17392837534E+03  0.79451255930E+02 0.  0.
          5    1    5    5  501    0  0.65500014121E+02  0.18421170340E+02  0.18654282945E+02  0.70708299645E+02  0.47000000000E+01 0. -1.
        -11    1    6    6    0    0 -0.39933754321E+02 -0.24359844543E+02  0.86900486346E+02  0.98690431590E+02  0.00000000000E+00 0.  1.
         12    1    6    6    0    0  0.31518405495E+02 -0.45673876734E+02  0.50805858710E+02  0.75237943752E+02  0.00000000000E+00 0. -1.
         -5    1    3    3    0  503  0.46794390091E+02  0.38503501067E+01  0.66427970956E+01  0.47652459466E+02  0.47000000000E+01 0.  1.
         13    1    4    4    0    0 -0.25405368467E+02  0.39032172260E+02  0.60438657095E+02  0.76300553666E+02  0.00000000000E+00 0. -1.
        -14    1    4    4    0    0 -0.78473686918E+02  0.87300285702E+01  0.78914545775E+01  0.79351168817E+02  0.00000000000E+00 0.  1.
</event>
<event>
12    1  0.1630640E-001  0.2502278E+03  0.7818608E-02  0.1113271E+00
         21   -1    0    0  503  502  0.00000000000E+00  0.00000000000E+00  0.71532367253E+03  0.71532367253E+03  0.00000000000E+00 0.  1.
         21   -1    0    0  501  503 -0.00000000000E+00 -0.00000000000E+00 -0.99960961677E+02  0.99960961677E+02  0.00000000000E+00 0.  1.
          6    2    1    2  501    0  0.13204462387E+03 -0.12371814225E+03  0.16217009857E+03  0.29759991087E+03  0.17182725239E+03 0.  0.
         24    2    3    3    0    0  0.36831657032E+01 -0.79553270897E+02  0.55052335423E+02  0.12461579314E+03  0.78460484602E+02 0.  0.
         -6    2    1    2    0  502 -0.13204462387E+03  0.12371814225E+03  0.45319261228E+03  0.51768472334E+03  0.17283508769E+03 0.  0.
        -24    2    5    5    0    0 -0.11254926084E+03  0.28242921131E+02  0.34182794924E+03  0.36963147211E+03  0.79473766599E+02 0.  0.
          5    1    3    3  501    0  0.12836145817E+03 -0.44164871349E+02  0.10711776314E+03  0.17298411773E+03  0.47000000000E+01 0. -1.
        -11    1    4    4    0    0  0.88642440377E+01 -0.65137347669E+02  0.74826967645E+02  0.99601827145E+02  0.00000000000E+00 0.  1.
         12    1    4    4    0    0 -0.51810783345E+01 -0.14415923228E+02 -0.19774632222E+02  0.25013965994E+02  0.00000000000E+00 0. -1.
         -5    1    5    5    0  502 -0.19495363029E+02  0.95475221115E+02  0.11136466304E+03  0.14805325123E+03  0.47000000000E+01 0.  1.
         11    1    6    6    0    0 -0.56030712545E+01 -0.11115995454E+02  0.39605898348E+01  0.13063155601E+02  0.00000000000E+00 0. -1.
        -12    1    6    6    0    0 -0.10694618959E+03  0.39358916584E+02  0.33786735941E+03  0.35656831651E+03  0.00000000000E+00 0.  1.
</event>
<event>
12    1  0.1630640E-001  0.2609507E+03  0.7818608E-02  0.1106725E+00
         21   -1    0    0  503  502  0.00000000000E+00  0.00000000000E+00  0.17170485939E+04  0.17170485939E+04  0.00000000000E+00 0. -1.
         21   -1    0    0  501  503 -0.00000000000E+00 -0.00000000000E+00 -0.57054799195E+02  0.57054799195E+02  0.00000000000E+00 0. -1.
          6    2    1    2  501    0 -0.82679636864E+02  0.17675870821E+03  0.13230788249E+04  0.13485669573E+04  0.17325039143E+03 0.  0.
         24    2    3    3    0    0  0.26099336510E+02  0.66921521309E+02  0.54111834106E+03  0.55145883354E+03  0.78346159281E+02 0.  0.
         -6    2    1    2    0  502  0.82679636864E+02 -0.17675870821E+03  0.33691496981E+03  0.42553643580E+03  0.17172652106E+03 0.  0.
        -24    2    5    5    0    0  0.87447982719E+02 -0.17985183310E+03  0.34967452165E+03  0.41079870508E+03  0.80557268178E+02 0.  0.
          5    1    3    3  501    0 -0.10877897337E+03  0.10983718690E+03  0.78196048381E+03  0.79710812373E+03  0.47000000000E+01 0. -1.
        -13    1    4    4    0    0 -0.23785645459E+02  0.26072641102E+02  0.10938203354E+03  0.11493462839E+03  0.00000000000E+00 0.  1.
         14    1    4    4    0    0  0.49884981969E+02  0.40848880207E+02  0.43173630752E+03  0.43652420514E+03  0.00000000000E+00 0. -1.
         -5    1    5    5    0  502 -0.47683458549E+01  0.30931248898E+01 -0.12759551838E+02  0.14737730724E+02  0.47000000000E+01 0.  1.
         11    1    6    6    0    0  0.23062347187E+02 -0.10960722430E+03  0.13158506704E+03  0.17280117287E+03  0.00000000000E+00 0. -1.
        -12    1    6    6    0    0  0.64385635533E+02 -0.70244608793E+02  0.21808945461E+03  0.23799753221E+03  0.00000000000E+00 0.  1.
</event>
<event>
12    1  0.1630640E-001  0.2071131E+03  0.7818608E-02  0.1144586E+00
         21   -1    0    0  501  502  0.00000000000E+00  0.00000000000E+00  0.93101379315E+02  0.93101379315E+02  0.00000000000E+00 0.  1.
         21   -1    0    0  502  503 -0.00000000000E+00 -0.00000000000E+00 -0.50775349147E+03  0.50775349147E+03  0.00000000000E+00 0.  1.
         -6    2    1    2    0  503  0.10626427796E+03 -0.27659700796E+02 -0.30757560256E+03  0.37080802451E+03  0.17560946426E+03 0.  0.
        -24    2    3    3    0    0  0.12281994026E+03  0.32758174424E+01 -0.30128120343E+03  0.33485241711E+03  0.79122114496E+02 0.  0.
          6    2    1    2  501    0 -0.10626427796E+03  0.27659700796E+02 -0.10707650960E+03  0.23004684627E+03  0.17146141477E+03 0.  0.
         24    2    5    5    0    0 -0.12547004677E+03  0.56991137846E+02 -0.57998523697E+02  0.16954946240E+03  0.79952917518E+02 0.  0.
          5    1    5    5  501    0  0.19205768816E+02 -0.29331437051E+02 -0.49077985903E+02  0.60497383873E+02  0.47000000000E+01 0. -1.
        -11    1    6    6    0    0 -0.82351482075E+02 -0.53886316319E+01 -0.20918156157E+02  0.85137378441E+02  0.00000000000E+00 0.  1.
         12    1    6    6    0    0 -0.43118564697E+02  0.62379769478E+02 -0.37080367540E+02  0.84412083960E+02  0.00000000000E+00 0. -1.
         -5    1    3    3    0  503 -0.16555662305E+02 -0.30935518238E+02 -0.62943991292E+01  0.35955607399E+02  0.47000000000E+01 0.  1.
         11    1    4    4    0    0  0.37334074256E+02 -0.19814068782E+02 -0.17871980508E+03  0.18364966417E+03  0.00000000000E+00 0. -1.
        -12    1    4    4    0    0  0.85485866005E+02  0.23089886224E+02 -0.12256139835E+03  0.15120275294E+03  0.00000000000E+00 0.  1.
</event>
<event>
12    1  0.1630640E-001  0.2181034E+03  0.7818608E-02  0.1135635E+00
         21   -1    0    0  503  502  0.00000000000E+00  0.00000000000E+00  0.83564934243E+03  0.83564934243E+03  0.00000000000E+00 0. -1.
         21   -1    0    0  501  503 -0.00000000000E+00 -0.00000000000E+00 -0.59089690712E+02  0.59089690712E+02  0.00000000000E+00 0. -1.
          6    2    1    2  501    0 -0.11360727845E+03 -0.64687462549E+02  0.29259694629E+03  0.36390101794E+03  0.17239459490E+03 0.  0.
         24    2    3    3    0    0 -0.85574136947E+02 -0.27126389091E+02  0.74442382916E+02  0.14071904111E+03  0.78749007968E+02 0.  0.
         -6    2    1    2    0  502  0.11360727845E+03  0.64687462549E+02  0.48396270543E+03  0.53083801520E+03  0.17457954237E+03 0.  0.
        -24    2    5    5    0    0  0.86924676191E+01  0.34970507808E+02  0.71022402691E+02  0.10371742503E+03  0.66442660695E+02 0.  0.
          5    1    3    3  501    0 -0.28033141505E+02 -0.37561073458E+02  0.21815456338E+03  0.22318197683E+03  0.47000000000E+01 0. -1.
        -11    1    4    4    0    0  0.91715298174E+01 -0.61341825458E+01 -0.78009763763E+01  0.13512971069E+02  0.00000000000E+00 0.  1.
         12    1    4    4    0    0 -0.94745666764E+02 -0.20992206545E+02  0.82243359293E+02  0.12720607004E+03  0.00000000000E+00 0. -1.
         -5    1    5    5    0  502  0.10491481083E+03  0.29716954741E+02  0.41294030274E+03  0.42712059018E+03  0.47000000000E+01 0.  1.
         11    1    6    6    0    0  0.23953102827E+02 -0.15823979121E+01  0.56742470998E+02  0.61611388015E+02  0.00000000000E+00 0. -1.
        -12    1    6    6    0    0 -0.15260635208E+02  0.36552905720E+02  0.14279931693E+02  0.42106037010E+02  0.00000000000E+00 0.  1.
</event>
<event>
12    1  0.1630640E-001  0.1772242E+03  0.7818608E-02  0.1171070E+00
         21   -1    0    0  503  502  0.00000000000E+00  0.00000000000E+00  0.21729843199E+04  0.21729843199E+04  0.00000000000E+00 0. -1.
         21   -1    0    0  501  503 -0.00000000000E+00 -0.00000000000E+00 -0.14443752426E+02  0.14443752426E+02  0.00000000000E+00 0.  1.
          6    2    1    2  501    0 -0.62377039139E+01  0.23907941315E+02  0.11914305410E+04  0.12042138357E+04  0.17324470978E+03 0.  0.
         24    2    3    3    0    0 -0.24062101746E+01  0.64202012657E+02  0.10909235335E+04  0.10957608916E+04  0.80312435763E+02 0.  0.
         -6    2    1    2    0  502  0.62377039139E+01 -0.23907941315E+02  0.96711002642E+03  0.98321423657E+03  0.17549339925E+03 0.  0.
        -24    2    5    5    0    0 -0.15198173734E+02  0.47572784416E+02  0.68949307065E+03  0.69570379305E+03  0.78159573224E+02 0.  0.
          5    1    3    3  501    0 -0.38314937393E+01 -0.40294071342E+02  0.10050700759E+03  0.10845294419E+03  0.47000000000E+01 0. -1.
        -11    1    4    4    0    0 -0.27388821619E+01  0.53848892652E+01  0.39966684016E+01  0.72437466968E+01  0.00000000000E+00 0.  1.
         12    1    4    4    0    0  0.33267198728E+00  0.58817123392E+02  0.10869268651E+04  0.10885171449E+04  0.00000000000E+00 0. -1.
         -5    1    5    5    0  502  0.21435877648E+02 -0.71480725731E+02  0.27761695577E+03  0.28751044352E+03  0.47000000000E+01 0.  1.
         11    1    6    6    0    0 -0.43664454376E+02  0.34004404846E+02  0.30988629552E+03  0.31478945388E+03  0.00000000000E+00 0. -1.
        -12    1    6    6    0    0  0.28466280641E+02  0.13568379569E+02  0.37960677513E+03  0.38091433917E+03  0.00000000000E+00 0.  1.
</event>
<event>
12    1  0.1630640E-001  0.1829413E+03  0.7818608E-02  0.1165508E+00
         21   -1    0    0  503  502  0.00000000000E+00  0.00000000000E+00  0.73423009771E+02  0.73423009771E+02  0.00000000000E+00 0.  1.
         21   -1    0    0  501  503 -0.00000000000E+00 -0.00000000000E+00 -0.13172791733E+04  0.13172791733E+04  0.00000000000E+00 0.  1.
          6    2    1    2  501    0 -0.52287734400E+02 -0.29752753988E+01 -0.11872965668E+04  0.12013078870E+04  0.17528446145E+03 0.  0.
         24    2    3    3    0    0 -0.95037085601E+02  0.32407793887E+02 -0.80526808422E+03  0.81524141589E+03  0.77971571588E+02 0.  0.
         -6    2    1    2    0  502  0.52287734400E+02  0.29752753988E+01 -0.56559596748E+02  0.18939429608E+03  0.17299812707E+03 0.  0.
        -24    2    5    5    0    0 -0.16272451021E+02  0.35623176738E+02  0.24894763983E+01  0.93086105743E+02  0.84409846621E+02 0.  0.
          5    1    3    3  501    0  0.42749351202E+02 -0.35383069286E+02 -0.38202848258E+03  0.38606647112E+03  0.47000000000E+01 0. -1.
        -11    1    4    4    0    0 -0.60402725985E+01 -0.20289002865E+02 -0.85577951760E+02  0.88157327306E+02  0.00000000000E+00 0.  1.
         12    1    4    4    0    0 -0.88996813003E+02  0.52696796752E+02 -0.71969013245E+03  0.72708408858E+03  0.00000000000E+00 0. -1.
         -5    1    5    5    0  502  0.68560185420E+02 -0.32647901339E+02 -0.59049073146E+02  0.96308190338E+02  0.47000000000E+01 0.  1.
         11    1    6    6    0    0 -0.22368628712E+02 -0.14346646945E+02 -0.24345422470E+02  0.36039997562E+02  0.00000000000E+00 0. -1.
        -12    1    6    6    0    0  0.60961776911E+01  0.49969823683E+02  0.26834898868E+02  0.57046108181E+02  0.00000000000E+00 0.  1.
</event>
<event>
12    1  0.1630640E-001  0.1839475E+03  0.7818608E-02  0.1164127E+00
         21   -1    0    0  503  502  0.00000000000E+00  0.00000000000E+00  0.98698871789E+02  0.98698871789E+02  0.00000000000E+00 0.  1.
         21   -1    0    0  501  503 -0.00000000000E+00 -0.00000000000E+00 -0.74028546834E+03  0.74028546834E+03  0.00000000000E+00 0.  1.
          6    2    1    2  501    0  0.64766824971E+02  0.79364616747E+01 -0.62860081904E+03  0.65496234468E+03  0.17198533137E+03 0.  0.
         24    2    3    3    0    0  0.90337649895E+02 -0.14026066816E+01 -0.27416734441E+03  0.29945388736E+03  0.79636923721E+02 0.  0.
         -6    2    1    2    0  502 -0.64766824971E+02 -0.79364616747E+01 -0.12985777505E+02  0.18402199545E+03  0.17157428523E+03 0.  0.
        -24    2    5    5    0    0 -0.10604491724E+03  0.17387476049E+02 -0.19365951589E+02  0.13495082933E+03  0.79302190771E+02 0.  0.
          5    1    3    3  501    0 -0.25570824924E+02  0.93390683563E+01 -0.35443347463E+03  0.35550845732E+03  0.47000000000E+01 0. -1.
        -11    1    4    4    0    0  0.88681869482E+02  0.74218895273E+01 -0.27625570609E+03  0.29023572069E+03  0.00000000000E+00 0.  1.
         12    1    4    4    0    0  0.16557804133E+01 -0.88244962090E+01  0.20883616830E+01  0.92181666636E+01  0.00000000000E+00 0. -1.
         -5    1    5    5    0  502  0.41278092264E+02 -0.25323937724E+02  0.63801740841E+01  0.49071166118E+02  0.47000000000E+01 0.  1.
         11    1    6    6    0    0 -0.73707746534E+02  0.37122326989E+02 -0.40110794968E+02  0.91759331586E+02  0.00000000000E+00 0. -1.
        -12    1    6    6    0    0 -0.32337170702E+02 -0.19734850940E+02  0.20744843378E+02  0.43191497744E+02  0.00000000000E+00 0.  1.
</event>
<event>
12    1  0.1630640E-001  0.2223639E+03  0.7818608E-02  0.1132462E+00
         21   -1    0    0  501  502  0.00000000000E+00  0.00000000000E+00  0.29961944784E+03  0.29961944784E+03  0.00000000000E+00 0. -1.
         21   -1    0    0  502  503 -0.00000000000E+00 -0.00000000000E+00 -0.19408871967E+03  0.19408871967E+03  0.00000000000E+00 0. -1.
         -6    2    1    2    0  503 -0.20796451770E+02  0.13702050660E+03 -0.45077544596E+02  0.22514056542E+03  0.17160762668E+03 0.  0.
        -24    2    3    3    0    0 -0.74183439059E+02  0.65387734503E+02 -0.38662662947E+02  0.13544850804E+03  0.84099693048E+02 0.  0.
          6    2    1    2  501    0  0.20796451770E+02 -0.13702050660E+03  0.15060827276E+03  0.26856760209E+03  0.17389247665E+03 0.  0.
         24    2    5    5    0    0 -0.46334294853E+02 -0.31289344638E+02  0.69849605627E+02  0.11947143155E+03  0.79174273499E+02 0.  0.
          5    1    5    5  501    0  0.67130746623E+02 -0.10573116196E+03  0.80758667137E+02  0.14909617054E+03  0.47000000000E+01 0. -1.
        -11    1    6    6    0    0 -0.47974653045E+02  0.14254901398E+02  0.26761551899E+02  0.56753415833E+02  0.00000000000E+00 0.  1.
         12    1    6    6    0    0  0.16403581927E+01 -0.45544246036E+02  0.43088053728E+02  0.62718015722E+02  0.00000000000E+00 0. -1.
         -5    1    3    3    0  503  0.53386987289E+02  0.71632772097E+02 -0.64148816488E+01  0.89692057378E+02  0.47000000000E+01 0.  1.
         13    1    4    4    0    0  0.10613003522E+01  0.50520840126E+02 -0.23478607057E+01  0.50586501118E+02  0.00000000000E+00 0. -1.
        -14    1    4    4    0    0 -0.75244739412E+02  0.14866894377E+02 -0.36314802242E+02  0.84862006925E+02  0.00000000000E+00 0.  1.
</event>
<event>
12    1  0.1630640E-001  0.2126747E+03  0.7818608E-02  0.1140101E+00
         21   -1    0    0  501  502  0.00000000000E+00  0.00000000000E+00  0.15679966643E+03  0.15679966643E+03  0.00000000000E+00 0. -1.
         21   -1    0    0  502  503 -0.00000000000E+00 -0.00000000000E+00 -0.30583587291E+03  0.30583587291E+03  0.00000000000E+00 0. -1.
         -6    2    1    2    0  503  0.41807309266E+02 -0.11019861315E+03 -0.12299857718E+02  0.20979692795E+03  0.17312388348E+03 0.  0.
        -24    2    3    3    0    0  0.69078935204E+02 -0.12076722204E+03 -0.44008813475E+02  0.16640355346E+03  0.79979658226E+02 0.  0.
          6    2    1    2  501    0 -0.41807309266E+02  0.11019861315E+03 -0.13673634877E+03  0.25283861139E+03  0.17702810197E+03 0.  0.
         24    2    5    5    0    0 -0.66216237579E+02  0.52793981587E+02 -0.14964494259E+03  0.18896522647E+03  0.78373805325E+02 0.  0.
          5    1    5    5  501    0  0.24408928313E+02  0.57404631568E+02  0.12908593825E+02  0.63873384922E+02  0.47000000000E+01 0. -1.
        -13    1    6    6    0    0 -0.99768592617E+01  0.15737812634E+02 -0.10839905360E+03  0.10998895985E+03  0.00000000000E+00 0.  1.
         14    1    6    6    0    0 -0.56239378317E+02  0.37056168953E+02 -0.41245888992E+02  0.78976266623E+02  0.00000000000E+00 0. -1.
         -5    1    3    3    0  503 -0.27271625938E+02  0.10568608890E+02  0.31708955757E+02  0.43393374498E+02  0.47000000000E+01 0.  1.
         13    1    4    4    0    0  0.21611944123E+02 -0.10826320942E+03 -0.21819178289E+02  0.11253477322E+03  0.00000000000E+00 0. -1.
        -14    1    4    4    0    0  0.47466991081E+02 -0.12504012621E+02 -0.22189635186E+02  0.53868780231E+02  0.00000000000E+00 0.  1.
</event>
<event>
12    1  0.1630640E-001  0.1845549E+03  0.7818608E-02  0.1163580E+00
         21   -1    0    0  503  502  0.00000000000E+00  0.00000000000E+00  0.16678369148E+03  0.16678369148E+03  0.00000000000E+00 0. -1.
         21   -1    0    0  501  503 -0.00000000000E+00 -0.00000000000E+00 -0.20653619658E+03  0.20653619658E+03  0.00000000000E+00 0. -1.
          6    2    1    2  501    0 -0.65023101748E+02 -0.11380367022E+02  0.20923281880E+01  0.18408060445E+03  0.17182483692E+03 0.  0.
         24    2    3    3    0    0 -0.75115146592E+02  0.48312850491E+02  0.18910088565E+02  0.12107221889E+03  0.79526561398E+02 0.  0.
         -6    2    1    2    0  502  0.65023101748E+02  0.11380367022E+02 -0.41844833292E+02  0.18923928361E+03  0.17234558269E+03 0.  0.
        -24    2    5    5    0    0  0.11147569436E+03 -0.13588228175E+00 -0.30782526984E+02  0.13989425367E+03  0.78714606936E+02 0.  0.
          5    1    3    3  501    0  0.10092044845E+02 -0.59693217514E+02 -0.16817760377E+02  0.63008385556E+02  0.47000000000E+01 0. -1.
        -13    1    4    4    0    0 -0.59998505862E+01  0.39864745037E+02 -0.15764549677E+02  0.43286454353E+02  0.00000000000E+00 0.  1.
         14    1    4    4    0    0 -0.69115296006E+02  0.84481054539E+01  0.34674638242E+02  0.77785764539E+02  0.00000000000E+00 0. -1.
         -5    1    5    5    0  502 -0.46452592615E+02  0.11516249304E+02 -0.11062306308E+02  0.49345029937E+02  0.47000000000E+01 0.  1.
         13    1    6    6    0    0  0.84888745890E+02  0.33481107529E+01 -0.57069856306E+02  0.10234391786E+03  0.00000000000E+00 0. -1.
        -14    1    6    6    0    0  0.26586948472E+02 -0.34839930347E+01  0.26287329322E+02  0.37550335810E+02  0.00000000000E+00 0.  1.
</event>
<event>
12    1  0.1630640E-001  0.2537591E+03  0.7818608E-02  0.1111005E+00
         21   -1    0    0  501  502  0.00000000000E+00  0.00000000000E+00  0.52506830049E+03  0.52506830049E+03  0.00000000000E+00 0. -1.
         21   -1    0    0  502  503 -0.00000000000E+00 -0.00000000000E+00 -0.12370070182E+03  0.12370070182E+03  0.00000000000E+00 0.  1.
         -6    2    1    2    0  503 -0.65949653399E+02  0.17406771570E+03  0.16823311813E+03  0.30417451157E+03  0.17196169638E+03 0.  0.
        -24    2    3    3    0    0  0.19492995368E+02  0.54556986852E+02  0.72637551527E+02  0.12883523219E+03  0.89251674941E+02 0.  0.
          6    2    1    2  501    0  0.65949653399E+02 -0.17406771570E+03  0.23313448054E+03  0.34459449074E+03  0.17246666519E+03 0.  0.
         24    2    5    5    0    0 -0.11101994682E+01 -0.14404122446E+03  0.21181293157E+03  0.26794390371E+03  0.78613679889E+02 0.  0.
          5    1    5    5  501    0  0.67059852867E+02 -0.30026491234E+02  0.21321548966E+02  0.76650587034E+02  0.47000000000E+01 0. -1.
        -13    1    6    6    0    0  0.58111340044E+00  0.69058241586E+01 -0.10268527305E+01  0.70058922789E+01  0.00000000000E+00 0.  1.
         14    1    6    6    0    0 -0.16913128686E+01 -0.15094704862E+03  0.21283978431E+03  0.26093801143E+03  0.00000000000E+00 0. -1.
         -5    1    3    3    0  503 -0.85442648767E+02  0.11951072884E+03  0.95595566607E+02  0.17533927938E+03  0.47000000000E+01 0.  1.
         11    1    4    4    0    0  0.77555067230E+01  0.51205323225E+02 -0.33271205925E+01  0.51896076369E+02  0.00000000000E+00 0. -1.
        -12    1    4    4    0    0  0.11737488645E+02  0.33516636273E+01  0.75964672120E+02  0.76939155825E+02  0.00000000000E+00 0.  1.
</event>
<event>
12    1  0.1630640E-001  0.1969350E+03  0.7818608E-02  0.1152397E+00
         21   -1    0    0  501  502  0.00000000000E+00  0.00000000000E+00  0.19474615072E+04  0.19474615072E+04  0.00000000000E+00 0.  1.
         21   -1    0    0  502  503 -0.00000000000E+00 -0.00000000000E+00 -0.23066989424E+02  0.23066989424E+02  0.00000000000E+00 0. -1.
         -6    2    1    2    0  503  0.66559275362E+02  0.67491577186E+02  0.59718824228E+03  0.62882207566E+03  0.17262142391E+03 0.  0.
        -24    2    3    3    0    0  0.31747334333E+02  0.84591996346E+02  0.56644049194E+03  0.57910477762E+03  0.79648060026E+02 0.  0.
          6    2    1    2  501    0 -0.66559275362E+02 -0.67491577186E+02  0.13272062755E+04  0.13417064210E+04  0.17237857237E+03 0.  0.
         24    2    5    5    0    0 -0.59530131267E+02 -0.22619827279E+02  0.12303369096E+04  0.12346146526E+04  0.80553932965E+02 0.  0.
          5    1    5    5  501    0 -0.70291440948E+01 -0.44871749908E+02  0.96869365853E+02  0.10709176835E+03  0.47000000000E+01 0. -1.
        -13    1    6    6    0    0 -0.25810915975E+02  0.30066299188E+02  0.41871784185E+03  0.42058865512E+03  0.00000000000E+00 0.  1.
         14    1    6    6    0    0 -0.33719215292E+02 -0.52686126467E+02  0.81161906779E+03  0.81402599750E+03  0.00000000000E+00 0. -1.
         -5    1    3    3    0  503  0.34811941028E+02 -0.17100419160E+02  0.30747750334E+02  0.49717298038E+02  0.47000000000E+01 0.  1.
         11    1    4    4    0    0  0.32738264291E+02  0.40015052252E+02  0.12294349014E+03  0.13337203651E+03  0.00000000000E+00 0. -1.
        -12    1    4    4    0    0 -0.99092995750E+00  0.44576944094E+02  0.44349700181E+03  0.44573274111E+03  0.00000000000E+00 0.  1.
</event>
<event>
12    1  0.1630640E-001  0.1797147E+03  0.7818608E-02  0.1168205E+00
         21   -1    0    0  503  502  0.00000000000E+00  0.00000000000E+00  0.92355100116E+03  0.92355100116E+03  0.00000000000E+00 0.  1.
         21   -1    0    0  501  503 -0.00000000000E+00 -0.00000000000E+00 -0.36290422536E+02  0.36290422536E+02  0.00000000000E+00 0.  1.
          6    2    1    2  501    0 -0.51663759742E+02 -0.32540084981E+01  0.34930402256E+03  0.39282395538E+03  0.17209772544E+03 0.  0.
         24    2    3    3    0    0  0.34229126710E+02 -0.23030503115E+02  0.15188454233E+03  0.17657123550E+03  0.80040301208E+02 0.  0.
         -6    2    1    2    0  502  0.51663759742E+02  0.32540084981E+01  0.53795655606E+03  0.56701746832E+03  0.17155704742E+03 0.  0.
        -24    2    5    5    0    0  0.81871980921E+02 -0.29074307180E+02  0.47698539379E+03  0.49153747593E+03  0.80905424765E+02 0.  0.
          5    1    3    3  501    0 -0.85892886452E+02  0.19776494617E+02  0.19741948023E+03  0.21625271989E+03  0.47000000000E+01 0. -1.
        -11    1    4    4    0    0  0.46657848644E+02 -0.25411411294E+02  0.15473281927E+03  0.16359993895E+03  0.00000000000E+00 0.  1.
         12    1    4    4    0    0 -0.12428721934E+02  0.23809081791E+01 -0.28482769412E+01  0.12971296550E+02  0.00000000000E+00 0. -1.
         -5    1    5    5    0  502 -0.30208221179E+02  0.32328315678E+02  0.60971162271E+02  0.75479992383E+02  0.47000000000E+01 0.  1.
         11    1    6    6    0    0  0.70981929114E+02  0.15192591860E+02  0.31533210546E+03  0.32357933469E+03  0.00000000000E+00 0. -1.
        -12    1    6    6    0    0  0.10890051808E+02 -0.44266899040E+02  0.16165328834E+03  0.16795814124E+03  0.00000000000E+00 0.  1.
</event>
<event>
12    1  0.1630640E-001  0.2011163E+03  0.7818608E-02  0.1149224E+00
         21   -1    0    0  503  502  0.00000000000E+00  0.00000000000E+00  0.25140372643E+03  0.25140372643E+03  0.00000000000E+00 0.  1.
         21   -1    0    0  501  503 -0.00000000000E+00 -0.00000000000E+00 -0.17659053471E+03  0.17659053471E+03  0.00000000000E+00 0.  1.
          6    2    1    2  501    0  0.10012696990E+03 -0.21905597836E+00 -0.29756479111E+02  0.20131702394E+03  0.17209775708E+03 0.  0.
         24    2    3    3    0    0  0.29582066044E+02 -0.60880833076E+02 -0.75035192047E+01  0.10553749123E+03  0.80624343641E+02 0.  0.
         -6    2    1    2    0  502 -0.10012696990E+03  0.21905597836E+00  0.10456967083E+03  0.22667723720E+03  0.17441988338E+03 0.  0.
        -24    2    5    5    0    0 -0.35724726206E+02  0.60545230236E+02  0.27427684729E+02  0.10937475507E+03  0.79174353106E+02 0.  0.
          5    1    3    3  501    0  0.70544903859E+02  0.60661777098E+02 -0.22252959906E+02  0.95779532708E+02  0.47000000000E+01 0. -1.
        -13    1    4    4    0    0  0.37226319394E+02 -0.52511516457E+02 -0.36785707141E+02  0.74138023079E+02  0.00000000000E+00 0.  1.
         14    1    4    4    0    0 -0.76442533498E+01 -0.83693166196E+01  0.29282187936E+02  0.31399468153E+02  0.00000000000E+00 0. -1.
         -5    1    5    5    0  502 -0.64402243697E+02 -0.60326174257E+02  0.77141986102E+02  0.11730248213E+03  0.47000000000E+01 0.  1.
         13    1    6    6    0    0 -0.43726870150E+02  0.65392730134E+02 -0.18001485931E+01  0.78686014402E+02  0.00000000000E+00 0. -1.
        -14    1    6    6    0    0  0.80021439444E+01 -0.48474998981E+01  0.29227833322E+02  0.30688740666E+02  0.00000000000E+00 0.  1.
</event>
<event>
12    1  0.1630640E-001  0.2184927E+03  0.7818608E-02  0.1135225E+00
         21   -1    0    0  501  502  0.00000000000E+00  0.00000000000E+00  0.53419393971E+03  0.53419393971E+03  0.00000000000E+00 0. -1.
         21   -1    0    0  502  503 -0.00000000000E+00 -0.00000000000E+00 -0.10664639053E+03  0.10664639053E+03  0.00000000000E+00 0. -1.
         -6    2    1    2    0  503 -0.77255508557E+02  0.10787540183E+03  0.34492422776E+03  0.40830355866E+03  0.17359019900E+03 0.  0.
        -24    2    3    3    0    0 -0.71952958589E+01  0.12074327452E+03  0.19856624871E+03  0.24546387190E+03  0.78697183281E+02 0.  0.
          6    2    1    2  501    0  0.77255508557E+02 -0.10787540183E+03  0.82623321424E+02  0.23253677159E+03  0.17216625968E+03 0.  0.
         24    2    5    5    0    0 -0.26648991767E+02 -0.54003364508E+02  0.45857546394E+02  0.10976807115E+03  0.79495803302E+02 0.  0.
          5    1    5    5  501    0  0.10390450032E+03 -0.53872037322E+02  0.36765775030E+02  0.12276870043E+03  0.47000000000E+01 0. -1.
        -11    1    6    6    0    0  0.19885022064E+02  0.86216499128E+01  0.87726841985E+01  0.23381765069E+02  0.00000000000E+00 0.  1.
         12    1    6    6    0    0 -0.46534013831E+02 -0.62625014421E+02  0.37084862195E+02  0.86386306082E+02  0.00000000000E+00 0. -1.
         -5    1    3    3    0  503 -0.70060212698E+02 -0.12867872688E+02  0.14635797905E+03  0.16283968676E+03  0.47000000000E+01 0.  1.
         11    1    4    4    0    0  0.18755132197E+02  0.50194327037E+02  0.14083036269E+03  0.15067984771E+03  0.00000000000E+00 0. -1.
        -12    1    4    4    0    0 -0.25950428056E+02  0.70548947481E+02  0.57735886024E+02  0.94784024192E+02  0.00000000000E+00 0.  1.
</event>
<event>
12    1  0.1630640E-001  0.1824840E+03  0.7818608E-02  0.1165534E+00
         21   -1    0    0  503  502  0.00000000000E+00  0.00000000000E+00  0.44605954030E+03  0.44605954030E+03  0.00000000000E+00 0.  1.
         21   -1    0    0  501  503 -0.00000000000E+00 -0.00000000000E+00 -0.10405343956E+03  0.10405343956E+03  0.00000000000E+00 0.  1.
          6    2    1    2  501    0 -0.13447376574E+02 -0.59130344725E+02  0.24156731646E+02  0.18360428582E+03  0.17160931351E+03 0.  0.
         24    2    3    3    0    0  0.30638822957E+02  0.11619534274E+02 -0.20807279669E+02  0.88772905564E+02  0.79836926457E+02 0.  0.
         -6    2    1    2    0  502  0.13447376574E+02  0.59130344725E+02  0.31784936909E+03  0.36650869404E+03  0.17211383377E+03 0.  0.
        -24    2    5    5    0    0  0.28759060154E+02  0.17457642404E+01  0.71421844286E+02  0.11298147122E+03  0.82665602060E+02 0.  0.
          5    1    3    3  501    0 -0.44086199530E+02 -0.70749878998E+02  0.44964011315E+02  0.94831380254E+02  0.47000000000E+01 0. -1.
        -11    1    4    4    0    0  0.50230282708E+02 -0.13745577514E+02 -0.22384119140E+02  0.56683957094E+02  0.00000000000E+00 0.  1.
         12    1    4    4    0    0 -0.19591459752E+02  0.25365111787E+02  0.15768394709E+01  0.32088948470E+02  0.00000000000E+00 0. -1.
         -5    1    5    5    0  502 -0.15311683580E+02  0.57384580484E+02  0.24642752480E+03  0.25352722282E+03  0.47000000000E+01 0.  1.
         13    1    6    6    0    0  0.17453190463E+02 -0.35850867015E+02  0.60095563520E+02  0.72120560716E+02  0.00000000000E+00 0. -1.
        -14    1    6    6    0    0  0.11305869691E+02  0.37596631256E+02  0.11326280766E+02  0.40860910504E+02  0.00000000000E+00 0.  1.
</event>
<event>
12    1  0.1630640E-001  0.2032961E+03  0.7818608E-02  0.1148983E+00
         21   -1    0    0  501  502  0.00000000000E+00  0.00000000000E+00  0.18579039707E+03  0.18579039707E+03  0.00000000000E+00 0.  1.
         21   -1    0    0  502  503 -0.00000000000E+00 -0.00000000000E+00 -0.24861630264E+03  0.24861630264E+03  0.00000000000E+00 0.  1.
         -6    2    1    2    0  503 -0.89351652261E+02 -0.92746555194E+01  0.50986862184E+02  0.20959237553E+03  0.18237205589E+03 0.  0.
        -24    2    3    3    0    0  0.18901484591E+02  0.26105000939E+02  0.27938814986E+02  0.93300655236E+02  0.82980104187E+02 0.  0.
          6    2    1    2  501    0  0.89351652261E+02  0.92746555194E+01 -0.11381276776E+03  0.22481432418E+03  0.17180918851E+03 0.  0.
         24    2    5    5    0    0  0.95642912481E+02  0.39639502850E+01 -0.14577950836E+03  0.19147146812E+03  0.79034033394E+02 0.  0.
          5    1    5    5  501    0 -0.62912602206E+01  0.53107052344E+01  0.31966740609E+02  0.33342856062E+02  0.47000000000E+01 0. -1.
        -11    1    6    6    0    0  0.40113864710E+02 -0.32070130178E+02 -0.34100043165E+02  0.61647614191E+02  0.00000000000E+00 0.  1.
         12    1    6    6    0    0  0.55529047771E+02  0.36034080463E+02 -0.11167946520E+03  0.12982385393E+03  0.00000000000E+00 0. -1.
         -5    1    3    3    0  503 -0.10825313685E+03 -0.35379656458E+02  0.23048047198E+02  0.11629172029E+03  0.47000000000E+01 0.  1.
         13    1    4    4    0    0  0.78236198466E+01 -0.29024367798E+02  0.20941427115E+02  0.36635588205E+02  0.00000000000E+00 0. -1.
        -14    1    4    4    0    0  0.11077864744E+02  0.55129368737E+02  0.69973878713E+01  0.56665067031E+02  0.00000000000E+00 0.  1.
</event>
<event>
12    1  0.1630640E-001  0.2171760E+03  0.7818608E-02  0.1136392E+00
         21   -1    0    0  501  502  0.00000000000E+00  0.00000000000E+00  0.45251980608E+03  0.45251980608E+03  0.00000000000E+00 0. -1.
         21   -1    0    0  502  503 -0.00000000000E+00 -0.00000000000E+00 -0.10431992663E+03  0.10431992663E+03  0.00000000000E+00 0.  1.
         -6    2    1    2    0  503 -0.12270794097E+03  0.44844511228E+02  0.14681322361E+03  0.26214412584E+03  0.17348530520E+03 0.  0.
        -24    2    3    3    0    0 -0.37005896031E+02 -0.23258999971E+02  0.11908021156E+03  0.14912139051E+03  0.78400732788E+02 0.  0.
          6    2    1    2  501    0  0.12270794097E+03 -0.44844511228E+02  0.20138665583E+03  0.29469560686E+03  0.17094047675E+03 0.  0.
         24    2    5    5    0    0  0.14671247728E+03 -0.41176233459E+02  0.12002192261E+03  0.20965453540E+03  0.79559594727E+02 0.  0.
          5    1    5    5  501    0 -0.24004536304E+02 -0.36682777683E+01  0.81364733216E+02  0.85041071467E+02  0.47000000000E+01 0. -1.
        -11    1    6    6    0    0  0.86023633856E+02  0.24449742760E+01  0.26724754333E+02  0.90112462929E+02  0.00000000000E+00 0.  1.
         12    1    6    6    0    0  0.60688843421E+02 -0.43621207735E+02  0.93297168282E+02  0.11954207247E+03  0.00000000000E+00 0. -1.
         -5    1    3    3    0  503 -0.85702044942E+02  0.68103511199E+02  0.27733012059E+02  0.11302273534E+03  0.47000000000E+01 0.  1.
         11    1    4    4    0    0 -0.52044718558E+02 -0.14153021441E+02  0.37554008865E+02  0.65721110212E+02  0.00000000000E+00 0. -1.
        -12    1    4    4    0    0  0.15038822527E+02 -0.91059785304E+01  0.81526202691E+02  0.83400280294E+02  0.00000000000E+00 0.  1.
</event>
<event>
12    1  0.1630640E-001  0.1732266E+03  0.7818608E-02  0.1179737E+00
         21   -1    0    0  501  502  0.00000000000E+00  0.00000000000E+00  0.55721095112E+02  0.55721095112E+02  0.00000000000E+00 0.  1.
         21   -1    0    0  502  503 -0.00000000000E+00 -0.00000000000E+00 -0.87967734342E+03  0.87967734342E+03  0.00000000000E+00 0.  1.
         -6    2    1    2    0  503 -0.30828921379E+01  0.21300977926E+02 -0.74002131810E+03  0.76002566169E+03  0.17188431955E+03 0.  0.
        -24    2    3    3    0    0  0.32318286846E+02  0.50893188228E+02 -0.27278540602E+03  0.29049352231E+03  0.79624245616E+02 0.  0.
          6    2    1    2  501    0  0.30828921379E+01 -0.21300977926E+02 -0.83934930207E+02  0.17537277684E+03  0.15247066099E+03 0.  0.
         24    2    5    5    0    0 -0.11147530788E+02 -0.33182143945E+02  0.28548662243E+01  0.86500813838E+02  0.79050100658E+02 0.  0.
          5    1    5    5  501    0  0.14230422926E+02  0.11881166019E+02 -0.86789796431E+02  0.88871962998E+02  0.47000000000E+01 0. -1.
        -13    1    6    6    0    0 -0.10000310189E+01 -0.23698241991E+02 -0.37193056776E+02  0.44112698941E+02  0.00000000000E+00 0.  1.
         14    1    6    6    0    0 -0.10147499769E+02 -0.94839019534E+01  0.40047923001E+02  0.42388114897E+02  0.00000000000E+00 0. -1.
         -5    1    3    3    0  503 -0.35401178983E+02 -0.29592210302E+02 -0.46723591208E+03  0.46953213939E+03  0.47000000000E+01 0.  1.
         13    1    4    4    0    0 -0.26374292506E+02  0.22387178238E+02 -0.97900342112E+02  0.10383287553E+03  0.00000000000E+00 0. -1.
        -14    1    4    4    0    0  0.58692579352E+02  0.28506009990E+02 -0.17488506391E+03  0.18666064678E+03  0.00000000000E+00 0.  1.
</event>
<event>
12    1  0.1630640E-001  0.1791256E+03  0.7818608E-02  0.1168981E+00
         21   -1    0    0  501  502  0.00000000000E+00  0.00000000000E+00  0.43982163582E+03  0.43982163582E+03  0.00000000000E+00 0.  1.
         21   -1    0    0  502  503 -0.00000000000E+00 -0.00000000000E+00 -0.33844809279E+03  0.33844809279E+03  0.00000000000E+00 0.  1.
         -6    2    1    2    0  503 -0.22689344783E+01  0.47405862288E+02 -0.29436174956E+03  0.34388233208E+03  0.17132937538E+03 0.  0.
        -24    2    3    3    0    0 -0.36522352242E+02  0.38857979159E+02 -0.29325071680E+03  0.30824965988E+03  0.78600541692E+02 0.  0.
          6    2    1    2  501    0  0.22689344783E+01 -0.47405862288E+02  0.39573529259E+03  0.43438739654E+03  0.17272383919E+03 0.  0.
         24    2    5    5    0    0 -0.34496194182E+02  0.29454013339E+02  0.23676539495E+03  0.25396391269E+03  0.79889238248E+02 0.  0.
          5    1    5    5  501    0  0.36765128660E+02 -0.76859875628E+02  0.15896989765E+03  0.18042348385E+03  0.47000000000E+01 0. -1.
        -13    1    6    6    0    0  0.12798585254E+02 -0.15125572883E+02  0.10714801829E+03  0.10896460234E+03  0.00000000000E+00 0.  1.
         14    1    6    6    0    0 -0.47294779436E+02  0.44579586223E+02  0.12961737666E+03  0.14499931035E+03  0.00000000000E+00 0. -1.
         -5    1    3    3    0  503  0.34253417764E+02  0.85478831291E+01 -0.11110327642E+01  0.35632672203E+02  0.47000000000E+01 0.  1.
         13    1    4    4    0    0  0.36280654143E+01 -0.18436042996E+02 -0.26556024197E+02  0.32531107592E+02  0.00000000000E+00 0. -1.
        -14    1    4    4    0    0 -0.40150417657E+02  0.57294022156E+02 -0.26669469260E+03  0.27571855229E+03  0.00000000000E+00 0.  1.
</event>
<event>
12    1  0.1630640E-001  0.2765447E+03  0.7818608E-02  0.1097654E+00
         21   -1    0    0  501  502  0.00000000000E+00  0.00000000000E+00  0.95501760259E+02  0.95501760259E+02  0.00000000000E+00 0.  1.
         21   -1    0    0  502  503 -0.00000000000E+00 -0.00000000000E+00 -0.85565963148E+03  0.85565963148E+03  0.00000000000E+00 0. -1.
         -6    2    1    2    0  503 -0.85969890475E+02 -0.19882288604E+03 -0.50223867304E+03  0.57334164037E+03  0.17191739238E+03 0.  0.
        -24    2    3    3    0    0 -0.88599809554E+02 -0.19302182963E+03 -0.51241947897E+03  0.56044561232E+03  0.80113725275E+02 0.  0.
          6    2    1    2  501    0  0.85969890475E+02  0.19882288604E+03 -0.25791919818E+03  0.37781975137E+03  0.17118437328E+03 0.  0.
         24    2    5    5    0    0 -0.21565155898E+02  0.78146634201E+02 -0.96775534937E+02  0.14953064922E+03  0.80137123160E+02 0.  0.
          5    1    5    5  501    0  0.10753504637E+03  0.12067625184E+03 -0.16114366325E+03  0.22828910215E+03  0.47000000000E+01 0. -1.
        -13    1    6    6    0    0 -0.37034954785E+02  0.52980976532E+02 -0.20627042631E+02  0.67853125483E+02  0.00000000000E+00 0.  1.
         14    1    6    6    0    0  0.15469798887E+02  0.25165657669E+02 -0.76148492306E+02  0.81677523738E+02  0.00000000000E+00 0. -1.
         -5    1    3    3    0  503  0.26299190782E+01 -0.58010564054E+01  0.10180805934E+02  0.12896028041E+02  0.47000000000E+01 0.  1.
         11    1    4    4    0    0 -0.62640285387E+02 -0.13044199658E+03 -0.24467074688E+03  0.28425814712E+03  0.00000000000E+00 0. -1.
        -12    1    4    4    0    0 -0.25959524166E+02 -0.62579833053E+02 -0.26774873209E+03  0.27618746521E+03  0.00000000000E+00 0.  1.
</event>
<event>
12    1  0.1630640E-001  0.1830628E+03  0.7818608E-02  0.1165283E+00
         21   -1    0    0  503  502  0.00000000000E+00  0.00000000000E+00  0.13875469972E+03  0.13875469972E+03  0.00000000000E+00 0.  1.
         21   -1    0    0  501  503 -0.00000000000E+00 -0.00000000000E+00 -0.24124899080E+03  0.24124899080E+03  0.00000000000E+00 0.  1.
          6    2    1    2  501    0  0.29146993097E+01 -0.54773103664E+02 -0.68334140552E+02  0.19378092055E+03  0.17283779115E+03 0.  0.
         24    2    3    3    0    0 -0.36573912478E+02 -0.90237880282E+02 -0.35569458360E+02  0.13122922001E+03  0.80469843453E+02 0.  0.
         -6    2    1    2    0  502 -0.29146993097E+01  0.54773103664E+02 -0.34160150521E+02  0.18622276996E+03  0.17465227113E+03 0.  0.
        -24    2    5    5    0    0 -0.41972428200E+02  0.59503071233E+02  0.29136232812E+02  0.11154746667E+03  0.79319714085E+02 0.  0.
          5    1    3    3  501    0  0.39488611788E+02  0.35464776618E+02 -0.32764682192E+02  0.62551700542E+02  0.47000000000E+01 0. -1.
        -13    1    4    4    0    0 -0.41398758774E+01 -0.23007129897E+02  0.25639799273E+02  0.34696770817E+02  0.00000000000E+00 0.  1.
         14    1    4    4    0    0 -0.32434036601E+02 -0.67230750385E+02 -0.61209257633E+02  0.96532449195E+02  0.00000000000E+00 0. -1.
         -5    1    5    5    0  502  0.39057728890E+02 -0.47299675694E+01 -0.63296383333E+02  0.74675303296E+02  0.47000000000E+01 0.  1.
         13    1    6    6    0    0 -0.60517448017E+02  0.64184452257E+02  0.27246615375E+02  0.92327587835E+02  0.00000000000E+00 0. -1.
        -14    1    6    6    0    0  0.18545019817E+02 -0.46813810240E+01  0.18896174363E+01  0.19219878833E+02  0.00000000000E+00 0.  1.
</event>
<event>
12    1  0.1630640E-001  0.1940864E+03  0.7818608E-02  0.1154912E+00
         21   -1    0    0  501  502  0.00000000000E+00  0.00000000000E+00  0.14605922948E+03  0.14605922948E+03  0.00000000000E+00 0.  1.
         21   -1    0    0  502  503 -0.00000000000E+00 -0.00000000000E+00 -0.25746003716E+03  0.25746003716E+03  0.00000000000E+00 0. -1.
         -6    2    1    2    0  503  0.54811885900E+02 -0.71899360610E+02 -0.59185072638E+02  0.20290983689E+03  0.17174302952E+03 0.  0.
        -24    2    3    3    0    0  0.39093505948E+02  0.28092108814E+02 -0.54200562539E+02  0.10145887944E+03  0.70984043650E+02 0.  0.
          6    2    1    2  501    0 -0.54811885900E+02  0.71899360610E+02 -0.52215735034E+02  0.20060942975E+03  0.17130031941E+03 0.  0.
         24    2    5    5    0    0 -0.60708995472E+02  0.51666133746E+02 -0.10003829859E+03  0.14813803797E+03  0.74714427001E+02 0.  0.
          5    1    5    5  501    0  0.58971095717E+01  0.20233226864E+02  0.47822563554E+02  0.52471391782E+02  0.47000000000E+01 0. -1.
        -13    1    6    6    0    0 -0.62821250649E+00  0.32883006823E+02 -0.37540642555E+01  0.33102564661E+02  0.00000000000E+00 0.  1.
         14    1    6    6    0    0 -0.60080782966E+02  0.18783126923E+02 -0.96284234333E+02  0.11503547331E+03  0.00000000000E+00 0. -1.
         -5    1    3    3    0  503  0.15718379953E+02 -0.99991469424E+02 -0.49845100996E+01  0.10145095745E+03  0.47000000000E+01 0.  1.
         11    1    4    4    0    0 -0.61705283867E+01  0.58197868096E+01 -0.50136074125E+02  0.50848512935E+02  0.00000000000E+00 0. -1.
        -12    1    4    4    0    0  0.45264034334E+02  0.22272322004E+02 -0.40644884138E+01  0.50610366505E+02  0.00000000000E+00 0.  1.
</event>
<event>
12    1  0.1630640E-001  0.2062895E+03  0.7818608E-02  0.1144920E+00
         21   -1    0    0  501  502  0.00000000000E+00  0.00000000000E+00  0.57026062473E+03  0.57026062473E+03  0.00000000000E+00 0.  1.
         21   -1    0    0  502  503 -0.00000000000E+00 -0.00000000000E+00 -0.82854756996E+02  0.82854756996E+02  0.00000000000E+00 0.  1.
         -6    2    1    2    0  503 -0.11408604466E+03 -0.69014011414E+00  0.13762461472E+03  0.24798369109E+03  0.17186993511E+03 0.  0.
        -24    2    3    3    0    0 -0.11217204840E+03  0.29043104160E+02  0.15751655994E+03  0.21185186743E+03  0.81508752488E+02 0.  0.
          6    2    1    2  501    0  0.11408604466E+03  0.69014011414E+00  0.34978125302E+03  0.40513169063E+03  0.16961326573E+03 0.  0.
         24    2    5    5    0    0  0.48936852772E+02 -0.51228294138E+02  0.12013820777E+03  0.16080003233E+03  0.80026918917E+02 0.  0.
          5    1    5    5  501    0  0.65149191887E+02  0.51918434252E+02  0.22964304525E+03  0.24433165830E+03  0.47000000000E+01 0. -1.
        -11    1    6    6    0    0 -0.60712654020E+01 -0.85241866853E+01  0.79470054337E+02  0.80156169810E+02  0.00000000000E+00 0.  1.
         12    1    6    6    0    0  0.55008118174E+02 -0.42704107452E+02  0.40668153432E+02  0.80643862519E+02  0.00000000000E+00 0. -1.
         -5    1    3    3    0  503 -0.19139962539E+01 -0.29733244274E+02 -0.19891945227E+02  0.36131823669E+02  0.47000000000E+01 0.  1.
         11    1    4    4    0    0 -0.71667046996E+02 -0.14457259072E+02  0.48655771251E+02  0.87821193576E+02  0.00000000000E+00 0. -1.
        -12    1    4    4    0    0 -0.40505001408E+02  0.43500363232E+02  0.10886078869E+03  0.12403067385E+03  0.00000000000E+00 0.  1.
</event>
<event>
12    1  0.1630640E-001  0.2233450E+03  0.7818608E-02  0.1131628E+00
         21   -1    0    0  501  502  0.00000000000E+00  0.00000000000E+00  0.23664189537E+02  0.23664189537E+02  0.00000000000E+00 0.  1.
         21   -1    0    0  502  503 -0.00000000000E+00 -0.00000000000E+00 -0.25712707865E+04  0.25712707865E+04  0.00000000000E+00 0. -1.
         -6    2    1    2    0  503  0.11201291267E+03  0.87712021058E+02 -0.18338253120E+04  0.18473760502E+04  0.17217056846E+03 0.  0.
        -24    2    3    3    0    0  0.12061667762E+03  0.43837176494E+02 -0.16846830169E+04  0.16916052540E+04  0.83074586873E+02 0.  0.
          6    2    1    2  501    0 -0.11201291267E+03 -0.87712021058E+02 -0.71378128496E+03  0.74755892584E+03  0.17064680954E+03 0.  0.
         24    2    5    5    0    0  0.11587443485E+02 -0.24956559937E+02 -0.27286822596E+03  0.28534500184E+03  0.78788340558E+02 0.  0.
          5    1    5    5  501    0 -0.12360035616E+03 -0.62755461121E+02 -0.44091305900E+03  0.46221392400E+03  0.47000000000E+01 0. -1.
        -11    1    6    6    0    0  0.12481809501E+02 -0.16046751956E+02 -0.27531308878E+03  0.27606265715E+03  0.00000000000E+00 0.  1.
         12    1    6    6    0    0 -0.89436601543E+00 -0.89098079802E+01  0.24448628224E+01  0.92823446949E+01  0.00000000000E+00 0. -1.
         -5    1    3    3    0  503 -0.86037649495E+01  0.43874844564E+02 -0.14914229512E+03  0.15577079621E+03  0.47000000000E+01 0.  1.
         13    1    4    4    0    0  0.10960512247E+03  0.29802807642E+01 -0.11280629661E+04  0.11333791160E+04  0.00000000000E+00 0. -1.
        -14    1    4    4    0    0  0.11011555151E+02  0.40856895730E+02 -0.55662005077E+03  0.55822613805E+03  0.00000000000E+00 0.  1.
</event>
<event>
12    1  0.1630640E-001  0.1746071E+03  0.7818608E-02  0.1173516E+00
         21   -1    0    0  503  502  0.00000000000E+00  0.00000000000E+00  0.34129208593E+03  0.34129208593E+03  0.00000000000E+00 0.  1.
         21   -1    0    0  501  503 -0.00000000000E+00 -0.00000000000E+00 -0.27145986022E+03  0.27145986022E+03  0.00000000000E+00 0.  1.
          6    2    1    2  501    0 -0.10388773538E+02 -0.27054738879E+02 -0.21652598461E+03  0.27815670909E+03  0.17218527025E+03 0.  0.
         24    2    3    3    0    0 -0.66848918440E+02  0.10042352308E+02 -0.14904882542E+03  0.18255755036E+03  0.80883126174E+02 0.  0.
         -6    2    1    2    0  502  0.10388773538E+02  0.27054738879E+02  0.28635821032E+03  0.33459523706E+03  0.17062550377E+03 0.  0.
        -24    2    5    5    0    0  0.45034710263E+02  0.50818354375E+02  0.26881002641E+03  0.28882320290E+03  0.80928251955E+02 0.  0.
          5    1    3    3  501    0  0.56460144902E+02 -0.37097091187E+02 -0.67477159187E+02  0.95599158724E+02  0.47000000000E+01 0. -1.
        -11    1    4    4    0    0 -0.29269147907E+02 -0.21516357543E+02 -0.12034005926E+03  0.12570348653E+03  0.00000000000E+00 0.  1.
         12    1    4    4    0    0 -0.37579770532E+02  0.31558709851E+02 -0.28708766155E+02  0.56854063838E+02  0.00000000000E+00 0. -1.
         -5    1    5    5    0  502 -0.34645936726E+02 -0.23763615496E+02  0.17548183915E+02  0.45772034167E+02  0.47000000000E+01 0.  1.
         11    1    6    6    0    0  0.78450945619E+01 -0.12809820219E+02  0.65192184766E+01  0.16374895794E+02  0.00000000000E+00 0. -1.
        -12    1    6    6    0    0  0.37189615702E+02  0.63628174593E+02  0.26229080793E+03  0.27244830710E+03  0.00000000000E+00 0.  1.
</event>
<event>
12    1  0.1630640E-001  0.1921632E+03  0.7818608E-02  0.1157296E+00
         21   -1    0    0  503  502  0.00000000000E+00  0.00000000000E+00  0.50242906260E+02  0.50242906260E+02  0.00000000000E+00 0. -1.
         21   -1    0    0  501  503 -0.00000000000E+00 -0.00000000000E+00 -0.25667827797E+04  0.25667827797E+04  0.00000000000E+00 0. -1.
          6    2    1    2  501    0  0.58441155617E+02 -0.49881654354E+02 -0.23708088143E+04  0.23785838458E+04  0.17613383981E+03 0.  0.
         24    2    3    3    0    0  0.48550092473E+02  0.39804972681E+02 -0.13604831147E+04  0.13642261015E+04  0.79101221807E+02 0.  0.
         -6    2    1    2    0  502 -0.58441155617E+02  0.49881654354E+02 -0.14573105921E+03  0.23844184021E+03  0.17237581453E+03 0.  0.
        -24    2    5    5    0    0  0.15263143143E+02  0.19062358457E+02 -0.13296244669E+03  0.15740308331E+03  0.80624942519E+02 0.  0.
          5    1    3    3  501    0  0.98910631442E+01 -0.89686627034E+02 -0.10103256995E+04  0.10143577442E+04  0.47000000000E+01 0. -1.
        -11    1    4    4    0    0  0.47805547480E+01  0.16186836513E+02 -0.49470342472E+02  0.52270279933E+02  0.00000000000E+00 0.  1.
         12    1    4    4    0    0  0.43769537725E+02  0.23618136168E+02 -0.13110127723E+04  0.13119558216E+04  0.00000000000E+00 0. -1.
         -5    1    5    5    0  502 -0.73704298760E+02  0.30819295896E+02 -0.12768612525E+02  0.81038756907E+02  0.47000000000E+01 0.  1.
         11    1    6    6    0    0  0.39113917131E+02  0.18492275284E+02 -0.32407141985E+02  0.54056318873E+02  0.00000000000E+00 0. -1.
        -12    1    6    6    0    0 -0.23850773988E+02  0.57008317297E+00 -0.10055530470E+03  0.10334676443E+03  0.00000000000E+00 0.  1.
</event>
<event>
12    1  0.1630640E-001  0.1889186E+03  0.7818608E-02  0.1159536E+00
         21   -1    0    0  503  502  0.00000000000E+00  0.00000000000E+00  0.45144998882E+03  0.45144998882E+03  0.00000000000E+00 0. -1.
         21   -1    0    0  501  503 -0.00000000000E+00 -0.00000000000E+00 -0.95053253319E+02  0.95053253319E+02  0.00000000000E+00 0. -1.
          6    2    1    2  501    0 -0.76969839295E+02 -0.62325987283E+01  0.29074652829E+03  0.34650277075E+03  0.17195181004E+03 0.  0.
         24    2    3    3    0    0 -0.61165839365E+02  0.29648214897E+02  0.28888124555E+03  0.30697090411E+03  0.78476017920E+02 0.  0.
         -6    2    1    2    0  502  0.76969839295E+02  0.62325987283E+01  0.65650207210E+02  0.20000047139E+03  0.17241530501E+03 0.  0.
        -24    2    5    5    0    0  0.11868056290E+03  0.12341301716E+02  0.67824597160E+02  0.15752790745E+03  0.77314176617E+02 0.  0.
          5    1    3    3  501    0 -0.15803999931E+02 -0.35880813626E+02  0.18652827410E+01  0.39531866639E+02  0.47000000000E+01 0. -1.
        -11    1    4    4    0    0  0.10073472756E+02  0.30723763040E+02  0.80749219696E+02  0.86981957613E+02  0.00000000000E+00 0.  1.
         12    1    4    4    0    0 -0.71239312121E+02 -0.10755481424E+01  0.20813202585E+03  0.21998894650E+03  0.00000000000E+00 0. -1.
         -5    1    5    5    0  502 -0.41710723608E+02 -0.61087029878E+01 -0.21743899499E+01  0.42472563941E+02  0.47000000000E+01 0.  1.
         13    1    6    6    0    0  0.44554866091E+02 -0.32901353008E+01  0.68485212664E+02  0.81769098297E+02  0.00000000000E+00 0. -1.
        -14    1    6    6    0    0  0.74125696812E+02  0.15631437017E+02 -0.66061550386E+00  0.75758809151E+02  0.00000000000E+00 0.  1.
</event>
<event>
12    1  0.1630640E-001  0.2316320E+03  0.7818608E-02  0.1126755E+00
         21   -1    0    0  501  502  0.00000000000E+00  0.00000000000E+00  0.11381591565E+03  0.11381591565E+03  0.00000000000E+00 0. -1.
         21   -1    0    0  502  503 -0.00000000000E+00 -0.00000000000E+00 -0.46246355297E+03  0.46246355297E+03  0.00000000000E+00 0.  1.
         -6    2    1    2    0  503 -0.11021187462E+02 -0.14370167031E+03 -0.20812507781E+03  0.31139918822E+03  0.18133331129E+03 0.  0.
        -24    2    3    3    0    0 -0.41131573251E+01 -0.18571630268E+02 -0.28018009136E+02  0.91931892273E+02  0.85467189418E+02 0.  0.
          6    2    1    2  501    0  0.11021187462E+02  0.14370167031E+03 -0.14052255951E+03  0.26488028041E+03  0.17217240370E+03 0.  0.
         24    2    5    5    0    0 -0.52811712201E+02  0.93436099623E+02 -0.47887333365E+02  0.14157317681E+03  0.78932794426E+02 0.  0.
          5    1    5    5  501    0  0.63832899663E+02  0.50265570688E+02 -0.92635226144E+02  0.12330710360E+03  0.47000000000E+01 0. -1.
        -13    1    6    6    0    0 -0.61566004802E+01 -0.13145703185E+02 -0.14532646196E+02  0.20540473392E+02  0.00000000000E+00 0.  1.
         14    1    6    6    0    0 -0.46655111721E+02  0.10658180281E+03 -0.33354687169E+02  0.12103270341E+03  0.00000000000E+00 0. -1.
         -5    1    3    3    0  503 -0.69080301367E+01 -0.12513004004E+03 -0.18010706868E+03  0.21946729594E+03  0.47000000000E+01 0.  1.
         11    1    4    4    0    0 -0.65442077264E+01 -0.43652537691E+02 -0.43812556620E+02  0.62192530252E+02  0.00000000000E+00 0. -1.
        -12    1    4    4    0    0  0.24310504013E+01  0.25080907423E+02  0.15794547483E+02  0.29739362021E+02  0.00000000000E+00 0.  1.
</event>
<event>
12    1  0.1630640E-001  0.2154279E+03  0.7818608E-02  0.1137357E+00
         21   -1    0    0  501  502  0.00000000000E+00  0.00000000000E+00  0.35563400520E+03  0.35563400520E+03  0.00000000000E+00 0.  1.
         21   -1    0    0  502  503 -0.00000000000E+00 -0.00000000000E+00 -0.58273296902E+03  0.58273296902E+03  0.00000000000E+00 0.  1.
         -6    2    1    2    0  503 -0.93384253444E+02  0.89312783472E+02 -0.52689446021E+03  0.56919692656E+03  0.17224975160E+03 0.  0.
        -24    2    3    3    0    0 -0.43502109024E+02  0.86990506617E+02 -0.49686772357E+03  0.51073911087E+03  0.67209544854E+02 0.  0.
          6    2    1    2  501    0  0.93384253444E+02 -0.89312783472E+02  0.29979549638E+03  0.36917004766E+03  0.17237108909E+03 0.  0.
         24    2    5    5    0    0  0.12634526755E+03 -0.40103207961E+02  0.19450691534E+03  0.24827428235E+03  0.78966988281E+02 0.  0.
          5    1    5    5  501    0 -0.32961014105E+02 -0.49209575511E+02  0.10528858104E+03  0.12089576531E+03  0.47000000000E+01 0. -1.
        -11    1    6    6    0    0  0.65259119608E+02 -0.47341092059E+02  0.15628027539E+03  0.17585066439E+03  0.00000000000E+00 0.  1.
         12    1    6    6    0    0  0.61086147941E+02  0.72378840984E+01  0.38226639955E+02  0.72423617962E+02  0.00000000000E+00 0. -1.
         -5    1    3    3    0  503 -0.49882144420E+02  0.23222768547E+01 -0.30026736637E+02  0.58457815687E+02  0.47000000000E+01 0.  1.
         13    1    4    4    0    0 -0.28558460483E+01 -0.93401378630E+01 -0.16935279370E+02  0.19549877731E+02  0.00000000000E+00 0. -1.
        -14    1    4    4    0    0 -0.40646262975E+02  0.96330644480E+02 -0.47993244420E+03  0.49118923314E+03  0.00000000000E+00 0.  1.
</event>
<event>
12    1  0.1630640E-001  0.1935916E+03  0.7818608E-02  0.1155545E+00
         21   -1    0    0  503  502  0.00000000000E+00  0.00000000000E+00  0.27838113091E+02  0.27838113091E+02  0.00000000000E+00 0.  1.
         21   -1    0    0  501  503 -0.00000000000E+00 -0.00000000000E+00 -0.16976844347E+04  0.16976844347E+04  0.00000000000E+00 0.  1.
          6    2    1    2  501    0  0.26998868421E+02  0.81888935064E+02 -0.12345780616E+04  0.12496642317E+04  0.17332906644E+03 0.  0.
         24    2    3    3    0    0  0.39642343170E+01  0.38624661142E+02 -0.28458531537E+03  0.29839628857E+03  0.80894769351E+02 0.  0.
         -6    2    1    2    0  502 -0.26998868421E+02 -0.81888935064E+02 -0.43526826005E+03  0.47585831611E+03  0.17189514892E+03 0.  0.
        -24    2    5    5    0    0  0.22691681285E+02  0.61234188107E+01 -0.26569493614E+03  0.27839306006E+03  0.79727587088E+02 0.  0.
          5    1    3    3  501    0  0.23034634104E+02  0.43264273923E+02 -0.94999274622E+03  0.95126794314E+03  0.47000000000E+01 0. -1.
        -11    1    4    4    0    0  0.62241331093E+01  0.63882559965E+02 -0.19506588027E+03  0.20535437406E+03  0.00000000000E+00 0.  1.
         12    1    4    4    0    0 -0.22598987922E+01 -0.25257898823E+02 -0.89519435095E+02  0.93041914507E+02  0.00000000000E+00 0. -1.
         -5    1    5    5    0  502 -0.49690549706E+02 -0.88012353875E+02 -0.16957332391E+03  0.19746525605E+03  0.47000000000E+01 0.  1.
         13    1    6    6    0    0  0.51219009006E+02 -0.67200127611E+01 -0.15654628499E+03  0.16484927903E+03  0.00000000000E+00 0. -1.
        -14    1    6    6    0    0 -0.28527327721E+02  0.12843431572E+02 -0.10914865115E+03  0.11354378103E+03  0.00000000000E+00 0.  1.
</event>
<event>
12    1  0.1630640E-001  0.1796081E+03  0.7818608E-02  0.1168247E+00
         21   -1    0    0  503  502  0.00000000000E+00  0.00000000000E+00  0.44113188861E+03  0.44113188861E+03  0.00000000000E+00 0.  1.
         21   -1    0    0  501  503 -0.00000000000E+00 -0.00000000000E+00 -0.80406417221E+02  0.80406417221E+02  0.00000000000E+00 0.  1.
          6    2    1    2  501    0  0.43400261159E+02  0.28350627677E+02  0.10121076770E+03  0.20593259944E+03  0.17168947333E+03 0.  0.
         24    2    3    3    0    0  0.30632913979E+02  0.89120866765E+02  0.65898404839E+02  0.13434293479E+03  0.69458765154E+02 0.  0.
         -6    2    1    2    0  502 -0.43400261159E+02 -0.28350627677E+02  0.25951470369E+03  0.31560570639E+03  0.17196435596E+03 0.  0.
        -24    2    5    5    0    0  0.35284433190E+02 -0.42276681754E+02  0.16552985822E+03  0.19215345941E+03  0.80563695030E+02 0.  0.
          5    1    3    3  501    0  0.12767347180E+02 -0.60770239088E+02  0.35312362864E+02  0.71589664644E+02  0.47000000000E+01 0. -1.
        -11    1    4    4    0    0  0.56391594616E+01  0.29275669473E+02 -0.12730669196E+02  0.32418125804E+02  0.00000000000E+00 0.  1.
         12    1    4    4    0    0  0.24993754517E+02  0.59845197293E+02  0.78629074035E+02  0.10192480899E+03  0.00000000000E+00 0. -1.
         -5    1    5    5    0  502 -0.78684694348E+02  0.13926054077E+02  0.93984845469E+02  0.12345224698E+03  0.47000000000E+01 0.  1.
         11    1    6    6    0    0  0.24173078258E+02 -0.72039918522E+01  0.28719179146E+01  0.25386672164E+02  0.00000000000E+00 0. -1.
        -12    1    6    6    0    0  0.11111354932E+02 -0.35072689902E+02  0.16265794030E+03  0.16676678725E+03  0.00000000000E+00 0.  1.
</event>
<event>
12    1  0.1630640E-001  0.2077426E+03  0.7818608E-02  0.1143727E+00
         21   -1    0    0  501  502  0.00000000000E+00  0.00000000000E+00  0.46310416685E+03  0.46310416685E+03  0.00000000000E+00 0. -1.
         21   -1    0    0  502  503 -0.00000000000E+00 -0.00000000000E+00 -0.13563153030E+03  0.13563153030E+03  0.00000000000E+00 0. -1.
         -6    2    1    2    0  503  0.10519978200E+03 -0.39012074106E+02 -0.57811043911E+01  0.20603347512E+03  0.17270621194E+03 0.  0.
        -24    2    3    3    0    0  0.17553826646E+02  0.30964673468E+02 -0.20255908759E+02  0.92851459530E+02  0.83331529833E+02 0.  0.
          6    2    1    2  501    0 -0.10519978200E+03  0.39012074106E+02  0.33325374094E+03  0.39270222203E+03  0.17483719077E+03 0.  0.
         24    2    5    5    0    0 -0.61678857682E+02 -0.11493287908E+02  0.77976701186E+02  0.12882096186E+03  0.81105469198E+02 0.  0.
          5    1    5    5  501    0 -0.43520924323E+02  0.50505362013E+02  0.25527703976E+03  0.26388126018E+03  0.47000000000E+01 0. -1.
        -13    1    6    6    0    0 -0.14095168691E+02  0.18404816794E+02 -0.93318687671E+01  0.24989894685E+02  0.00000000000E+00 0.  1.
         14    1    6    6    0    0 -0.47583688990E+02 -0.29898104702E+02  0.87308569953E+02  0.10383106717E+03  0.00000000000E+00 0. -1.
         -5    1    3    3    0  503  0.87645955358E+02 -0.69976747573E+02  0.14474804368E+02  0.11318201559E+03  0.47000000000E+01 0.  1.
         13    1    4    4    0    0  0.62733108755E+01 -0.21673282247E+02  0.16251917332E+02  0.27806661246E+02  0.00000000000E+00 0. -1.
        -14    1    4    4    0    0  0.11280515771E+02  0.52637955715E+02 -0.36507826092E+02  0.65044798284E+02  0.00000000000E+00 0.  1.
</event>
<event>
12    1  0.1630640E-001  0.2031612E+03  0.7818608E-02  0.1148630E+00
         21   -1    0    0  501  502  0.00000000000E+00  0.00000000000E+00  0.88219788249E+03  0.88219788249E+03  0.00000000000E+00 0.  1.
         21   -1    0    0  502  503 -0.00000000000E+00 -0.00000000000E+00 -0.48803195388E+02  0.48803195388E+02  0.00000000000E+00 0. -1.
         -6    2    1    2    0  503  0.55235272318E+02  0.94312588691E+02  0.28195759538E+03  0.34332994569E+03  0.16257172670E+03 0.  0.
        -24    2    3    3    0    0  0.36695020138E+02  0.38180563386E+02  0.59116641978E+02  0.11273348924E+03  0.80061116113E+02 0.  0.
          6    2    1    2  501    0 -0.55235272318E+02 -0.94312588691E+02  0.55143709172E+03  0.58767113219E+03  0.17125622262E+03 0.  0.
         24    2    5    5    0    0  0.34279689757E+02 -0.51971223150E+02  0.33287191252E+03  0.34767415881E+03  0.78724236382E+02 0.  0.
          5    1    5    5  501    0 -0.89514962075E+02 -0.42341365541E+02  0.21856517921E+03  0.23999697338E+03  0.47000000000E+01 0. -1.
        -13    1    6    6    0    0  0.36190440788E+01  0.57188130330E+01  0.19488634758E+03  0.19500382246E+03  0.00000000000E+00 0.  1.
         14    1    6    6    0    0  0.30660645678E+02 -0.57690036183E+02  0.13798556494E+03  0.15267033635E+03  0.00000000000E+00 0. -1.
         -5    1    3    3    0  503  0.18540252180E+02  0.56132025304E+02  0.22284095340E+03  0.23059645645E+03  0.47000000000E+01 0.  1.
         11    1    4    4    0    0 -0.10366610561E+02 -0.18196069473E+02  0.22271408264E+02  0.30570887865E+02  0.00000000000E+00 0. -1.
        -12    1    4    4    0    0  0.47061630699E+02  0.56376632860E+02  0.36845233714E+02  0.82162601371E+02  0.00000000000E+00 0.  1.
</event>
<event>
12    1  0.1630640E-001  0.1821357E+03  0.7818608E-02  0.1166516E+00
         21   -1    0    0  503  502  0.00000000000E+00  0.00000000000E+00  0.20506823170E+03  0.20506823170E+03  0.00000000000E+00 0.  1.
         21   -1    0    0  501  503 -0.00000000000E+00 -0.00000000000E+00 -0.16518576766E+03  0.16518576766E+03  0.00000000000E+00 0.  1.
          6    2    1    2  501    0 -0.55140102845E+02 -0.30932605874E+02 -0.15829967977E+02  0.18282233751E+03  0.17081031045E+03 0.  0.
         24    2    3    3    0    0 -0.12909822657E+02 -0.66464717807E+02  0.34175877521E+02  0.10819927052E+03  0.77167799642E+02 0.  0.
         -6    2    1    2    0  502  0.55140102845E+02  0.30932605874E+02  0.55712432019E+02  0.18743166185E+03  0.16742011747E+03 0.  0.
        -24    2    5    5    0    0 -0.24756199765E+02  0.39553202653E+02  0.12102586806E+02  0.95880351325E+02  0.82880901877E+02 0.  0.
          5    1    3    3  501    0 -0.42230280188E+02  0.35532111933E+02 -0.50005845498E+02  0.74623066991E+02  0.47000000000E+01 0. -1.
        -11    1    4    4    0    0  0.30242361641E+01 -0.53062704975E+02 -0.14640261588E+02  0.55128340470E+02  0.00000000000E+00 0.  1.
         12    1    4    4    0    0 -0.15934058821E+02 -0.13402012832E+02  0.48816139109E+02  0.53070930046E+02  0.00000000000E+00 0. -1.
         -5    1    5    5    0  502  0.79896302610E+02 -0.86205967794E+01  0.43609845213E+02  0.91551310527E+02  0.47000000000E+01 0.  1.
         11    1    6    6    0    0 -0.41519010883E+01  0.39282121890E+01 -0.33771377390E+02  0.34251643237E+02  0.00000000000E+00 0. -1.
        -12    1    6    6    0    0 -0.20604298677E+02  0.35624990464E+02  0.45873964196E+02  0.61628708088E+02  0.00000000000E+00 0.  1.
</event>
<event>
12    1  0.1630640E-001  0.1880484E+03  0.7818608E-02  0.1160412E+00
         21   -1    0    0  503  502  0.00000000000E+00  0.00000000000E+00  0.15356193605E+04  0.15356193605E+04  0.00000000000E+00 0. -1.
         21   -1    0    0  501  503 -0.00000000000E+00 -0.00000000000E+00 -0.27803859759E+02  0.27803859759E+02  0.00000000000E+00 0. -1.
          6    2    1    2  501    0 -0.70649006185E+02  0.26502993070E+02  0.42799512869E+03  0.46748480541E+03  0.17224552938E+03 0.  0.
         24    2    3    3    0    0 -0.51208808422E+02  0.79606589423E+02  0.34340014945E+03  0.36562061275E+03  0.82433116414E+02 0.  0.
         -6    2    1    2    0  502  0.70649006185E+02 -0.26502993070E+02  0.10798203721E+04  0.10959384148E+04  0.17139218923E+03 0.  0.
        -24    2    5    5    0    0  0.42966077277E+02  0.63836260514E+01  0.10070464564E+04  0.10112861434E+04  0.81671683667E+02 0.  0.
          5    1    3    3  501    0 -0.19440197763E+02 -0.53103596352E+02  0.84594979237E+02  0.10186419266E+03  0.47000000000E+01 0. -1.
        -11    1    4    4    0    0 -0.26193309985E+02 -0.49469196414E+01  0.15904475901E+03  0.16126312929E+03  0.00000000000E+00 0.  1.
         12    1    4    4    0    0 -0.25015498437E+02  0.84553509064E+02  0.18435539045E+03  0.20435748346E+03  0.00000000000E+00 0. -1.
         -5    1    5    5    0  502  0.27682928908E+02 -0.32886619122E+02  0.72773915649E+02  0.84652271494E+02  0.47000000000E+01 0.  1.
         13    1    6    6    0    0  0.65382743697E+02  0.12461709417E+02  0.83997648741E+03  0.84260945685E+03  0.00000000000E+00 0. -1.
        -14    1    6    6    0    0 -0.22416666420E+02 -0.60780833652E+01  0.16706996900E+03  0.16867668651E+03  0.00000000000E+00 0.  1.
</event>
<event>
12    1  0.1630640E-001  0.3426146E+03  0.7818608E-02  0.1065740E+00
         21   -1    0    0  503  502  0.00000000000E+00  0.00000000000E+00  0.31698041270E+03  0.31698041270E+03  0.00000000000E+00 0. -1.
         21   -1    0    0  501  503 -0.00000000000E+00 -0.00000000000E+00 -0.37879107992E+03  0.37879107992E+03  0.00000000000E+00 0.  1.
          6    2    1    2  501    0 -0.24607703853E+03 -0.16527575207E+03  0.22718217036E+02  0.34336700445E+03  0.17179871724E+03 0.  0.
         24    2    3    3    0    0 -0.92721459592E+02 -0.13835939245E+03 -0.59810774567E+01  0.18497456930E+03  0.80244797049E+02 0.  0.
         -6    2    1    2    0  502  0.24607703853E+03  0.16527575207E+03 -0.84528884264E+02  0.35240448817E+03  0.17080341886E+03 0.  0.
        -24    2    5    5    0    0  0.47436718882E+02  0.11271200046E+02  0.23833687714E+01  0.86413495163E+02  0.71304484087E+02 0.  0.
          5    1    3    3  501    0 -0.15335557894E+03 -0.26916359620E+02  0.28699294493E+02  0.15839243514E+03  0.47000000000E+01 0. -1.
        -11    1    4    4    0    0 -0.55974038932E+02 -0.17986796076E+02  0.23723464610E+01  0.58840852264E+02  0.00000000000E+00 0.  1.
         12    1    4    4    0    0 -0.36747420661E+02 -0.12037259637E+03 -0.83534239177E+01  0.12613371704E+03  0.00000000000E+00 0. -1.
         -5    1    5    5    0  502  0.19864031965E+03  0.15400455202E+03 -0.86912253035E+02  0.26599099301E+03  0.47000000000E+01 0.  1.
         11    1    6    6    0    0 -0.11814258035E+01  0.30389786204E+02 -0.11241502528E+02  0.32423853126E+02  0.00000000000E+00 0. -1.
        -12    1    6    6    0    0  0.48618144686E+02 -0.19118586158E+02  0.13624871300E+02  0.53989642037E+02  0.00000000000E+00 0.  1.
</event>
<event>
12    1  0.1630640E-001  0.2188965E+03  0.7818608E-02  0.1134768E+00
         21   -1    0    0  501  502  0.00000000000E+00  0.00000000000E+00  0.45140789697E+03  0.45140789697E+03  0.00000000000E+00 0.  1.
         21   -1    0    0  502  503 -0.00000000000E+00 -0.00000000000E+00 -0.16839592923E+03  0.16839592923E+03  0.00000000000E+00 0.  1.
         -6    2    1    2    0  503 -0.12598216697E+03  0.53304845183E+02 -0.47079363073E+02  0.22390211048E+03  0.17088819659E+03 0.  0.
        -24    2    3    3    0    0 -0.64591055618E+02  0.20125252401E+02  0.39942659305E+02  0.11225679571E+03  0.80181930017E+02 0.  0.
          6    2    1    2  501    0  0.12598216697E+03 -0.53304845183E+02  0.33009133081E+03  0.39590171572E+03  0.17048451227E+03 0.  0.
         24    2    5    5    0    0  0.10217791905E+03  0.28374394702E+02  0.21699199834E+03  0.25429772760E+03  0.79601341097E+02 0.  0.
          5    1    5    5  501    0  0.23804247919E+02 -0.81679239885E+02  0.11309933246E+03  0.14160398812E+03  0.47000000000E+01 0. -1.
        -11    1    6    6    0    0  0.10499683720E+03  0.92476121003E+01  0.14194239053E+03  0.17679789699E+03  0.00000000000E+00 0.  1.
         12    1    6    6    0    0 -0.28189181497E+01  0.19126782602E+02  0.75049607817E+02  0.77499830617E+02  0.00000000000E+00 0. -1.
         -5    1    3    3    0  503 -0.61391111347E+02  0.33179592781E+02 -0.87022022379E+02  0.11164531476E+03  0.47000000000E+01 0.  1.
         13    1    4    4    0    0 -0.73391364937E+02 -0.87130944336E+01  0.34722688289E+02  0.81657060588E+02  0.00000000000E+00 0. -1.
        -14    1    4    4    0    0  0.88003093185E+01  0.28838346835E+02  0.52199710161E+01  0.30599735124E+02  0.00000000000E+00 0.  1.
</event>
<event>
12    1  0.1630640E-001  0.1992496E+03  0.7818608E-02  0.1150548E+00
         21   -1    0    0  503  502  0.00000000000E+00  0.00000000000E+00  0.45598255275E+03  0.45598255275E+03  0.00000000000E+00 0. -1.
         21   -1    0    0  501  503 -0.00000000000E+00 -0.00000000000E+00 -0.16502820475E+03  0.16502820475E+03  0.00000000000E+00 0.  1.
          6    2    1    2  501    0  0.32690410250E+01  0.10154898070E+03 -0.68273665531E+02  0.21062217274E+03  0.17139872850E+03 0.  0.
         24    2    3    3    0    0 -0.44635111721E+02  0.10090542062E+03 -0.83191200528E+02  0.16022529912E+03  0.81099775124E+02 0.  0.
         -6    2    1    2    0  502 -0.32690410250E+01 -0.10154898070E+03  0.35922801353E+03  0.41038858476E+03  0.17044395760E+03 0.  0.
        -24    2    5    5    0    0 -0.66719930278E+02 -0.37452401079E+02  0.17380033004E+03  0.20413654799E+03  0.74906235120E+02 0.  0.
          5    1    3    3  501    0  0.47904152746E+02  0.64356008536E+00  0.14917534998E+02  0.50396873616E+02  0.47000000000E+01 0. -1.
        -13    1    4    4    0    0 -0.81709892649E+01 -0.26441606964E+01 -0.42160051300E+02  0.43025882640E+02  0.00000000000E+00 0.  1.
         14    1    4    4    0    0 -0.36464122456E+02  0.10354958131E+03 -0.41031149228E+02  0.11719941648E+03  0.00000000000E+00 0. -1.
         -5    1    5    5    0  502  0.63450889253E+02 -0.64096579623E+02  0.18542768349E+03  0.20625203677E+03  0.47000000000E+01 0.  1.
         13    1    6    6    0    0 -0.51897840580E+02  0.66350002218E+01  0.13046483520E+03  0.14056486868E+03  0.00000000000E+00 0. -1.
        -14    1    6    6    0    0 -0.14822089697E+02 -0.44087401301E+02  0.43335494843E+02  0.63571679306E+02  0.00000000000E+00 0.  1.
</event>
<event>
12    1  0.1630640E-001  0.2061914E+03  0.7818608E-02  0.1145993E+00
         21   -1    0    0  503  502  0.00000000000E+00  0.00000000000E+00  0.53725778661E+03  0.53725778661E+03  0.00000000000E+00 0. -1.
         21   -1    0    0  501  503 -0.00000000000E+00 -0.00000000000E+00 -0.11081124571E+03  0.11081124571E+03  0.00000000000E+00 0.  1.
          6    2    1    2  501    0 -0.77348251723E+02 -0.66448271521E+02  0.39084256449E+03  0.43882626848E+03  0.17150060892E+03 0.  0.
         24    2    3    3    0    0  0.20580197936E+02 -0.11879403834E+02  0.10304990453E+03  0.12993397705E+03  0.75490998060E+02 0.  0.
         -6    2    1    2    0  502  0.77348251723E+02  0.66448271521E+02  0.35603976419E+02  0.20924276384E+03  0.17921151261E+03 0.  0.
        -24    2    5    5    0    0  0.58943892162E+02  0.65699266451E+02 -0.44105231908E+02  0.12729809134E+03  0.80428580378E+02 0.  0.
          5    1    3    3  501    0 -0.97928449659E+02 -0.54568867687E+02  0.28779265996E+03  0.30889229143E+03  0.47000000000E+01 0. -1.
        -11    1    4    4    0    0 -0.98469284922E+01 -0.37866901857E+02  0.51393172394E+02  0.64591968740E+02  0.00000000000E+00 0.  1.
         12    1    4    4    0    0  0.30427126428E+02  0.25987498023E+02  0.51656732131E+02  0.65342008314E+02  0.00000000000E+00 0. -1.
         -5    1    5    5    0  502  0.18404359561E+02  0.74900507068E+00  0.79709208327E+02  0.81944672503E+02  0.47000000000E+01 0.  1.
         11    1    6    6    0    0 -0.59084012801E+00 -0.16001890780E+02  0.20961352973E+01  0.16149408156E+02  0.00000000000E+00 0. -1.
        -12    1    6    6    0    0  0.59534732290E+02  0.81701157231E+02 -0.46201367205E+02  0.11114868318E+03  0.00000000000E+00 0.  1.
</event>
<event>
12    1  0.1630640E-001  0.2261373E+03  0.7818608E-02  0.1129458E+00
         21   -1    0    0  501  502  0.00000000000E+00  0.00000000000E+00  0.51878050433E+02  0.51878050433E+02  0.00000000000E+00 0. -1.
         21   -1    0    0  502  503 -0.00000000000E+00 -0.00000000000E+00 -0.99090548231E+03  0.99090548231E+03  0.00000000000E+00 0. -1.
         -6    2    1    2    0  503 -0.31287355540E+01 -0.14545982784E+03 -0.51250653325E+03  0.56002258267E+03  0.17260937396E+03 0.  0.
        -24    2    3    3    0    0 -0.64458911218E+02 -0.96245456845E+02 -0.38594269308E+03  0.41094562135E+03  0.80662272247E+02 0.  0.
          6    2    1    2  501    0  0.31287355540E+01  0.14545982784E+03 -0.42652089862E+03  0.48276095006E+03  0.17311761160E+03 0.  0.
         24    2    5    5    0    0 -0.48244719029E+02  0.14280495078E+03 -0.36395345945E+03  0.40162492445E+03  0.78228207276E+02 0.  0.
          5    1    5    5  501    0  0.51373454583E+02  0.26548770640E+01 -0.62567439176E+02  0.81136025618E+02  0.47000000000E+01 0. -1.
        -13    1    6    6    0    0 -0.30046013789E+00 -0.54650097101E+01 -0.58152035120E+02  0.58409038650E+02  0.00000000000E+00 0.  1.
         14    1    6    6    0    0 -0.47944258891E+02  0.14826996049E+03 -0.30580142433E+03  0.34321588580E+03  0.00000000000E+00 0. -1.
         -5    1    3    3    0  503  0.61330175664E+02 -0.49214370996E+02 -0.12656384017E+03  0.14907696133E+03  0.47000000000E+01 0.  1.
         11    1    4    4    0    0 -0.38073606367E+02 -0.10060295395E+03 -0.34992861330E+03  0.36608822468E+03  0.00000000000E+00 0. -1.
        -12    1    4    4    0    0 -0.26385304851E+02  0.43574971074E+01 -0.36014079782E+02  0.44857396666E+02  0.00000000000E+00 0.  1.
</event>
<event>
12    1  0.1630640E-001  0.1853719E+03  0.7818608E-02  0.1162866E+00
         21   -1    0    0  503  502  0.00000000000E+00  0.00000000000E+00  0.77155593819E+03  0.77155593819E+03  0.00000000000E+00 0. -1.
         21   -1    0    0  501  503 -0.00000000000E+00 -0.00000000000E+00 -0.45848545310E+02  0.45848545310E+02  0.00000000000E+00 0. -1.
          6    2    1    2  501    0  0.65064226488E+02 -0.25754496270E+02  0.28878043490E+03  0.34278049966E+03  0.17090255620E+03 0.  0.
         24    2    3    3    0    0  0.45693375805E+02 -0.49249601505E+02  0.79721434579E+02  0.13146318981E+03  0.80085300162E+02 0.  0.
         -6    2    1    2    0  502 -0.65064226488E+02  0.25754496270E+02  0.43692695798E+03  0.47462398384E+03  0.17165695962E+03 0.  0.
        -24    2    5    5    0    0 -0.10815571588E+03  0.16447346605E+01  0.33751693773E+03  0.36352673281E+03  0.80830923414E+02 0.  0.
          5    1    3    3  501    0  0.19370850683E+02  0.23495105235E+02  0.20905900032E+03  0.21131730985E+03  0.47000000000E+01 0. -1.
        -11    1    4    4    0    0 -0.76099534875E+00 -0.56010786321E+02  0.54584814440E+02  0.78213101624E+02  0.00000000000E+00 0.  1.
         12    1    4    4    0    0  0.46454371154E+02  0.67611848166E+01  0.25136620139E+02  0.53250088182E+02  0.00000000000E+00 0. -1.
         -5    1    5    5    0  502  0.43091489389E+02  0.24109761609E+02  0.99410020244E+02  0.11109725104E+03  0.47000000000E+01 0.  1.
         13    1    6    6    0    0 -0.10601100400E+03  0.26347474572E+02  0.25626168544E+03  0.27857238522E+03  0.00000000000E+00 0. -1.
        -14    1    6    6    0    0 -0.21447118809E+01 -0.24702739911E+02  0.81255252298E+02  0.84954347588E+02  0.00000000000E+00 0.  1.
</event>
<event>
12    1  0.1630640E-001  0.1967587E+03  0.7818608E-02  0.1152675E+00
         21   -1    0    0  503  502  0.00000000000E+00  0.00000000000E+00  0.82460355301E+03  0.82460355301E+03  0.00000000000E+00 0. -1.
         21   -1    0    0  501  503 -0.00000000000E+00 -0.00000000000E+00 -0.27299208102E+03  0.27299208102E+03  0.00000000000E+00 0. -1.
          6    2    1    2  501    0  0.90430312629E+02  0.27949900682E+02 -0.22369061458E+03  0.29791188711E+03  0.17249684936E+03 0.  0.
         24    2    3    3    0    0  0.10843287351E+02  0.70303278281E+02 -0.11691850327E+03  0.15808958224E+03  0.79134390675E+02 0.  0.
         -6    2    1    2    0  502 -0.90430312629E+02 -0.27949900682E+02  0.77530208657E+03  0.79968374691E+03  0.17158651240E+03 0.  0.
        -24    2    5    5    0    0 -0.10081181539E+03  0.31753857271E+02  0.58592279543E+03  0.60078950308E+03  0.80443615267E+02 0.  0.
          5    1    3    3  501    0  0.79587025278E+02 -0.42353377599E+02 -0.10677211131E+03  0.13982230488E+03  0.47000000000E+01 0. -1.
        -11    1    4    4    0    0 -0.13016072843E+02  0.14727914882E+02 -0.89591112718E+02  0.91721846400E+02  0.00000000000E+00 0.  1.
         12    1    4    4    0    0  0.23859360194E+02  0.55575363399E+02 -0.27327390552E+02  0.66367735838E+02  0.00000000000E+00 0. -1.
         -5    1    5    5    0  502  0.10381502763E+02 -0.59703757953E+02  0.18937929115E+03  0.19889424383E+03  0.47000000000E+01 0.  1.
         11    1    6    6    0    0 -0.89808930984E+02  0.22042376026E+02  0.57526962257E+03  0.58265482842E+03  0.00000000000E+00 0. -1.
        -12    1    6    6    0    0 -0.11002884408E+02  0.97114812454E+01  0.10653172857E+02  0.18134674665E+02  0.00000000000E+00 0.  1.
</event>
<event>
12    1  0.1630640E-001  0.2132320E+03  0.7818608E-02  0.1139038E+00
         21   -1    0    0  503  502  0.00000000000E+00  0.00000000000E+00  0.40826415079E+03  0.40826415079E+03  0.00000000000E+00 0.  1.
         21   -1    0    0  501  503 -0.00000000000E+00 -0.00000000000E+00 -0.23927678123E+03  0.23927678123E+03  0.00000000000E+00 0.  1.
          6    2    1    2  501    0 -0.12271252114E+03  0.30651566267E+02 -0.15224371031E+03  0.26197994220E+03  0.17163176113E+03 0.  0.
         24    2    3    3    0    0 -0.67152206910E+00  0.58063256880E+01 -0.26168285842E+02  0.84699390283E+02  0.80343283295E+02 0.  0.
         -6    2    1    2    0  502  0.12271252114E+03 -0.30651566267E+02  0.32123107987E+03  0.38556098982E+03  0.17166825227E+03 0.  0.
        -24    2    5    5    0    0  0.16330996954E+02 -0.49625566137E+02  0.92067193961E+02  0.13215377215E+03  0.79112913073E+02 0.  0.
          5    1    3    3  501    0 -0.12204099907E+03  0.24845240579E+02 -0.12607542447E+03  0.17728055192E+03  0.47000000000E+01 0. -1.
        -13    1    4    4    0    0 -0.28955623289E+02  0.84344722910E+01 -0.42362567584E+02  0.52001495893E+02  0.00000000000E+00 0.  1.
         14    1    4    4    0    0  0.28284101220E+02 -0.26281466030E+01  0.16194281742E+02  0.32697894390E+02  0.00000000000E+00 0. -1.
         -5    1    5    5    0  502  0.10638152419E+03  0.18973999870E+02  0.22916388591E+03  0.25340721767E+03  0.47000000000E+01 0.  1.
         13    1    6    6    0    0  0.27909704216E+02 -0.22143191709E+02  0.26353975698E+00  0.35627825947E+02  0.00000000000E+00 0. -1.
        -14    1    6    6    0    0 -0.11578707262E+02 -0.27482374428E+02  0.91803654204E+02  0.96525946208E+02  0.00000000000E+00 0.  1.
</event>
<event>
12    1  0.1630640E-001  0.2581335E+03  0.7818608E-02  0.1108600E+00
         21   -1    0    0  501  502  0.00000000000E+00  0.00000000000E+00  0.93959041231E+02  0.93959041231E+02  0.00000000000E+00 0.  1.
         21   -1    0    0  502  503 -0.00000000000E+00 -0.00000000000E+00 -0.75748154556E+03  0.75748154556E+03  0.00000000000E+00 0. -1.
         -6    2    1    2    0  503 -0.18119877372E+03  0.63522797882E+02 -0.44440237704E+03  0.51284561191E+03  0.16926017691E+03 0.  0.
        -24    2    3    3    0    0 -0.48318235728E+02  0.72583833254E+02 -0.15737733450E+03  0.19638897225E+03  0.78726985550E+02 0.  0.
          6    2    1    2  501    0  0.18119877372E+03 -0.63522797882E+02 -0.21912012729E+03  0.33859497488E+03  0.17252473847E+03 0.  0.
         24    2    5    5    0    0  0.15598626693E+03 -0.91372486877E+02 -0.22842835272E+03  0.29960768546E+03  0.70032892491E+02 0.  0.
          5    1    5    5  501    0  0.25212506788E+02  0.27849688995E+02  0.93082254322E+01  0.38987289420E+02  0.47000000000E+01 0. -1.
        -13    1    6    6    0    0  0.95165832691E+01 -0.33714730945E+02 -0.28575468584E+02  0.45208470939E+02  0.00000000000E+00 0.  1.
         14    1    6    6    0    0  0.14646968366E+03 -0.57657755932E+02 -0.19985288414E+03  0.25439921452E+03  0.00000000000E+00 0. -1.
         -5    1    3    3    0  503 -0.13288053799E+03 -0.90610353722E+01 -0.28702504253E+03  0.31645663965E+03  0.47000000000E+01 0.  1.
         11    1    4    4    0    0 -0.37094904441E+02  0.95344685819E+01 -0.11071201973E+03  0.11714985846E+03  0.00000000000E+00 0. -1.
        -12    1    4    4    0    0 -0.11223331287E+02  0.63049364672E+02 -0.46665314778E+02  0.79239113789E+02  0.00000000000E+00 0.  1.
</event>
<event>
12    1  0.1630640E-001  0.2229952E+03  0.7818608E-02  0.1131938E+00
         21   -1    0    0  501  502  0.00000000000E+00  0.00000000000E+00  0.23767613698E+03  0.23767613698E+03  0.00000000000E+00 0.  1.
         21   -1    0    0  502  503 -0.00000000000E+00 -0.00000000000E+00 -0.21551464153E+03  0.21551464153E+03  0.00000000000E+00 0. -1.
         -6    2    1    2    0  503 -0.13902517753E+03 -0.59761812885E+01  0.53770052516E+02  0.22796648544E+03  0.17237686970E+03 0.  0.
        -24    2    3    3    0    0 -0.13402141242E+03 -0.34190629176E+02 -0.10695733963E+02  0.15726273475E+03  0.74070445572E+02 0.  0.
          6    2    1    2  501    0  0.13902517753E+03  0.59761812885E+01 -0.31608557063E+02  0.22522429307E+03  0.17425029865E+03 0.  0.
         24    2    5    5    0    0  0.17528563611E+02  0.32084090404E+02 -0.89757712322E+01  0.98822619399E+02  0.91371254979E+02 0.  0.
          5    1    5    5  501    0  0.12149661392E+03 -0.26107909116E+02 -0.22632785830E+02  0.12640167367E+03  0.47000000000E+01 0. -1.
        -11    1    6    6    0    0  0.11031204397E+01  0.12775013603E+02  0.40906112242E+02  0.42868728299E+02  0.00000000000E+00 0.  1.
         12    1    6    6    0    0  0.16425443171E+02  0.19309076801E+02 -0.49881883474E+02  0.55953891100E+02  0.00000000000E+00 0. -1.
         -5    1    3    3    0  503 -0.50037651092E+01  0.28214447888E+02  0.64465786479E+02  0.70703750687E+02  0.47000000000E+01 0.  1.
         11    1    4    4    0    0 -0.29763460062E+02 -0.34087738196E+02  0.18662207051E+02  0.48950131994E+02  0.00000000000E+00 0. -1.
        -12    1    4    4    0    0 -0.10425795236E+03 -0.10289098006E+00 -0.29357941014E+02  0.10831260276E+03  0.00000000000E+00 0.  1.
</event>
<event>
12    1  0.1630640E-001  0.2141182E+03  0.7818608E-02  0.1138543E+00
         21   -1    0    0  503  502  0.00000000000E+00  0.00000000000E+00  0.13002618267E+04  0.13002618267E+04  0.00000000000E+00 0. -1.
         21   -1    0    0  501  503 -0.00000000000E+00 -0.00000000000E+00 -0.13480362720E+03  0.13480362720E+03  0.00000000000E+00 0. -1.
          6    2    1    2  501    0 -0.62926681687E+02 -0.10883236633E+03 -0.34743736788E+02  0.21591358279E+03  0.17206770982E+03 0.  0.
         24    2    3    3    0    0  0.31894096810E+02 -0.47368771856E+02 -0.36965490938E+02  0.10279515074E+03  0.77067253330E+02 0.  0.
         -6    2    1    2    0  502  0.62926681687E+02  0.10883236633E+03  0.12002019363E+04  0.12191518712E+04  0.17332727922E+03 0.  0.
        -24    2    5    5    0    0 -0.17766609843E+02  0.95841189037E+02  0.85181549898E+03  0.86127566669E+03  0.81883721169E+02 0.  0.
          5    1    3    3  501    0 -0.94820778497E+02 -0.61463594470E+02  0.22217541509E+01  0.11311843206E+03  0.47000000000E+01 0. -1.
        -11    1    4    4    0    0  0.49259692241E+01 -0.16624436261E+02 -0.55316633381E+02  0.57970397466E+02  0.00000000000E+00 0.  1.
         12    1    4    4    0    0  0.26968127586E+02 -0.30744335594E+02  0.18351142443E+02  0.44824753269E+02  0.00000000000E+00 0. -1.
         -5    1    5    5    0  502  0.80693291530E+02  0.12991177288E+02  0.34838643735E+03  0.35787620446E+03  0.47000000000E+01 0.  1.
         11    1    6    6    0    0  0.13714629214E+01  0.56182694186E+02  0.72221972927E+03  0.72440300481E+03  0.00000000000E+00 0. -1.
        -12    1    6    6    0    0 -0.19138072764E+02  0.39658494850E+02  0.12959576971E+03  0.13687266188E+03  0.00000000000E+00 0.  1.
</event>
<event>
12    1  0.1630640E-001  0.2007589E+03  0.7818608E-02  0.1149344E+00
         21   -1    0    0  501  502  0.00000000000E+00  0.00000000000E+00  0.12499661694E+03  0.12499661694E+03  0.00000000000E+00 0.  1.
         21   -1    0    0  502  503 -0.00000000000E+00 -0.00000000000E+00 -0.43736805671E+03  0.43736805671E+03  0.00000000000E+00 0.  1.
         -6    2    1    2    0  503  0.80901071716E+02  0.62535437689E+02 -0.30114899127E+03  0.36129230210E+03  0.17142271798E+03 0.  0.
        -24    2    3    3    0    0  0.70378485987E+02  0.38808755777E+02 -0.31177979886E+03  0.33285316858E+03  0.84411717475E+02 0.  0.
          6    2    1    2  501    0 -0.80901071716E+02 -0.62535437689E+02 -0.11222448498E+02  0.20107237155E+03  0.17276715799E+03 0.  0.
         24    2    5    5    0    0 -0.54475181241E+01  0.23345524679E+02 -0.35120541110E+02  0.84187867544E+02  0.72659862769E+02 0.  0.
          5    1    5    5  501    0 -0.75453553592E+02 -0.85880962368E+02  0.23898092612E+02  0.11688450401E+03  0.47000000000E+01 0. -1.
        -13    1    6    6    0    0 -0.24384015573E+02 -0.16519378226E+02 -0.25634328426E+02  0.39045983996E+02  0.00000000000E+00 0.  1.
         14    1    6    6    0    0  0.18936497448E+02  0.39864902904E+02 -0.94862126846E+01  0.45141883548E+02  0.00000000000E+00 0. -1.
         -5    1    3    3    0  503  0.10522585729E+02  0.23726681912E+02  0.10630807585E+02  0.28439133512E+02  0.47000000000E+01 0.  1.
         13    1    4    4    0    0 -0.35037833735E+01 -0.20060681006E+02 -0.80230213391E+02  0.82774359322E+02  0.00000000000E+00 0. -1.
        -14    1    4    4    0    0  0.73882269361E+02  0.58869436783E+02 -0.23154958547E+03  0.25007880926E+03  0.00000000000E+00 0.  1.
</event>
<event>
12    1  0.1630640E-001  0.1724468E+03  0.7818608E-02  0.1175523E+00
         21   -1    0    0  503  502  0.00000000000E+00  0.00000000000E+00  0.63759545099E+02  0.63759545099E+02  0.00000000000E+00 0.  1.
         21   -1    0    0  501  503 -0.00000000000E+00 -0.00000000000E+00 -0.18402048988E+04  0.18402048988E+04  0.00000000000E+00 0.  1.
          6    2    1    2  501    0  0.27631565814E+01  0.53296735008E+01 -0.17119165358E+04  0.17205801752E+04  0.17234231430E+03 0.  0.
         24    2    3    3    0    0 -0.39650930461E+02 -0.22057003823E+01 -0.15433018685E+04  0.15464861412E+04  0.90893708665E+02 0.  0.
         -6    2    1    2    0  502 -0.27631565814E+01 -0.53296735008E+01 -0.64528817924E+02  0.18338426872E+03  0.17155110381E+03 0.  0.
        -24    2    5    5    0    0 -0.12980923893E+02 -0.51955907883E+01  0.31551736570E+02  0.86647596775E+02  0.79478269971E+02 0.  0.
          5    1    3    3  501    0  0.42414087043E+02  0.75353738831E+01 -0.16861466733E+03  0.17409403401E+03  0.47000000000E+01 0. -1.
        -13    1    4    4    0    0 -0.11606450574E+02  0.18087005947E+02 -0.13459364371E+04  0.13461079979E+04  0.00000000000E+00 0.  1.
         14    1    4    4    0    0 -0.28044479887E+02 -0.20292706330E+02 -0.19736543140E+03  0.20037814326E+03  0.00000000000E+00 0. -1.
         -5    1    5    5    0  502  0.10217767312E+02 -0.13408271247E+00 -0.96080554494E+02  0.96736671944E+02  0.47000000000E+01 0.  1.
         11    1    6    6    0    0 -0.12707765383E+02 -0.23211467276E+02 -0.19264262398E+02  0.32731808992E+02  0.00000000000E+00 0. -1.
        -12    1    6    6    0    0 -0.27315851042E+00  0.18015876488E+02  0.50815998968E+02  0.53915787783E+02  0.00000000000E+00 0.  1.
</event>
<event>
12    1  0.1630640E-001  0.2010976E+03  0.7818608E-02  0.1148997E+00
         21   -1    0    0  503  502  0.00000000000E+00  0.00000000000E+00  0.24658661243E+03  0.24658661243E+03  0.00000000000E+00 0. -1.
         21   -1    0    0  501  503 -0.00000000000E+00 -0.00000000000E+00 -0.19623136954E+03  0.19623136954E+03  0.00000000000E+00 0.  1.
          6    2    1    2  501    0  0.18414445210E+02 -0.10229017418E+03  0.11592753101E+03  0.23211944920E+03  0.17215654133E+03 0.  0.
         24    2    3    3    0    0 -0.31533979639E+02 -0.83231657000E+02  0.10454844564E+02  0.11377820614E+03  0.70101895964E+02 0.  0.
         -6    2    1    2    0  502 -0.18414445210E+02  0.10229017418E+03 -0.65572288131E+02  0.21069853278E+03  0.17114840115E+03 0.  0.
        -24    2    5    5    0    0  0.11616988371E+02  0.55328141170E+02 -0.10436494914E+03  0.14262298580E+03  0.79076645381E+02 0.  0.
          5    1    3    3  501    0  0.49948424849E+02 -0.19058517182E+02  0.10547268645E+03  0.11834124306E+03  0.47000000000E+01 0. -1.
        -13    1    4    4    0    0 -0.40860681086E+02 -0.13961258555E+02  0.54271181790E+00  0.43183405787E+02  0.00000000000E+00 0.  1.
         14    1    4    4    0    0  0.93267014477E+01 -0.69270398445E+02  0.99121327456E+01  0.70594800348E+02  0.00000000000E+00 0. -1.
         -5    1    5    5    0  502 -0.30031433582E+02  0.46962033012E+02  0.38792661013E+02  0.68075546976E+02  0.47000000000E+01 0.  1.
         13    1    6    6    0    0  0.17986540705E+01  0.11918082707E+02  0.12624082617E+02  0.17454034313E+02  0.00000000000E+00 0. -1.
        -14    1    6    6    0    0  0.98183343009E+01  0.43410058463E+02 -0.11698903176E+03  0.12516895149E+03  0.00000000000E+00 0.  1.
</event>
<event>
12    1  0.1630640E-001  0.1948232E+03  0.7818608E-02  0.1156406E+00
         21   -1    0    0  503  502  0.00000000000E+00  0.00000000000E+00  0.75129718883E+02  0.75129718883E+02  0.00000000000E+00 0. -1.
         21   -1    0    0  501  503 -0.00000000000E+00 -0.00000000000E+00 -0.13756638077E+04  0.13756638077E+04  0.00000000000E+00 0. -1.
          6    2    1    2  501    0  0.92696777710E+02 -0.73111564627E+01 -0.12414923139E+04  0.12566858214E+04  0.17120146782E+03 0.  0.
         24    2    3    3    0    0  0.10313822026E+03  0.45994060332E+02 -0.97511922814E+03  0.98479028873E+03  0.78749334095E+02 0.  0.
         -6    2    1    2    0  502 -0.92696777710E+02  0.73111564627E+01 -0.59041774899E+02  0.19410770518E+03  0.15983029882E+03 0.  0.
        -24    2    5    5    0    0 -0.25624147468E+02 -0.30367348267E+02  0.89893248166E+01  0.91303386330E+02  0.81711245373E+02 0.  0.
          5    1    3    3  501    0 -0.10441442555E+02 -0.53305216795E+02 -0.26637308580E+03  0.27189553269E+03  0.47000000000E+01 0. -1.
        -11    1    4    4    0    0  0.92049535561E+02  0.17747230793E+01 -0.66000884452E+03  0.66639923580E+03  0.00000000000E+00 0.  1.
         12    1    4    4    0    0  0.11088684703E+02  0.44219337253E+02 -0.31511038363E+03  0.31839105293E+03  0.00000000000E+00 0. -1.
         -5    1    5    5    0  502 -0.67072630242E+02  0.37678504729E+02 -0.68031099715E+02  0.10280431885E+03  0.47000000000E+01 0.  1.
         11    1    6    6    0    0 -0.13528094624E+02  0.17820739498E+02 -0.23099552249E+02  0.32158628928E+02  0.00000000000E+00 0. -1.
        -12    1    6    6    0    0 -0.12096052844E+02 -0.48188087765E+02  0.32088877065E+02  0.59144757402E+02  0.00000000000E+00 0.  1.
</event>
<event>
12    1  0.1630640E-001  0.2203776E+03  0.7818608E-02  0.1133727E+00
         21   -1    0    0  501  502  0.00000000000E+00  0.00000000000E+00  0.16988729795E+04  0.16988729795E+04  0.00000000000E+00 0.  1.
         21   -1    0    0  502  503 -0.00000000000E+00 -0.00000000000E+00 -0.28550230448E+02  0.28550230448E+02  0.00000000000E+00 0. -1.
         -6    2    1    2    0  503  0.10713464216E+03  0.86517415607E+02  0.80027653666E+03  0.83006555925E+03  0.17205581296E+03 0.  0.
        -24    2    3    3    0    0  0.57258469644E+02 -0.27849410580E+02  0.36000595578E+03  0.37243287040E+03  0.71048101606E+02 0.  0.
          6    2    1    2  501    0 -0.10713464216E+03 -0.86517415607E+02  0.87004621238E+03  0.89735765068E+03  0.17119359454E+03 0.  0.
         24    2    5    5    0    0 -0.34661250511E+02 -0.42805619473E+02  0.70509235295E+03  0.71189881601E+03  0.81307900599E+02 0.  0.
          5    1    5    5  501    0 -0.72473391649E+02 -0.43711796134E+02  0.16495385943E+03  0.18545883467E+03  0.47000000000E+01 0. -1.
        -11    1    6    6    0    0  0.13177066038E+02  0.17071827810E+02  0.15361380186E+03  0.15512021949E+03  0.00000000000E+00 0.  1.
         12    1    6    6    0    0 -0.47838316549E+02 -0.59877447284E+02  0.55147855109E+03  0.55677859652E+03  0.00000000000E+00 0. -1.
         -5    1    3    3    0  503  0.49876172517E+02  0.11436682619E+03  0.44027058088E+03  0.45763268886E+03  0.47000000000E+01 0.  1.
         13    1    4    4    0    0  0.10088843708E+02 -0.20969397344E+02  0.26615012505E+03  0.26716547205E+03  0.00000000000E+00 0. -1.
        -14    1    4    4    0    0  0.47169625936E+02 -0.68800132356E+01  0.93855830727E+02  0.10526739835E+03  0.00000000000E+00 0.  1.
</event>
<event>
12    1  0.1630640E-001  0.2097701E+03  0.7818608E-02  0.1142652E+00
         21   -1    0    0  501  502  0.00000000000E+00  0.00000000000E+00  0.23590490473E+04  0.23590490473E+04  0.00000000000E+00 0.  1.
         21   -1    0    0  502  503 -0.00000000000E+00 -0.00000000000E+00 -0.19761462757E+02  0.19761462757E+02  0.00000000000E+00 0. -1.
         -6    2    1    2    0  503  0.40726941528E+02  0.10461188790E+03  0.82950570008E+03  0.85452548219E+03  0.17184807940E+03 0.  0.
        -24    2    3    3    0    0  0.70973189868E+02  0.12301080760E+03  0.57259648412E+03  0.59514585495E+03  0.78504793274E+02 0.  0.
          6    2    1    2  501    0 -0.40726941528E+02 -0.10461188790E+03  0.15097818845E+04  0.15242850279E+04  0.17720377159E+03 0.  0.
         24    2    5    5    0    0 -0.54890741548E+02 -0.14052420255E+03  0.12195580863E+04  0.12314672508E+04  0.80184903831E+02 0.  0.
          5    1    5    5  501    0  0.14163800020E+02  0.35912314645E+02  0.29022379819E+03  0.29281777714E+03  0.47000000000E+01 0. -1.
        -11    1    6    6    0    0 -0.44220745063E+02 -0.19997669151E+02  0.28396930282E+03  0.28808669877E+03  0.00000000000E+00 0.  1.
         12    1    6    6    0    0 -0.10669996485E+02 -0.12052653339E+03  0.93558878348E+03  0.94338055198E+03  0.00000000000E+00 0. -1.
         -5    1    3    3    0  503 -0.30246248340E+02 -0.18398919699E+02  0.25690921596E+03  0.25937962724E+03  0.47000000000E+01 0.  1.
         13    1    4    4    0    0  0.32678124368E+02  0.86129428037E+02  0.21917138562E+03  0.23774405242E+03  0.00000000000E+00 0. -1.
        -14    1    4    4    0    0  0.38295065500E+02  0.36881379563E+02  0.35342509850E+03  0.35740180252E+03  0.00000000000E+00 0.  1.
</event>
<event>
12    1  0.1630640E-001  0.2375106E+03  0.7818608E-02  0.1122634E+00
         21   -1    0    0  503  502  0.00000000000E+00  0.00000000000E+00  0.14458518618E+03  0.14458518618E+03  0.00000000000E+00 0.  1.
         21   -1    0    0  501  503 -0.00000000000E+00 -0.00000000000E+00 -0.43531947360E+03  0.43531947360E+03  0.00000000000E+00 0. -1.
          6    2    1    2  501    0  0.13237005557E+03 -0.65032039767E+02 -0.25148372722E+03  0.34591232625E+03  0.18617270098E+03 0.  0.
         24    2    3    3    0    0  0.13645023897E+03 -0.10835252369E+03 -0.17986091422E+03  0.26197646047E+03  0.76959601550E+02 0.  0.
         -6    2    1    2    0  502 -0.13237005557E+03  0.65032039767E+02 -0.39250560198E+02  0.23399233352E+03  0.17737194779E+03 0.  0.
        -24    2    5    5    0    0 -0.46932968389E+02  0.83157625104E+02 -0.68668559912E+02  0.14171264227E+03  0.79051930555E+02 0.  0.
          5    1    3    3  501    0 -0.40801834007E+01  0.43320483920E+02 -0.71622812997E+02  0.83935865786E+02  0.47000000000E+01 0. -1.
        -13    1    4    4    0    0  0.69734768661E+02 -0.66791355116E+02 -0.46497176784E+02  0.10717280685E+03  0.00000000000E+00 0.  1.
         14    1    4    4    0    0  0.66715470308E+02 -0.41561168572E+02 -0.13336373744E+03  0.15480365362E+03  0.00000000000E+00 0. -1.
         -5    1    5    5    0  502 -0.85437087180E+02 -0.18125585337E+02  0.29417999715E+02  0.92279691248E+02  0.47000000000E+01 0.  1.
         11    1    6    6    0    0 -0.57214309641E+02  0.62902532626E+02 -0.79626259786E+02  0.11649269113E+03  0.00000000000E+00 0. -1.
        -12    1    6    6    0    0  0.10281341252E+02  0.20255092479E+02  0.10957699873E+02  0.25219951145E+02  0.00000000000E+00 0.  1.
</event>
<event>
12    1  0.1630640E-001  0.2565126E+03  0.7818608E-02  0.1109361E+00
         21   -1    0    0  501  502  0.00000000000E+00  0.00000000000E+00  0.21143427799E+03  0.21143427799E+03  0.00000000000E+00 0.  1.
         21   -1    0    0  502  503 -0.00000000000E+00 -0.00000000000E+00 -0.32236773026E+03  0.32236773026E+03  0.00000000000E+00 0.  1.
         -6    2    1    2    0  503  0.14563818276E+03  0.12267741668E+03 -0.10700910644E+03  0.27793827087E+03  0.17186769538E+03 0.  0.
        -24    2    3    3    0    0  0.91352883944E+02  0.76540224034E+01 -0.93542305437E+02  0.14995108547E+03  0.73015283759E+02 0.  0.
          6    2    1    2  501    0 -0.14563818276E+03 -0.12267741668E+03 -0.39243458356E+01  0.25586373738E+03  0.17085263468E+03 0.  0.
         24    2    5    5    0    0 -0.16368294652E+03 -0.11492902495E+03 -0.35210740421E+02  0.21862693355E+03  0.80976243878E+02 0.  0.
          5    1    5    5  501    0  0.18044763767E+02 -0.77483917287E+01  0.31286394586E+02  0.37236803836E+02  0.47000000000E+01 0. -1.
        -13    1    6    6    0    0 -0.73155363379E+02 -0.87177145767E+02  0.89359458857E+01  0.11415521479E+03  0.00000000000E+00 0.  1.
         14    1    6    6    0    0 -0.90527583144E+02 -0.27751879188E+02 -0.44146686307E+02  0.10447171876E+03  0.00000000000E+00 0. -1.
         -5    1    3    3    0  503  0.54285298812E+02  0.11502339428E+03 -0.13466801000E+02  0.12798718541E+03  0.47000000000E+01 0.  1.
         13    1    4    4    0    0  0.25332143111E+02 -0.21568847209E+02 -0.19550093332E+01  0.33327986828E+02  0.00000000000E+00 0. -1.
        -14    1    4    4    0    0  0.66020740833E+02  0.29222869612E+02 -0.91587296104E+02  0.11662309864E+03  0.00000000000E+00 0.  1.
</event>
<event>
12    1  0.1630640E-001  0.1894406E+03  0.7818608E-02  0.1159066E+00
         21   -1    0    0  501  502  0.00000000000E+00  0.00000000000E+00  0.71178264177E+03  0.71178264177E+03  0.00000000000E+00 0.  1.
         21   -1    0    0  502  503 -0.00000000000E+00 -0.00000000000E+00 -0.71329762182E+02  0.71329762182E+02  0.00000000000E+00 0.  1.
         -6    2    1    2    0  503  0.77307014427E+02 -0.14827275085E+02  0.10789615196E+03  0.21801224426E+03  0.17231232247E+03 0.  0.
        -24    2    3    3    0    0  0.11646416380E+03 -0.26846415216E+02  0.10268633260E+03  0.17645536404E+03  0.79419022501E+02 0.  0.
          6    2    1    2  501    0 -0.77307014427E+02  0.14827275085E+02  0.53255672762E+03  0.56510015969E+03  0.17182927508E+03 0.  0.
         24    2    5    5    0    0 -0.42689988953E+02 -0.55395248469E+02  0.36573053697E+03  0.38075643412E+03  0.79533437897E+02 0.  0.
          5    1    5    5  501    0 -0.34617025474E+02  0.70222523554E+02  0.16682619066E+03  0.18434372557E+03  0.47000000000E+01 0. -1.
        -11    1    6    6    0    0 -0.14391047308E+02 -0.57307107884E+00  0.24266715122E+03  0.24309417297E+03  0.00000000000E+00 0.  1.
         12    1    6    6    0    0 -0.28298941644E+02 -0.54822177390E+02  0.12306338575E+03  0.13766226114E+03  0.00000000000E+00 0. -1.
         -5    1    3    3    0  503 -0.39157149372E+02  0.12019140131E+02  0.52098193586E+01  0.41556880226E+02  0.47000000000E+01 0.  1.
         13    1    4    4    0    0  0.57332409318E+02  0.95676540574E+01  0.88018075614E+02  0.10547856084E+03  0.00000000000E+00 0. -1.
        -14    1    4    4    0    0  0.59131754480E+02 -0.36414069273E+02  0.14668256991E+02  0.70976803197E+02  0.00000000000E+00 0.  1.
</event>
<event>
12    1  0.1630640E-001  0.1762031E+03  0.7818608E-02  0.1172212E+00
         21   -1    0    0  503  502  0.00000000000E+00  0.00000000000E+00  0.29661407927E+03  0.29661407927E+03  0.00000000000E+00 0.  1.
         21   -1    0    0  501  503 -0.00000000000E+00 -0.00000000000E+00 -0.16075128823E+03  0.16075128823E+03  0.00000000000E+00 0.  1.
          6    2    1    2  501    0 -0.22222931822E+02  0.22653952905E+02 -0.69400189266E+02  0.18684656658E+03  0.17055261033E+03 0.  0.
         24    2    3    3    0    0 -0.74602999864E+02  0.66373833060E+01 -0.16865468029E+02  0.11080586060E+03  0.79898887894E+02 0.  0.
         -6    2    1    2    0  502  0.22222931822E+02 -0.22653952905E+02  0.20526298030E+03  0.27051880091E+03  0.17332186903E+03 0.  0.
        -24    2    5    5    0    0  0.50647279806E+02 -0.33543491791E+02  0.51542254771E+02  0.11374291924E+03  0.81182109221E+02 0.  0.
          5    1    3    3  501    0  0.52380068041E+02  0.16016569599E+02 -0.52534721237E+02  0.76040705975E+02  0.47000000000E+01 0. -1.
        -13    1    4    4    0    0 -0.21145234833E+02 -0.33680417951E+02 -0.18428766752E+02  0.43830479731E+02  0.00000000000E+00 0.  1.
         14    1    4    4    0    0 -0.53457765031E+02  0.40317801257E+02  0.15632987227E+01  0.66975380874E+02  0.00000000000E+00 0. -1.
         -5    1    5    5    0  502 -0.28424347984E+02  0.10889538886E+02  0.15372072553E+03  0.15677588167E+03  0.47000000000E+01 0.  1.
         13    1    6    6    0    0 -0.15056811112E+01 -0.26543303029E+02 -0.13713333055E+02  0.29914369704E+02  0.00000000000E+00 0. -1.
        -14    1    6    6    0    0  0.52152960917E+02 -0.70001887623E+01  0.65255587826E+02  0.83828549538E+02  0.00000000000E+00 0.  1.
</event>
<event>
12    1  0.1630640E-001  0.2155778E+03  0.7818608E-02  0.1137569E+00
         21   -1    0    0  503  502  0.00000000000E+00  0.00000000000E+00  0.69881666929E+02  0.69881666929E+02  0.00000000000E+00 0. -1.
         21   -1    0    0  501  503 -0.00000000000E+00 -0.00000000000E+00 -0.65954380168E+03  0.65954380168E+03  0.00000000000E+00 0. -1.
          6    2    1    2  501    0  0.10323735265E+03  0.80007909404E+02 -0.29869261596E+03  0.36836269969E+03  0.17150680202E+03 0.  0.
         24    2    3    3    0    0 -0.33173450473E+01  0.73857289042E+02 -0.14867840150E+03  0.18419405884E+03  0.79726283712E+02 0.  0.
         -6    2    1    2    0  502 -0.10323735265E+03 -0.80007909404E+02 -0.29096951879E+03  0.36106276892E+03  0.16924492810E+03 0.  0.
        -24    2    5    5    0    0 -0.51635100609E+02  0.23480443617E+02 -0.13992856497E+03  0.17077853059E+03  0.79798423345E+02 0.  0.
          5    1    3    3  501    0  0.10655469770E+03  0.61506203620E+01 -0.15001421446E+03  0.18416864085E+03  0.47000000000E+01 0. -1.
        -11    1    4    4    0    0 -0.27537342013E+02 -0.23282898467E+01 -0.27235919048E+02  0.38801049278E+02  0.00000000000E+00 0.  1.
         12    1    4    4    0    0  0.24219996965E+02  0.76185578889E+02 -0.12144248245E+03  0.14539300956E+03  0.00000000000E+00 0. -1.
         -5    1    5    5    0  502 -0.51602252043E+02 -0.10348835302E+03 -0.15104095382E+03  0.19028423833E+03  0.47000000000E+01 0.  1.
         13    1    6    6    0    0 -0.40490996561E+02 -0.22827681929E+02 -0.45643428261E+02  0.65145578577E+02  0.00000000000E+00 0. -1.
        -14    1    6    6    0    0 -0.11144104048E+02  0.46308125546E+02 -0.94285136710E+02  0.10563295201E+03  0.00000000000E+00 0.  1.
</event>
<event>
12    1  0.1630640E-001  0.2390018E+03  0.7818608E-02  0.1121591E+00
         21   -1    0    0  503  502  0.00000000000E+00  0.00000000000E+00  0.14035212589E+03  0.14035212589E+03  0.00000000000E+00 0. -1.
         21   -1    0    0  501  503 -0.00000000000E+00 -0.00000000000E+00 -0.41963145353E+03  0.41963145353E+03  0.00000000000E+00 0.  1.
          6    2    1    2  501    0  0.10024195774E+03 -0.11952045010E+03 -0.70974909700E+02  0.24294634269E+03  0.17219726925E+03 0.  0.
         24    2    3    3    0    0  0.80300197141E+02 -0.26784249771E+02  0.98582540279E+01  0.11823160007E+03  0.81951256164E+02 0.  0.
         -6    2    1    2    0  502 -0.10024195774E+03  0.11952045010E+03 -0.20830441794E+03  0.31703723673E+03  0.18107537341E+03 0.  0.
        -24    2    5    5    0    0 -0.10167949355E+03  0.11239217798E+03 -0.80129341193E+02  0.18857004608E+03  0.78531712570E+02 0.  0.
          5    1    3    3  501    0  0.19941760595E+02 -0.92736200331E+02 -0.80833163728E+02  0.12471474262E+03  0.47000000000E+01 0. -1.
        -13    1    4    4    0    0 -0.73536041070E+01  0.47459823716E+01 -0.18827673111E+02  0.20762493030E+02  0.00000000000E+00 0.  1.
         14    1    4    4    0    0  0.87653801248E+02 -0.31530232143E+02  0.28685927139E+02  0.97469107044E+02  0.00000000000E+00 0. -1.
         -5    1    5    5    0  502  0.14375358180E+01  0.71282721194E+01 -0.12817507675E+03  0.12846719064E+03  0.47000000000E+01 0.  1.
         13    1    6    6    0    0 -0.65557250203E+02  0.61587437907E+02 -0.38121395715E+01  0.90029428357E+02  0.00000000000E+00 0. -1.
        -14    1    6    6    0    0 -0.36122243351E+02  0.50804740075E+02 -0.76317201621E+02  0.98540617728E+02  0.00000000000E+00 0.  1.
</event>
<event>
12    1  0.1630640E-001  0.2380272E+03  0.7818608E-02  0.1122282E+00
         21   -1    0    0  501  502  0.00000000000E+00  0.00000000000E+00  0.81041353817E+03  0.81041353817E+03  0.00000000000E+00 0. -1.
         21   -1    0    0  502  503 -0.00000000000E+00 -0.00000000000E+00 -0.22237270579E+03  0.22237270579E+03  0.00000000000E+00 0.  1.
         -6    2    1    2    0  503  0.14181638886E+03 -0.60516854198E+02 -0.13502549361E+03  0.27365822317E+03  0.18133604550E+03 0.  0.
        -24    2    3    3    0    0  0.97467465621E+02 -0.10597614509E+03 -0.13035960154E+03  0.20980499562E+03  0.79332592863E+02 0.  0.
          6    2    1    2  501    0 -0.14181638886E+03  0.60516854198E+02  0.72306632599E+03  0.75912802079E+03  0.17226799580E+03 0.  0.
         24    2    5    5    0    0 -0.46831236323E+01  0.33454539722E+01  0.21433409496E+03  0.22912361107E+03  0.80779955298E+02 0.  0.
          5    1    5    5  501    0 -0.13713326523E+03  0.57171400226E+02  0.50873223103E+03  0.53000440972E+03  0.47000000000E+01 0. -1.
        -11    1    6    6    0    0  0.21954895296E+02  0.27192935440E+02  0.50375082042E+02  0.61311679606E+02  0.00000000000E+00 0.  1.
         12    1    6    6    0    0 -0.26638018928E+02 -0.23847481468E+02  0.16395901292E+03  0.16781193146E+03  0.00000000000E+00 0. -1.
         -5    1    3    3    0  503  0.44348923237E+02  0.45459290888E+02 -0.46658920634E+01  0.63853227554E+02  0.47000000000E+01 0.  1.
         11    1    4    4    0    0 -0.10628025254E+02 -0.31152086623E+02 -0.25167429994E+02  0.41434369239E+02  0.00000000000E+00 0. -1.
        -12    1    4    4    0    0  0.10809549087E+03 -0.74824058463E+02 -0.10519217155E+03  0.16837062638E+03  0.00000000000E+00 0.  1.
</event>
<event>
12    1  0.1630640E-001  0.1775148E+03  0.7818608E-02  0.1170377E+00
         21   -1    0    0  503  502  0.00000000000E+00  0.00000000000E+00  0.13498430007E+03  0.13498430007E+03  0.00000000000E+00 0.  1.
         21   -1    0    0  501  503 -0.00000000000E+00 -0.00000000000E+00 -0.26203142164E+03  0.26203142164E+03  0.00000000000E+00 0.  1.
          6    2    1    2  501    0 -0.34048026876E+02 -0.83242622034E+01 -0.13007330657E+03  0.22006943898E+03  0.17401991672E+03 0.  0.
         24    2    3    3    0    0 -0.33338821477E+02  0.17109122737E+02 -0.15853345250E+03  0.18160608046E+03  0.80272746319E+02 0.  0.
         -6    2    1    2    0  502  0.34048026876E+02  0.83242622034E+01  0.30261850010E+01  0.17694628274E+03  0.17341357416E+03 0.  0.
        -24    2    5    5    0    0  0.85873664669E+02 -0.11414417505E+02 -0.15192045801E+02  0.11838429726E+03  0.79243096682E+02 0.  0.
          5    1    3    3  501    0 -0.70920539860E+00 -0.25433384940E+02  0.28460145931E+02  0.38463358514E+02  0.47000000000E+01 0. -1.
        -13    1    4    4    0    0 -0.90466499117E+01 -0.18004821295E+02 -0.30657843616E+01  0.20381719708E+02  0.00000000000E+00 0.  1.
         14    1    4    4    0    0 -0.24292171566E+02  0.35113944032E+02 -0.15546766814E+03  0.16122436076E+03  0.00000000000E+00 0. -1.
         -5    1    5    5    0  502 -0.51825637793E+02  0.19738679709E+02  0.18218230802E+02  0.58561985476E+02  0.47000000000E+01 0.  1.
         13    1    6    6    0    0 -0.42415550144E+01 -0.25504303314E+02 -0.71237982161E+01  0.26818068117E+02  0.00000000000E+00 0. -1.
        -14    1    6    6    0    0  0.90115219683E+02  0.14089885809E+02 -0.80682475850E+01  0.91566229145E+02  0.00000000000E+00 0.  1.
</event>
<event>
12    1  0.1630640E-001  0.1887023E+03  0.7818608E-02  0.1161014E+00
         21   -1    0    0  501  502  0.00000000000E+00  0.00000000000E+00  0.59600054820E+02  0.59600054820E+02  0.00000000000E+00 0.  1.
         21   -1    0    0  502  503 -0.00000000000E+00 -0.00000000000E+00 -0.12697834263E+04  0.12697834263E+04  0.00000000000E+00 0. -1.
         -6    2    1    2    0  503  0.53448900621E+02 -0.55561331200E+02 -0.10998228096E+04  0.11158937075E+04  0.17223445486E+03 0.  0.
        -24    2    3    3    0    0  0.10755972503E+02 -0.98673711788E+02 -0.78626332077E+03  0.79648330300E+03  0.79520123441E+02 0.  0.
          6    2    1    2  501    0 -0.53448900621E+02  0.55561331200E+02 -0.11036056189E+03  0.21348977362E+03  0.16569424649E+03 0.  0.
         24    2    5    5    0    0 -0.52545914704E+02 -0.17704884822E+02 -0.24998595532E+02  0.10089532840E+03  0.80500940467E+02 0.  0.
          5    1    5    5  501    0 -0.90298591707E+00  0.73266216023E+02 -0.85361966361E+02  0.11259444522E+03  0.47000000000E+01 0. -1.
        -13    1    6    6    0    0 -0.16936961977E+02  0.30894931393E+02  0.10683927498E+01  0.35249098285E+02  0.00000000000E+00 0.  1.
         14    1    6    6    0    0 -0.35608952727E+02 -0.48599816216E+02 -0.26066988282E+02  0.65646230117E+02  0.00000000000E+00 0. -1.
         -5    1    3    3    0  503  0.42692928118E+02  0.43112380587E+02 -0.31355948879E+03  0.31941040447E+03  0.47000000000E+01 0.  1.
         11    1    4    4    0    0 -0.26771172130E+02 -0.28654445152E+02 -0.41313052414E+03  0.41498747314E+03  0.00000000000E+00 0. -1.
        -12    1    4    4    0    0  0.37527144633E+02 -0.70019266636E+02 -0.37313279663E+03  0.38149582986E+03  0.00000000000E+00 0.  1.
</event>
<event>
12    1  0.1630640E-001  0.1719098E+03  0.7818608E-02  0.1176278E+00
         21   -1    0    0  501  502  0.00000000000E+00  0.00000000000E+00  0.14257335748E+04  0.14257335748E+04  0.00000000000E+00 0. -1.
         21   -1    0    0  502  503 -0.00000000000E+00 -0.00000000000E+00 -0.27370997008E+02  0.27370997008E+02  0.00000000000E+00 0. -1.
         -6    2    1    2    0  503 -0.26997660626E+01 -0.47109554545E+01  0.33859805787E+03  0.37973890403E+03  0.17182406293E+03 0.  0.
        -24    2    3    3    0    0  0.65879726156E+02 -0.85624460295E+00  0.18460106817E+03  0.21105230591E+03  0.78260143028E+02 0.  0.
          6    2    1    2  501    0  0.26997660626E+01  0.47109554545E+01  0.10597645199E+04  0.10733656678E+04  0.17024552048E+03 0.  0.
         24    2    5    5    0    0  0.65853628119E+02 -0.11371073249E+02  0.68385176128E+03  0.69181680584E+03  0.80568354765E+02 0.  0.
          5    1    5    5  501    0 -0.63153862057E+02  0.16082028703E+02  0.37591275865E+03  0.38154886195E+03  0.47000000000E+01 0. -1.
        -11    1    6    6    0    0 -0.33014320256E+01  0.25004586619E+02  0.12405530492E+03  0.12659323633E+03  0.00000000000E+00 0.  1.
         12    1    6    6    0    0  0.69155060145E+02 -0.36375659868E+02  0.55979645636E+03  0.56522356951E+03  0.00000000000E+00 0. -1.
         -5    1    3    3    0  503 -0.68579492219E+02 -0.38547108515E+01  0.15399698970E+03  0.16868659812E+03  0.47000000000E+01 0.  1.
         11    1    4    4    0    0  0.42241756167E+02  0.12642250150E+01  0.23784569141E+02  0.48494019818E+02  0.00000000000E+00 0. -1.
        -12    1    4    4    0    0  0.23637969990E+02 -0.21204696180E+01  0.16081649903E+03  0.16255828609E+03  0.00000000000E+00 0.  1.
</event>
<event>
12    1  0.1630640E-001  0.2511612E+03  0.7818608E-02  0.1112662E+00
         21   -1    0    0  501  502  0.00000000000E+00  0.00000000000E+00  0.46446842660E+02  0.46446842660E+02  0.00000000000E+00 0.  1.
         21   -1    0    0  502  503 -0.00000000000E+00 -0.00000000000E+00 -0.14367859782E+04  0.14367859782E+04  0.00000000000E+00 0. -1.
         -6    2    1    2    0  503  0.18051292365E+03 -0.29516703327E+02 -0.87125513963E+03  0.90657857107E+03  0.17129809053E+03 0.  0.
        -24    2    3    3    0    0  0.61165417091E+02  0.19246547172E+02 -0.22206737216E+03  0.24469600645E+03  0.80315502666E+02 0.  0.
          6    2    1    2  501    0 -0.18051292365E+03  0.29516703327E+02 -0.51908399590E+03  0.57665424978E+03  0.17212140369E+03 0.  0.
         24    2    5    5    0    0 -0.45314061002E+02  0.56035768543E+02 -0.16712306900E+03  0.19865877713E+03  0.79635532623E+02 0.  0.
          5    1    5    5  501    0 -0.13519886265E+03 -0.26519065217E+02 -0.35196092690E+03  0.37799547266E+03  0.47000000000E+01 0. -1.
        -11    1    6    6    0    0  0.67415615907E+01  0.37777112240E+02 -0.12039621254E+03  0.12636378775E+03  0.00000000000E+00 0.  1.
         12    1    6    6    0    0 -0.52055622592E+02  0.18258656303E+02 -0.46726856463E+02  0.72294989373E+02  0.00000000000E+00 0. -1.
         -5    1    3    3    0  503  0.11934750656E+03 -0.48763250498E+02 -0.64918776747E+03  0.66188256463E+03  0.47000000000E+01 0.  1.
         11    1    4    4    0    0  0.49722229068E+02 -0.18621466516E+02 -0.17669484429E+03  0.18449966688E+03  0.00000000000E+00 0. -1.
        -12    1    4    4    0    0  0.11443188023E+02  0.37868013687E+02 -0.45372527869E+02  0.60196339573E+02  0.00000000000E+00 0.  1.
</event>
<event>
12    1  0.1630640E-001  0.2091431E+03  0.7818608E-02  0.1142315E+00
         21   -1    0    0  501  502  0.00000000000E+00  0.00000000000E+00  0.10620422430E+03  0.10620422430E+03  0.00000000000E+00 0. -1.
         21   -1    0    0  502  503 -0.00000000000E+00 -0.00000000000E+00 -0.12778493914E+04  0.12778493914E+04  0.00000000000E+00 0. -1.
         -6    2    1    2    0  503 -0.71053289142E+02  0.94872964839E+02 -0.11555828444E+04  0.11742946256E+04  0.17189155919E+03 0.  0.
        -24    2    3    3    0    0 -0.40377767568E+01  0.96916956147E+02 -0.94217362013E+03  0.95055181835E+03  0.80302109975E+02 0.  0.
          6    2    1    2  501    0  0.71053289142E+02 -0.94872964839E+02 -0.16062322705E+02  0.20975899010E+03  0.17231188688E+03 0.  0.
         24    2    5    5    0    0  0.12774139240E+02 -0.86692942091E+02 -0.61362587202E+02  0.13534409879E+03  0.82908462331E+02 0.  0.
          5    1    5    5  501    0  0.58279149902E+02 -0.81800227479E+01  0.45300264498E+02  0.74414891312E+02  0.47000000000E+01 0. -1.
        -11    1    6    6    0    0  0.21354147080E+02 -0.10109580742E+03 -0.48130180567E+02  0.11398629811E+03  0.00000000000E+00 0.  1.
         12    1    6    6    0    0 -0.85800078399E+01  0.14402865331E+02 -0.13232406635E+02  0.21357800674E+02  0.00000000000E+00 0. -1.
         -5    1    3    3    0  503 -0.67015512385E+02 -0.20439913077E+01 -0.21340922430E+03  0.22374280730E+03  0.47000000000E+01 0.  1.
         11    1    4    4    0    0 -0.24983400932E+02  0.51199961323E+02 -0.74105969132E+03  0.74324630673E+03  0.00000000000E+00 0. -1.
        -12    1    4    4    0    0  0.20945624176E+02  0.45716994823E+02 -0.20111392881E+03  0.20730551162E+03  0.00000000000E+00 0.  1.
</event>
<event>
12    1  0.1630640E-001  0.2153384E+03  0.7818608E-02  0.1137583E+00
         21   -1    0    0  503  502  0.00000000000E+00  0.00000000000E+00  0.80244412518E+03  0.80244412518E+03  0.00000000000E+00 0. -1.
         21   -1    0    0  501  503 -0.00000000000E+00 -0.00000000000E+00 -0.57675751737E+02  0.57675751737E+02  0.00000000000E+00 0. -1.
          6    2    1    2  501    0  0.88803381946E+02  0.94969686226E+02  0.35081625302E+03  0.41115562113E+03  0.17050401595E+03 0.  0.
         24    2    3    3    0    0  0.11732373061E+03  0.10040616154E+03  0.29395031362E+03  0.34713382316E+03  0.10123660039E+03 0.  0.
         -6    2    1    2    0  502 -0.88803381946E+02 -0.94969686226E+02  0.39395212043E+03  0.44896425579E+03  0.17165473441E+03 0.  0.
        -24    2    5    5    0    0 -0.26707512160E+02 -0.12052294192E+03  0.28071842384E+03  0.31723413030E+03  0.81213232957E+02 0.  0.
          5    1    3    3  501    0 -0.28520348669E+02 -0.54364753152E+01  0.56865939397E+02  0.64021797972E+02  0.47000000000E+01 0. -1.
        -13    1    4    4    0    0  0.73065265091E+02  0.10646735920E+03  0.15812060055E+03  0.20414689773E+03  0.00000000000E+00 0.  1.
         14    1    4    4    0    0  0.44258465524E+02 -0.60611976542E+01  0.13582971308E+03  0.14298692542E+03  0.00000000000E+00 0. -1.
         -5    1    5    5    0  502 -0.62095869786E+02  0.25553255690E+02  0.11323369658E+03  0.13173012549E+03  0.47000000000E+01 0.  1.
         11    1    6    6    0    0  0.86395111413E+01 -0.13537872466E+02  0.14885182432E+01  0.16128571859E+02  0.00000000000E+00 0. -1.
        -12    1    6    6    0    0 -0.35347023301E+02 -0.10698506945E+03  0.27922990560E+03  0.30110555844E+03  0.00000000000E+00 0.  1.
</event>
<event>
12    1  0.1630640E-001  0.1820156E+03  0.7818608E-02  0.1165936E+00
         21   -1    0    0  503  502  0.00000000000E+00  0.00000000000E+00  0.12470720520E+04  0.12470720520E+04  0.00000000000E+00 0. -1.
         21   -1    0    0  501  503 -0.00000000000E+00 -0.00000000000E+00 -0.31678506554E+02  0.31678506554E+02  0.00000000000E+00 0.  1.
          6    2    1    2  501    0  0.14948310703E+02  0.57805840724E+02  0.35018556190E+03  0.39466389305E+03  0.17194386728E+03 0.  0.
         24    2    3    3    0    0  0.66975527620E+02  0.55678381764E+02  0.16801849682E+03  0.20514268848E+03  0.79167568268E+02 0.  0.
         -6    2    1    2    0  502 -0.14948310703E+02 -0.57805840724E+02  0.86520798353E+03  0.88408666549E+03  0.17163743801E+03 0.  0.
        -24    2    5    5    0    0  0.31157486149E+02  0.60435108113E+00  0.24035419924E+03  0.25479989720E+03  0.78623739016E+02 0.  0.
          5    1    3    3  501    0 -0.52027216916E+02  0.21274589599E+01  0.18216706508E+03  0.18952120457E+03  0.47000000000E+01 0. -1.
        -11    1    4    4    0    0  0.10452151025E+02  0.58137320811E+02  0.66683639263E+02  0.89083686933E+02  0.00000000000E+00 0.  1.
         12    1    4    4    0    0  0.56523376595E+02 -0.24589390476E+01  0.10133485756E+03  0.11605900155E+03  0.00000000000E+00 0. -1.
         -5    1    5    5    0  502 -0.46105796852E+02 -0.58410191805E+02  0.62485378428E+03  0.62928676829E+03  0.47000000000E+01 0.  1.
         13    1    6    6    0    0 -0.15359073848E+02 -0.23335142895E+02  0.12580951136E+03  0.12887382663E+03  0.00000000000E+00 0. -1.
        -14    1    6    6    0    0  0.46516559996E+02  0.23939493976E+02  0.11454468789E+03  0.12592607057E+03  0.00000000000E+00 0.  1.
</event>
<event>
12    1  0.1630640E-001  0.2326683E+03  0.7818608E-02  0.1124809E+00
         21   -1    0    0  501  502  0.00000000000E+00  0.00000000000E+00  0.17041610415E+03  0.17041610415E+03  0.00000000000E+00 0. -1.
         21   -1    0    0  502  503 -0.00000000000E+00 -0.00000000000E+00 -0.44085948628E+03  0.44085948628E+03  0.00000000000E+00 0. -1.
         -6    2    1    2    0  503  0.14099898788E+03  0.67203224616E+02 -0.29700560938E+03  0.37728881230E+03  0.17244572452E+03 0.  0.
        -24    2    3    3    0    0  0.14908205831E+03  0.86609441980E+02 -0.29989092340E+03  0.35555514402E+03  0.82208509014E+02 0.  0.
          6    2    1    2  501    0 -0.14099898788E+03 -0.67203224616E+02  0.26562227247E+02  0.23398677812E+03  0.17218383327E+03 0.  0.
         24    2    5    5    0    0 -0.38579508719E+02  0.19430759753E+02 -0.17208431149E+02  0.92801943613E+02  0.80312749412E+02 0.  0.
          5    1    5    5  501    0 -0.10241947916E+03 -0.86633984369E+02  0.43770658396E+02  0.14118483451E+03  0.47000000000E+01 0. -1.
        -13    1    6    6    0    0  0.11952297681E+01  0.40524569934E+02  0.78218996303E+01  0.41289846892E+02  0.00000000000E+00 0.  1.
         14    1    6    6    0    0 -0.39774738487E+02 -0.21093810181E+02 -0.25030330779E+02  0.51512096721E+02  0.00000000000E+00 0. -1.
         -5    1    3    3    0  503 -0.80830704272E+01 -0.19406217364E+02  0.28853140231E+01  0.21733668281E+02  0.47000000000E+01 0.  1.
         13    1    4    4    0    0  0.19346694290E+02 -0.99909060397E+01 -0.77904138726E+02  0.80889848647E+02  0.00000000000E+00 0. -1.
        -14    1    4    4    0    0  0.12973536402E+03  0.96600348020E+02 -0.22198678467E+03  0.27466529538E+03  0.00000000000E+00 0.  1.
</event>
<event>
12    1  0.1630640E-001  0.2055830E+03  0.7818608E-02  0.1146555E+00
         21   -1    0    0  501  502  0.00000000000E+00  0.00000000000E+00  0.11919968364E+03  0.11919968364E+03  0.00000000000E+00 0.  1.
         21   -1    0    0  502  503 -0.00000000000E+00 -0.00000000000E+00 -0.35684413551E+03  0.35684413551E+03  0.00000000000E+00 0.  1.
         -6    2    1    2    0  503 -0.88239586834E+02 -0.44853067273E+02 -0.16429616281E+03  0.25776800818E+03  0.17220073926E+03 0.  0.
        -24    2    3    3    0    0 -0.57292813924E+02  0.40405101947E+01 -0.17303717154E+03  0.19905872523E+03  0.79898192138E+02 0.  0.
          6    2    1    2  501    0  0.88239586834E+02  0.44853067273E+02 -0.73348289066E+02  0.21827581096E+03  0.18018417193E+03 0.  0.
         24    2    5    5    0    0  0.12707831477E+03  0.82075475853E+01 -0.62526454947E+02  0.16358995361E+03  0.81460747786E+02 0.  0.
          5    1    5    5  501    0 -0.38838727939E+02  0.36645519688E+02 -0.10821834119E+02  0.54685857357E+02  0.47000000000E+01 0. -1.
        -11    1    6    6    0    0  0.89865949763E+02  0.29257736084E+02 -0.87842260817E+01  0.94916103351E+02  0.00000000000E+00 0.  1.
         12    1    6    6    0    0  0.37212365010E+02 -0.21050188499E+02 -0.53742228865E+02  0.68673850255E+02  0.00000000000E+00 0. -1.
         -5    1    3    3    0  503 -0.30946772910E+02 -0.48893577468E+02  0.87410087297E+01  0.58709282952E+02  0.47000000000E+01 0.  1.
         13    1    4    4    0    0 -0.12701205954E+02 -0.35291630230E+02 -0.51002464897E+02  0.63309329665E+02  0.00000000000E+00 0. -1.
        -14    1    4    4    0    0 -0.44591607971E+02  0.39332140425E+02 -0.12203470664E+03  0.13574939557E+03  0.00000000000E+00 0.  1.
</event>
<event>
12    1  0.1630640E-001  0.1886121E+03  0.7818608E-02  0.1160102E+00
         21   -1    0    0  501  502  0.00000000000E+00  0.00000000000E+00  0.24507091453E+03  0.24507091453E+03  0.00000000000E+00 0. -1.
         21   -1    0    0  502  503 -0.00000000000E+00 -0.00000000000E+00 -0.26425175900E+03  0.26425175900E+03  0.00000000000E+00 0. -1.
         -6    2    1    2    0  503  0.42071485194E+02  0.63426389837E+02 -0.18149189774E+03  0.26175149306E+03  0.17257351586E+03 0.  0.
        -24    2    3    3    0    0  0.61189207396E+02  0.22884776334E+01 -0.41687806001E+02  0.10789894781E+03  0.78453511956E+02 0.  0.
          6    2    1    2  501    0 -0.42071485194E+02 -0.63426389837E+02  0.16231105328E+03  0.24757118047E+03  0.17074453019E+03 0.  0.
         24    2    5    5    0    0  0.15687105738E+02  0.17429071814E+02  0.10252623691E+03  0.13151096001E+03  0.78953438920E+02 0.  0.
          5    1    5    5  501    0 -0.57758590932E+02 -0.80855461651E+02  0.59784816365E+02  0.11606022046E+03  0.47000000000E+01 0. -1.
        -11    1    6    6    0    0  0.19805040222E+02  0.38523607581E+01  0.11241885311E+03  0.11421505521E+03  0.00000000000E+00 0.  1.
         12    1    6    6    0    0 -0.41179344833E+01  0.13576711056E+02 -0.98926162030E+01  0.17295904800E+02  0.00000000000E+00 0. -1.
         -5    1    3    3    0  503 -0.19117722203E+02  0.61137912203E+02 -0.13980409174E+03  0.15385254525E+03  0.47000000000E+01 0.  1.
         13    1    4    4    0    0  0.39694439435E+02  0.24763965758E+02  0.97497121268E+01  0.47790787906E+02  0.00000000000E+00 0. -1.
        -14    1    4    4    0    0  0.21494767961E+02 -0.22475488125E+02 -0.51437518128E+02  0.60108159906E+02  0.00000000000E+00 0.  1.
</event>
<event>
12    1  0.1630640E-001  0.2375384E+03  0.7818608E-02  0.1121565E+00
         21   -1    0    0  503  502  0.00000000000E+00  0.00000000000E+00  0.38496389917E+03  0.38496389917E+03  0.00000000000E+00 0. -1.
         21   -1    0    0  501  503 -0.00000000000E+00 -0.00000000000E+00 -0.20247749266E+03  0.20247749266E+03  0.00000000000E+00 0. -1.
          6    2    1    2  501    0  0.14502826985E+02  0.16329096836E+03 -0.63604787149E+02  0.24590659737E+03  0.17190175492E+03 0.  0.
         24    2    3    3    0    0 -0.45325396602E+02  0.84009920164E+02  0.40324945532E+01  0.12564940292E+03  0.81605472728E+02 0.  0.
         -6    2    1    2    0  502 -0.14502826985E+02 -0.16329096836E+03  0.24609119366E+03  0.34153479446E+03  0.17091187171E+03 0.  0.
        -24    2    5    5    0    0  0.48748141295E+02 -0.10554144943E+03  0.19916176036E+03  0.24375875632E+03  0.78978134091E+02 0.  0.
          5    1    3    3  501    0  0.59828223587E+02  0.79281048196E+02 -0.67637281703E+02  0.12025719445E+03  0.47000000000E+01 0. -1.
        -13    1    4    4    0    0 -0.12891694104E+02  0.24555864247E+02  0.40225421051E+02  0.48859704711E+02  0.00000000000E+00 0.  1.
         14    1    4    4    0    0 -0.32433702499E+02  0.59454055918E+02 -0.36192926498E+02  0.76789698211E+02  0.00000000000E+00 0. -1.
         -5    1    5    5    0  502 -0.63250968280E+02 -0.57749518928E+02  0.46929433296E+02  0.97776038139E+02  0.47000000000E+01 0.  1.
         11    1    6    6    0    0 -0.17267482431E+02 -0.28573255194E+02  0.23146897434E+02  0.40624816586E+02  0.00000000000E+00 0. -1.
        -12    1    6    6    0    0  0.66015623726E+02 -0.76968194238E+02  0.17601486293E+03  0.20313393973E+03  0.00000000000E+00 0.  1.
</event>
<event>
12    1  0.1630640E-001  0.2183637E+03  0.7818608E-02  0.1135236E+00
         21   -1    0    0  503  502  0.00000000000E+00  0.00000000000E+00  0.31381892938E+03  0.31381892938E+03  0.00000000000E+00 0.  1.
         21   -1    0    0  501  503 -0.00000000000E+00 -0.00000000000E+00 -0.16353443779E+03  0.16353443779E+03  0.00000000000E+00 0.  1.
          6    2    1    2  501    0 -0.89237732950E+02  0.99786596618E+02  0.10437856748E+02  0.21861298332E+03  0.17251652030E+03 0.  0.
         24    2    3    3    0    0 -0.12444904777E+03  0.56478535302E+02 -0.11050864728E+02  0.15861898348E+03  0.79752554003E+02 0.  0.
         -6    2    1    2    0  502  0.89237732950E+02 -0.99786596618E+02  0.13984663484E+03  0.25874038385E+03  0.17166469384E+03 0.  0.
        -24    2    5    5    0    0  0.77278156297E+01  0.10209178983E+02  0.51080279898E+02  0.95508974364E+02  0.79679499996E+02 0.  0.
          5    1    3    3  501    0  0.35211314815E+02  0.43308061316E+02  0.21488721476E+02  0.59993999839E+02  0.47000000000E+01 0. -1.
        -11    1    4    4    0    0 -0.38599301431E+02  0.61086940196E+02 -0.49461824222E+01  0.72429172673E+02  0.00000000000E+00 0.  1.
         12    1    4    4    0    0 -0.85849746334E+02 -0.46084048941E+01 -0.61046823061E+01  0.86189810810E+02  0.00000000000E+00 0. -1.
         -5    1    5    5    0  502  0.81509917321E+02 -0.10999577560E+03  0.88766354943E+02  0.16323140948E+03  0.47000000000E+01 0.  1.
         11    1    6    6    0    0 -0.29441186636E+02 -0.55437356815E+01 -0.55773607494E+00  0.29963770546E+02  0.00000000000E+00 0. -1.
        -12    1    6    6    0    0  0.37169002265E+02  0.15752914665E+02  0.51638015973E+02  0.65545203818E+02  0.00000000000E+00 0.  1.
</event>
<event>
12    1  0.1630640E-001  0.2842544E+03  0.7818608E-02  0.1093394E+00
         21   -1    0    0  503  502  0.00000000000E+00  0.00000000000E+00  0.24867420678E+03  0.24867420678E+03  0.00000000000E+00 0. -1.
         21   -1    0    0  501  503 -0.00000000000E+00 -0.00000000000E+00 -0.46291457713E+03  0.46291457713E+03  0.00000000000E+00 0.  1.
          6    2    1    2  501    0  0.50208442917E+02 -0.22029099333E+03 -0.30142133085E+03  0.41431312234E+03  0.17248633328E+03 0.  0.
         24    2    3    3    0    0 -0.39734279926E+02 -0.77450795569E+02 -0.12025907489E+03  0.16665434807E+03  0.75723100183E+02 0.  0.
         -6    2    1    2    0  502 -0.50208442917E+02  0.22029099333E+03  0.87180960504E+02  0.29727566157E+03  0.17240443616E+03 0.  0.
        -24    2    5    5    0    0 -0.34332850191E+02  0.24013328242E+03  0.65985472065E+02  0.26385277105E+03  0.80134039850E+02 0.  0.
          5    1    3    3  501    0  0.89942722843E+02 -0.14284019776E+03 -0.18116225596E+03  0.24765877427E+03  0.47000000000E+01 0. -1.
        -13    1    4    4    0    0  0.22552636246E+02 -0.21344719171E+02 -0.25899457066E+02  0.40435137126E+02  0.00000000000E+00 0.  1.
         14    1    4    4    0    0 -0.62286916172E+02 -0.56106076398E+02 -0.94359617822E+02  0.12621921094E+03  0.00000000000E+00 0. -1.
         -5    1    5    5    0  502 -0.15875592727E+02 -0.19842289088E+02  0.21195488438E+02  0.33422890522E+02  0.47000000000E+01 0.  1.
         13    1    6    6    0    0  0.20467550324E+02  0.10259744546E+03  0.82559787949E+01  0.10494435486E+03  0.00000000000E+00 0. -1.
        -14    1    6    6    0    0 -0.54800400514E+02  0.13753583696E+03  0.57729493270E+02  0.15890841620E+03  0.00000000000E+00 0.  1.
</event>
<event>
12    1  0.1630640E-001  0.1863042E+03  0.7818608E-02  0.1162246E+00
         21   -1    0    0  501  502  0.00000000000E+00  0.00000000000E+00  0.12888735156E+04  0.12888735156E+04  0.00000000000E+00 0.  1.
         21   -1    0    0  502  503 -0.00000000000E+00 -0.00000000000E+00 -0.63468840594E+02  0.63468840594E+02  0.00000000000E+00 0.  1.
         -6    2    1    2    0  503  0.33378852996E+02 -0.56455615945E+02  0.99105890284E+02  0.21102422395E+03  0.17437849984E+03 0.  0.
        -24    2    3    3    0    0  0.65621931645E+02 -0.77022699337E+02  0.11389947332E+03  0.16975000513E+03  0.74854793390E+02 0.  0.
          6    2    1    2  501    0 -0.33378852996E+02  0.56455615945E+02  0.11262987848E+04  0.11413181323E+04  0.17250142644E+03 0.  0.
         24    2    5    5    0    0 -0.24970887382E+02  0.76835009950E+02  0.42418357838E+03  0.43884118134E+03  0.78247749457E+02 0.  0.
          5    1    5    5  501    0 -0.84079656137E+01 -0.20379394005E+02  0.70211520638E+03  0.70247695095E+03  0.47000000000E+01 0. -1.
        -11    1    6    6    0    0 -0.38319735806E+02  0.92898910149E+01  0.10140786220E+03  0.10880376254E+03  0.00000000000E+00 0.  1.
         12    1    6    6    0    0  0.13348848424E+02  0.67545118936E+02  0.32277571618E+03  0.33003741879E+03  0.00000000000E+00 0. -1.
         -5    1    3    3    0  503 -0.32243078649E+02  0.20567083391E+02 -0.14793583038E+02  0.41274218819E+02  0.47000000000E+01 0.  1.
         13    1    4    4    0    0  0.66481424285E+02 -0.42643149577E+02  0.10959714133E+03  0.13509164063E+03  0.00000000000E+00 0. -1.
        -14    1    4    4    0    0 -0.85949264056E+00 -0.34379549760E+02  0.43023319917E+01  0.34658364501E+02  0.00000000000E+00 0.  1.
</event>
<event>
12    1  0.1630640E-001  0.1969160E+03  0.7818608E-02  0.1152567E+00
         21   -1    0    0  503  502  0.00000000000E+00  0.00000000000E+00  0.75627370615E+03  0.75627370615E+03  0.00000000000E+00 0.  1.
         21   -1    0    0  501  503 -0.00000000000E+00 -0.00000000000E+00 -0.13205662797E+03  0.13205662797E+03  0.00000000000E+00 0.  1.
          6    2    1    2  501    0  0.25512590694E+02 -0.92647888279E+02 -0.35522731652E+02  0.20009440222E+03  0.17187606538E+03 0.  0.
         24    2    3    3    0    0 -0.51018833209E+02 -0.66393429224E+02 -0.21474772898E+02  0.11783997614E+03  0.80087984863E+02 0.  0.
         -6    2    1    2    0  502 -0.25512590694E+02  0.92647888279E+02  0.65973980983E+03  0.68823593189E+03  0.17081439571E+03 0.  0.
        -24    2    5    5    0    0  0.11169090518E+02  0.12344623030E+03  0.49467761515E+03  0.51630076468E+03  0.80602830765E+02 0.  0.
          5    1    3    3  501    0  0.76531423903E+02 -0.26254459055E+02 -0.14047958754E+02  0.82254426082E+02  0.47000000000E+01 0. -1.
        -13    1    4    4    0    0  0.14678142816E+02 -0.13822212334E+02 -0.26791610880E+02  0.33530461432E+02  0.00000000000E+00 0.  1.
         14    1    4    4    0    0 -0.65696976025E+02 -0.52571216890E+02  0.53168379814E+01  0.84309514708E+02  0.00000000000E+00 0. -1.
         -5    1    5    5    0  502 -0.36681681213E+02 -0.30798342023E+02  0.16506219469E+03  0.17193516721E+03  0.47000000000E+01 0.  1.
         13    1    6    6    0    0  0.28523433213E+02  0.15757113378E+02  0.18797741138E+03  0.19078097404E+03  0.00000000000E+00 0. -1.
        -14    1    6    6    0    0 -0.17354342694E+02  0.10768911692E+03  0.30670020376E+03  0.32551979064E+03  0.00000000000E+00 0.  1.
</event>
<event>
12    1  0.1630640E-001  0.1901723E+03  0.7818608E-02  0.1159622E+00
         21   -1    0    0  503  502  0.00000000000E+00  0.00000000000E+00  0.15344598049E+03  0.15344598049E+03  0.00000000000E+00 0.  1.
         21   -1    0    0  501  503 -0.00000000000E+00 -0.00000000000E+00 -0.24851835259E+03  0.24851835259E+03  0.00000000000E+00 0. -1.
          6    2    1    2  501    0  0.81198467189E+02 -0.13262709981E+02 -0.10507219711E+03  0.21726863376E+03  0.17145378987E+03 0.  0.
         24    2    3    3    0    0  0.88703783855E+02  0.36409314916E+02 -0.10608354575E+03  0.16680327275E+03  0.85881392859E+02 0.  0.
         -6    2    1    2    0  502 -0.81198467189E+02  0.13262709981E+02  0.99998250025E+01  0.18469569932E+03  0.16505579147E+03 0.  0.
        -24    2    5    5    0    0 -0.16141550198E+01  0.49313872413E+02 -0.10284498895E+02  0.94879816250E+02  0.80386224599E+02 0.  0.
          5    1    3    3  501    0 -0.75053166657E+01 -0.49672024897E+02  0.10113486411E+01  0.50465361008E+02  0.47000000000E+01 0. -1.
        -13    1    4    4    0    0  0.61855038217E+02  0.20579925450E+02 -0.10200884300E+02  0.65982097002E+02  0.00000000000E+00 0.  1.
         14    1    4    4    0    0  0.26848745638E+02  0.15829389466E+02 -0.95882661447E+02  0.10082117575E+03  0.00000000000E+00 0. -1.
         -5    1    5    5    0  502 -0.79584312169E+02 -0.36051162432E+02  0.20284323897E+02  0.89815883072E+02  0.47000000000E+01 0.  1.
         13    1    6    6    0    0 -0.16921553008E+02 -0.75975904250E+01 -0.27780142271E+02  0.33403572280E+02  0.00000000000E+00 0. -1.
        -14    1    6    6    0    0  0.15307397988E+02  0.56911462838E+02  0.17495643376E+02  0.61476243970E+02  0.00000000000E+00 0.  1.
</event>
<event>
12    1  0.1630640E-001  0.1812597E+03  0.7818608E-02  0.1166668E+00
         21   -1    0    0  501  502  0.00000000000E+00  0.00000000000E+00  0.84369853657E+03  0.84369853657E+03  0.00000000000E+00 0.  1.
         21   -1    0    0  502  503 -0.00000000000E+00 -0.00000000000E+00 -0.43735895032E+02  0.43735895032E+02  0.00000000000E+00 0. -1.
         -6    2    1    2    0  503 -0.40456165762E+02 -0.46755047248E+02  0.54764373595E+03  0.57675789570E+03  0.17003903358E+03 0.  0.
        -24    2    3    3    0    0  0.25887147558E+02 -0.48735166615E+02  0.20380249325E+03  0.22653761320E+03  0.82088812062E+02 0.  0.
          6    2    1    2  501    0  0.40456165762E+02  0.46755047248E+02  0.25231890559E+03  0.31067653590E+03  0.17038880259E+03 0.  0.
         24    2    5    5    0    0  0.26552387715E+02  0.92642660403E+02  0.21728240994E+03  0.25110612283E+03  0.80962629883E+02 0.  0.
          5    1    5    5  501    0  0.13903778047E+02 -0.45887613155E+02  0.35036495654E+02  0.59570413065E+02  0.47000000000E+01 0. -1.
        -11    1    6    6    0    0  0.36311684189E+02  0.12580019082E+02  0.11246230056E+03  0.11884681037E+03  0.00000000000E+00 0.  1.
         12    1    6    6    0    0 -0.97592964750E+01  0.80062641321E+02  0.10482010938E+03  0.13225931246E+03  0.00000000000E+00 0. -1.
         -5    1    3    3    0  503 -0.66343313320E+02  0.19801193666E+01  0.34384124270E+03  0.35022028250E+03  0.47000000000E+01 0.  1.
         11    1    4    4    0    0 -0.19841388324E+02 -0.31709153837E+02  0.36493428546E+02  0.52258219016E+02  0.00000000000E+00 0. -1.
        -12    1    4    4    0    0  0.45728535882E+02 -0.17026012778E+02  0.16730906470E+03  0.17427939418E+03  0.00000000000E+00 0.  1.
</event>
<event>
12    1  0.1630640E-001  0.1790855E+03  0.7818608E-02  0.1169894E+00
         21   -1    0    0  501  502  0.00000000000E+00  0.00000000000E+00  0.27128849276E+03  0.27128849276E+03  0.00000000000E+00 0. -1.
         21   -1    0    0  502  503 -0.00000000000E+00 -0.00000000000E+00 -0.21002781817E+03  0.21002781817E+03  0.00000000000E+00 0. -1.
         -6    2    1    2    0  503  0.22765879634E+02 -0.41046734788E+02 -0.13144506683E+03  0.21824387999E+03  0.16777802551E+03 0.  0.
        -24    2    3    3    0    0  0.13013357024E+02 -0.21161581175E+02  0.17350270532E+01  0.83152953429E+02  0.79336267660E+02 0.  0.
          6    2    1    2  501    0 -0.22765879634E+02  0.41046734788E+02  0.19270574141E+03  0.26307243094E+03  0.17282500234E+03 0.  0.
         24    2    5    5    0    0 -0.66280414419E+01 -0.35075791418E+02  0.15007846537E+03  0.17422287562E+03  0.80968034092E+02 0.  0.
          5    1    5    5  501    0 -0.16137838193E+02  0.76122526206E+02  0.42627276041E+02  0.88849555318E+02  0.47000000000E+01 0. -1.
        -13    1    6    6    0    0  0.14072267208E+02  0.92970798332E+01  0.54264163108E+00  0.16874799488E+02  0.00000000000E+00 0.  1.
         14    1    6    6    0    0 -0.20700308650E+02 -0.44372871252E+02  0.14953582374E+03  0.15734807614E+03  0.00000000000E+00 0. -1.
         -5    1    3    3    0  503  0.97525226100E+01 -0.19885153612E+02 -0.13318009388E+03  0.13509092656E+03  0.47000000000E+01 0.  1.
         11    1    4    4    0    0  0.23770176167E+02 -0.25506878325E+02 -0.32095030425E+02  0.47388955410E+02  0.00000000000E+00 0. -1.
        -12    1    4    4    0    0 -0.10756819142E+02  0.43452971493E+01  0.33830057478E+02  0.35763998019E+02  0.00000000000E+00 0.  1.
</event>
<event>
12    1  0.1630640E-001  0.1905583E+03  0.7818608E-02  0.1158026E+00
         21   -1    0    0  501  502  0.00000000000E+00  0.00000000000E+00  0.35215558320E+02  0.35215558320E+02  0.00000000000E+00 0.  1.
         21   -1    0    0  502  503 -0.00000000000E+00 -0.00000000000E+00 -0.14862606776E+04  0.14862606776E+04  0.00000000000E+00 0.  1.
         -6    2    1    2    0  503  0.52770786212E+02 -0.58752648225E+02 -0.11468391368E+04  0.11625142181E+04  0.17309729051E+03 0.  0.
        -24    2    3    3    0    0  0.75981113049E+02 -0.31308910243E+02 -0.43140382664E+03  0.44616119683E+03  0.78722134846E+02 0.  0.
          6    2    1    2  501    0 -0.52770786212E+02  0.58752648225E+02 -0.30420598250E+03  0.35896201786E+03  0.17342381881E+03 0.  0.
         24    2    5    5    0    0 -0.97793919836E+02  0.48385482203E+02 -0.16764557003E+03  0.21472125751E+03  0.78072886666E+02 0.  0.
          5    1    5    5  501    0  0.45023133624E+02  0.10367166022E+02 -0.13656041247E+03  0.14424076035E+03  0.47000000000E+01 0. -1.
        -11    1    6    6    0    0 -0.68706964553E+02  0.65383328460E+02 -0.93036562083E+02  0.13285867869E+03  0.00000000000E+00 0.  1.
         12    1    6    6    0    0 -0.29086955283E+02 -0.16997846257E+02 -0.74609007946E+02  0.81862578823E+02  0.00000000000E+00 0. -1.
         -5    1    3    3    0  503 -0.23210326838E+02 -0.27443737982E+02 -0.71543531016E+03  0.71635302124E+03  0.47000000000E+01 0.  1.
         13    1    4    4    0    0  0.82259920404E+02 -0.13284621723E+02 -0.40557022944E+03  0.41404152774E+03  0.00000000000E+00 0. -1.
        -14    1    4    4    0    0 -0.62788073549E+01 -0.18024288521E+02 -0.25833597197E+02  0.32119669092E+02  0.00000000000E+00 0.  1.
</event>
<event>
12    1  0.1630640E-001  0.2469294E+03  0.7818608E-02  0.1115272E+00
         21   -1    0    0  503  502  0.00000000000E+00  0.00000000000E+00  0.44772607948E+03  0.44772607948E+03  0.00000000000E+00 0.  1.
         21   -1    0    0  501  503 -0.00000000000E+00 -0.00000000000E+00 -0.27083012690E+03  0.27083012690E+03  0.00000000000E+00 0.  1.
          6    2    1    2  501    0 -0.16885972304E+03  0.53962754804E+02 -0.16490399308E+03  0.29693001704E+03  0.17189683859E+03 0.  0.
         24    2    3    3    0    0 -0.15334197262E+03  0.75447220442E+02 -0.74056528274E+02  0.20217910832E+03  0.78650993790E+02 0.  0.
         -6    2    1    2    0  502  0.16885972304E+03 -0.53962754804E+02  0.34179994566E+03  0.42162618934E+03  0.17180179196E+03 0.  0.
        -24    2    5    5    0    0  0.89799834015E+02 -0.48350890472E+02  0.89428372944E+02  0.15705963857E+03  0.79173716487E+02 0.  0.
          5    1    3    3  501    0 -0.15517750418E+02 -0.21484465638E+02 -0.90847464803E+02  0.94750908718E+02  0.47000000000E+01 0. -1.
        -13    1    4    4    0    0 -0.13137016344E+03  0.54517227719E+02 -0.89582185702E+02  0.16809287896E+03  0.00000000000E+00 0.  1.
         14    1    4    4    0    0 -0.21971809173E+02  0.20929992724E+02  0.15525657428E+02  0.34086229365E+02  0.00000000000E+00 0. -1.
         -5    1    5    5    0  502  0.79059889021E+02 -0.56118643322E+01  0.25237157271E+03  0.26456655077E+03  0.47000000000E+01 0.  1.
         13    1    6    6    0    0  0.27576454118E+02 -0.18505709756E+01 -0.11299000294E+02  0.29858882134E+02  0.00000000000E+00 0. -1.
        -14    1    6    6    0    0  0.62223379897E+02 -0.46500319496E+02  0.10072737324E+03  0.12720075644E+03  0.00000000000E+00 0.  1.
</event>
<event>
12    1  0.1630640E-001  0.1952068E+03  0.7818608E-02  0.1153861E+00
         21   -1    0    0  503  502  0.00000000000E+00  0.00000000000E+00  0.27456098044E+03  0.27456098044E+03  0.00000000000E+00 0. -1.
         21   -1    0    0  501  503 -0.00000000000E+00 -0.00000000000E+00 -0.16333177197E+03  0.16333177197E+03  0.00000000000E+00 0.  1.
          6    2    1    2  501    0 -0.68891346808E+02  0.61664150432E+02 -0.29331387988E+02  0.19739813311E+03  0.17192209724E+03 0.  0.
         24    2    3    3    0    0  0.19544862817E+02  0.69191464133E+02 -0.22201974788E+02  0.10823232040E+03  0.77793618777E+02 0.  0.
         -6    2    1    2    0  502  0.68891346808E+02 -0.61664150432E+02  0.14056059646E+03  0.24049461930E+03  0.17184846675E+03 0.  0.
        -24    2    5    5    0    0  0.69139514242E+02  0.98825796327E+01  0.34494994669E+02  0.11246728608E+03  0.81123658512E+02 0.  0.
          5    1    3    3  501    0 -0.88436209625E+02 -0.75273137013E+01 -0.71294131997E+01  0.89165812714E+02  0.47000000000E+01 0. -1.
        -11    1    4    4    0    0  0.27117165961E+01  0.53609135753E+02 -0.49193852963E+02  0.72810219148E+02  0.00000000000E+00 0.  1.
         12    1    4    4    0    0  0.16833146221E+02  0.15582328380E+02  0.26991878174E+02  0.35422101248E+02  0.00000000000E+00 0. -1.
         -5    1    5    5    0  502 -0.24816743476E+00 -0.71546730064E+02  0.10606560179E+03  0.12802733322E+03  0.47000000000E+01 0.  1.
         11    1    6    6    0    0  0.27548995667E+02 -0.16185852747E+01  0.57344692343E+02  0.63639458832E+02  0.00000000000E+00 0. -1.
        -12    1    6    6    0    0  0.41590518575E+02  0.11501164907E+02 -0.22849697674E+02  0.48827827244E+02  0.00000000000E+00 0.  1.
</event>
<event>
12    1  0.1630640E-001  0.2253229E+03  0.7818608E-02  0.1129998E+00
         21   -1    0    0  503  502  0.00000000000E+00  0.00000000000E+00  0.87126985601E+02  0.87126985601E+02  0.00000000000E+00 0.  1.
         21   -1    0    0  501  503 -0.00000000000E+00 -0.00000000000E+00 -0.70860137401E+03  0.70860137401E+03  0.00000000000E+00 0.  1.
          6    2    1    2  501    0 -0.87200201607E+02  0.11636833760E+03 -0.47871362261E+03  0.52909085256E+03  0.17211894909E+03 0.  0.
         24    2    3    3    0    0 -0.13643699870E+02  0.59181000795E+02 -0.10814031408E+03  0.14695525172E+03  0.78822440184E+02 0.  0.
         -6    2    1    2    0  502  0.87200201607E+02 -0.11636833760E+03 -0.14276076580E+03  0.26663750705E+03  0.17195772375E+03 0.  0.
        -24    2    5    5    0    0  0.28512164216E+02 -0.13233025649E+03 -0.73860006993E+02  0.17461319966E+03  0.81915984830E+02 0.  0.
          5    1    3    3  501    0 -0.73556501737E+02  0.57187336804E+02 -0.37057330852E+03  0.38213560084E+03  0.47000000000E+01 0. -1.
        -11    1    4    4    0    0  0.27206148310E+02  0.29724177934E+02 -0.79220664549E+02  0.88879778079E+02  0.00000000000E+00 0.  1.
         12    1    4    4    0    0 -0.40849848180E+02  0.29456822861E+02 -0.28919649535E+02  0.58075473641E+02  0.00000000000E+00 0. -1.
         -5    1    5    5    0  502  0.58688037391E+02  0.15961918888E+02 -0.68900758807E+02  0.92024307395E+02  0.47000000000E+01 0.  1.
         13    1    6    6    0    0  0.19486267087E+02 -0.84150940803E+01  0.11241472180E+02  0.24018724157E+02  0.00000000000E+00 0. -1.
        -14    1    6    6    0    0  0.90258971289E+01 -0.12391516241E+03 -0.85101479172E+02  0.15059447550E+03  0.00000000000E+00 0.  1.
</event>
<event>
12    1  0.1630640E-001  0.2165178E+03  0.7818608E-02  0.1136887E+00
         21   -1    0    0  503  502  0.00000000000E+00  0.00000000000E+00  0.40911538567E+03  0.40911538567E+03  0.00000000000E+00 0. -1.
         21   -1    0    0  501  503 -0.00000000000E+00 -0.00000000000E+00 -0.15050902342E+03  0.15050902342E+03  0.00000000000E+00 0.  1.
          6    2    1    2  501    0 -0.77629530977E+02 -0.10635758044E+03 -0.89278342812E+01  0.21670179265E+03  0.17187693771E+03 0.  0.
         24    2    3    3    0    0 -0.78421005210E+02 -0.86204523418E+02 -0.63161972090E+02  0.15864833588E+03  0.87171014931E+02 0.  0.
         -6    2    1    2    0  502  0.77629530977E+02  0.10635758044E+03  0.26753419653E+03  0.34292261644E+03  0.16936084424E+03 0.  0.
        -24    2    5    5    0    0  0.54180291234E+02  0.38469263992E+02  0.23957265064E+03  0.26570455895E+03  0.93746837183E+02 0.  0.
          5    1    3    3  501    0  0.79147423233E+00 -0.20153057021E+02  0.54234137809E+02  0.58053456767E+02  0.47000000000E+01 0. -1.
        -11    1    4    4    0    0 -0.33752633260E+02  0.80795858950E+01 -0.37727166153E+02  0.51262647475E+02  0.00000000000E+00 0.  1.
         12    1    4    4    0    0 -0.44668371950E+02 -0.94284109313E+02 -0.25434805936E+02  0.10738568841E+03  0.00000000000E+00 0. -1.
         -5    1    5    5    0  502  0.23449239743E+02  0.67888316446E+02  0.27961545882E+02  0.77218057490E+02  0.47000000000E+01 0.  1.
         13    1    6    6    0    0 -0.12666950679E+02  0.65022946882E+01  0.14434200204E+03  0.14504256282E+03  0.00000000000E+00 0. -1.
        -14    1    6    6    0    0  0.66847241913E+02  0.31966969304E+02  0.95230648599E+02  0.12066199613E+03  0.00000000000E+00 0.  1.
</event>
<event>
12    1  0.1630640E-001  0.2028746E+03  0.7818608E-02  0.1147337E+00
         21   -1    0    0  501  502  0.00000000000E+00  0.00000000000E+00  0.63798132998E+03  0.63798132998E+03  0.00000000000E+00 0. -1.
         21   -1    0    0  502  503 -0.00000000000E+00 -0.00000000000E+00 -0.68861221484E+02  0.68861221484E+02  0.00000000000E+00 0. -1.
         -6    2    1    2    0  503  0.29410495981E+02  0.10158146878E+03  0.19573636968E+03  0.28190573483E+03  0.17313100485E+03 0.  0.
        -24    2    3    3    0    0  0.69646718384E+02  0.96495346541E+02  0.92154057951E+02  0.17056747754E+03  0.80242611572E+02 0.  0.
          6    2    1    2  501    0 -0.29410495981E+02 -0.10158146878E+03  0.37338373881E+03  0.42493681663E+03  0.17312454952E+03 0.  0.
         24    2    5    5    0    0 -0.61385169706E+02 -0.52142910811E+02  0.12274421390E+03  0.16743184150E+03  0.80500045291E+02 0.  0.
          5    1    5    5  501    0  0.31974673725E+02 -0.49438557973E+02  0.25063952490E+03  0.25750497513E+03  0.47000000000E+01 0. -1.
        -13    1    6    6    0    0 -0.62762821403E+00 -0.91182768377E+01 -0.11037251917E+02  0.14330311216E+02  0.00000000000E+00 0.  1.
         14    1    6    6    0    0 -0.60757541492E+02 -0.43024633974E+02  0.13378146582E+03  0.15310153028E+03  0.00000000000E+00 0. -1.
         -5    1    3    3    0  503 -0.40236222403E+02  0.50861222428E+01  0.10358231173E+03  0.11133825729E+03  0.47000000000E+01 0.  1.
         11    1    4    4    0    0  0.68961585129E+02  0.36312317297E+02  0.28554299254E+02  0.83003810858E+02  0.00000000000E+00 0. -1.
        -12    1    4    4    0    0  0.68513325475E+00  0.60183029244E+02  0.63599758697E+02  0.87563666683E+02  0.00000000000E+00 0.  1.
</event>
<event>
12    1  0.1630640E-001  0.1864651E+03  0.7818608E-02  0.1161716E+00
         21   -1    0    0  501  502  0.00000000000E+00  0.00000000000E+00  0.47841127290E+03  0.47841127290E+03  0.00000000000E+00 0. -1.
         21   -1    0    0  502  503 -0.00000000000E+00 -0.00000000000E+00 -0.84880599660E+02  0.84880599660E+02  0.00000000000E+00 0. -1.
         -6    2    1    2    0  503 -0.66859895030E+02  0.23447987159E+02  0.89714748661E+02  0.20681838930E+03  0.17235154876E+03 0.  0.
        -24    2    3    3    0    0 -0.14335094019E+02 -0.33666797848E+02  0.94712142636E+02  0.12892090966E+03  0.79443456542E+02 0.  0.
          6    2    1    2  501    0  0.66859895030E+02 -0.23447987159E+02  0.30381592458E+03  0.35647348326E+03  0.17247949030E+03 0.  0.
         24    2    5    5    0    0 -0.45955057161E+01 -0.60449581419E+02  0.13000103262E+03  0.16487833995E+03  0.81297773249E+02 0.  0.
          5    1    5    5  501    0  0.71455400746E+02  0.37001594261E+02  0.17381489197E+03  0.19159514332E+03  0.47000000000E+01 0. -1.
        -13    1    6    6    0    0  0.89860559590E+01 -0.58111960736E+02  0.34064233412E+02  0.67956759636E+02  0.00000000000E+00 0.  1.
         14    1    6    6    0    0 -0.13581561675E+02 -0.23376206829E+01  0.95936799205E+02  0.96921580309E+02  0.00000000000E+00 0. -1.
         -5    1    3    3    0  503 -0.52524801011E+02  0.57114785007E+02 -0.49973939751E+01  0.77897479640E+02  0.47000000000E+01 0.  1.
         11    1    4    4    0    0  0.26028769912E+02 -0.13388941066E+02  0.73307287325E+02  0.78934903439E+02  0.00000000000E+00 0. -1.
        -12    1    4    4    0    0 -0.40363863931E+02 -0.20277856783E+02  0.21404855311E+02  0.49986006222E+02  0.00000000000E+00 0.  1.
</event>
<event>
12    1  0.1630640E-001  0.1779416E+03  0.7818608E-02  0.1170084E+00
         21   -1    0    0  503  502  0.00000000000E+00  0.00000000000E+00  0.33976249483E+03  0.33976249483E+03  0.00000000000E+00 0.  1.
         21   -1    0    0  501  503 -0.00000000000E+00 -0.00000000000E+00 -0.14698713007E+03  0.14698713007E+03  0.00000000000E+00 0.  1.
          6    2    1    2  501    0 -0.14725211332E+02 -0.38321122764E+02 -0.51827503945E+02  0.18427026312E+03  0.17200028897E+03 0.  0.
         24    2    3    3    0    0 -0.62346767953E+02  0.63778054257E+01 -0.64701721422E+02  0.11753464810E+03  0.75500230949E+02 0.  0.
         -6    2    1    2    0  502  0.14725211332E+02  0.38321122764E+02  0.24460286871E+03  0.30247936177E+03  0.17314115808E+03 0.  0.
        -24    2    5    5    0    0 -0.53726412321E+02  0.24093464889E+02  0.18912574784E+03  0.21310457803E+03  0.78600192430E+02 0.  0.
          5    1    3    3  501    0  0.47621556621E+02 -0.44698928190E+02  0.12874217477E+02  0.66735615019E+02  0.47000000000E+01 0. -1.
        -11    1    4    4    0    0 -0.18568344249E+01  0.31446025732E+02 -0.12887171191E+02  0.34034975389E+02  0.00000000000E+00 0.  1.
         12    1    4    4    0    0 -0.60489933528E+02 -0.25068220307E+02 -0.51814550231E+02  0.83499672713E+02  0.00000000000E+00 0. -1.
         -5    1    5    5    0  502  0.68451623654E+02  0.14227657875E+02  0.55477120862E+02  0.89374783740E+02  0.47000000000E+01 0.  1.
         13    1    6    6    0    0 -0.86216797012E+01  0.38813842029E+02  0.39136424749E+02  0.55789850654E+02  0.00000000000E+00 0. -1.
        -14    1    6    6    0    0 -0.45104732620E+02 -0.14720377140E+02  0.14998932310E+03  0.15731472738E+03  0.00000000000E+00 0.  1.
</event>
<event>
12    1  0.1630640E-001  0.2234035E+03  0.7818608E-02  0.1132260E+00
         21   -1    0    0  501  502  0.00000000000E+00  0.00000000000E+00  0.23130353939E+03  0.23130353939E+03  0.00000000000E+00 0. -1.
         21   -1    0    0  502  503 -0.00000000000E+00 -0.00000000000E+00 -0.24251609863E+03  0.24251609863E+03  0.00000000000E+00 0. -1.
         -6    2    1    2    0  503 -0.11876034734E+03  0.79906630607E+02 -0.90747534526E+02  0.23668056078E+03  0.16520739425E+03 0.  0.
        -24    2    3    3    0    0 -0.14811275814E+03  0.53872706898E+02 -0.60343768711E+02  0.18682268096E+03  0.80135423051E+02 0.  0.
          6    2    1    2  501    0  0.11876034734E+03 -0.79906630607E+02  0.79534975280E+02  0.23713907724E+03  0.17152270971E+03 0.  0.
         24    2    5    5    0    0  0.13145982348E+03 -0.10196829020E+03  0.39179218224E+02  0.18919462348E+03  0.81119523038E+02 0.  0.
          5    1    5    5  501    0 -0.12699476144E+02  0.22061659596E+02  0.40355757056E+02  0.47944453757E+02  0.47000000000E+01 0. -1.
        -13    1    6    6    0    0  0.18260986878E+02 -0.16555626661E+01 -0.19677576584E+02  0.26896311080E+02  0.00000000000E+00 0.  1.
         14    1    6    6    0    0  0.11319883660E+03 -0.10031272754E+03  0.58856794807E+02  0.16229831240E+03  0.00000000000E+00 0. -1.
         -5    1    3    3    0  503  0.29352410806E+02  0.26033923709E+02 -0.30403765815E+02  0.49857879814E+02  0.47000000000E+01 0.  1.
         13    1    4    4    0    0 -0.22061744207E+02  0.35727406273E+02  0.73034919335E+01  0.42620524526E+02  0.00000000000E+00 0. -1.
        -14    1    4    4    0    0 -0.12605101394E+03  0.18145300626E+02 -0.67647260644E+02  0.14420215644E+03  0.00000000000E+00 0.  1.
</event>
<event>
12    1  0.1630640E-001  0.3272194E+03  0.7818608E-02  0.1072618E+00
         21   -1    0    0  503  502  0.00000000000E+00  0.00000000000E+00  0.22831375941E+03  0.22831375941E+03  0.00000000000E+00 0.  1.
         21   -1    0    0  501  503 -0.00000000000E+00 -0.00000000000E+00 -0.78039494567E+03  0.78039494567E+03  0.00000000000E+00 0.  1.
          6    2    1    2  501    0 -0.22596383789E+03 -0.15855960017E+03 -0.59678397503E+03  0.68060534405E+03  0.17570349644E+03 0.  0.
         24    2    3    3    0    0 -0.97306928892E+02 -0.12413155236E+03 -0.22624876844E+03  0.28683343034E+03  0.78788519709E+02 0.  0.
         -6    2    1    2    0  502  0.22596383789E+03  0.15855960017E+03  0.44702788770E+02  0.32810336103E+03  0.17161781189E+03 0.  0.
        -24    2    5    5    0    0  0.18003237579E+03  0.14080701028E+03  0.91685475316E+02  0.25988080982E+03  0.83027335582E+02 0.  0.
          5    1    3    3  501    0 -0.12865690899E+03 -0.34428047817E+02 -0.37053520659E+03  0.39377191371E+03  0.47000000000E+01 0. -1.
        -11    1    4    4    0    0 -0.99371699736E+02 -0.68790556352E+02 -0.15889216646E+03  0.19963365426E+03  0.00000000000E+00 0.  1.
         12    1    4    4    0    0  0.20647708443E+01 -0.55340996004E+02 -0.67356601978E+02  0.87199776074E+02  0.00000000000E+00 0. -1.
         -5    1    5    5    0  502  0.45931462100E+02  0.17752589890E+02 -0.46982686546E+02  0.68222551210E+02  0.47000000000E+01 0.  1.
         11    1    6    6    0    0 -0.91247318943E+00  0.76421547254E+00  0.20101341932E+02  0.20136548365E+02  0.00000000000E+00 0. -1.
        -12    1    6    6    0    0  0.18094484897E+03  0.14004279481E+03  0.71584133384E+02  0.23974426146E+03  0.00000000000E+00 0.  1.
</event>
<event>
12    1  0.1630640E-001  0.1781331E+03  0.7818608E-02  0.1170203E+00
         21   -1    0    0  503  502  0.00000000000E+00  0.00000000000E+00  0.38693563265E+02  0.38693563265E+02  0.00000000000E+00 0. -1.
         21   -1    0    0  501  503 -0.00000000000E+00 -0.00000000000E+00 -0.82770551348E+03  0.82770551348E+03  0.00000000000E+00 0. -1.
          6    2    1    2  501    0  0.17658980874E+02 -0.38658476048E+02 -0.33244356159E+03  0.37716062978E+03  0.17298873269E+03 0.  0.
         24    2    3    3    0    0 -0.44772272883E+02 -0.61525188419E+02 -0.17717540567E+03  0.20819069688E+03  0.78500552006E+02 0.  0.
         -6    2    1    2    0  502 -0.17658980874E+02  0.38658476048E+02 -0.45656838862E+03  0.48923844696E+03  0.17056742690E+03 0.  0.
        -24    2    5    5    0    0  0.22010844906E+01  0.41806798627E+02 -0.46001204478E+03  0.46830323979E+03  0.77098572458E+02 0.  0.
          5    1    3    3  501    0  0.62431253757E+02  0.22866712371E+02 -0.15526815593E+03  0.16896993290E+03  0.47000000000E+01 0. -1.
        -11    1    4    4    0    0  0.19678459345E+02 -0.17671015282E+02 -0.75971519659E+02  0.80443634569E+02  0.00000000000E+00 0.  1.
         12    1    4    4    0    0 -0.64450732228E+02 -0.43854173137E+02 -0.10120388601E+03  0.12774706231E+03  0.00000000000E+00 0. -1.
         -5    1    5    5    0  502 -0.19860065364E+02 -0.31483225790E+01  0.34436561594E+01  0.20935207166E+02  0.47000000000E+01 0.  1.
         11    1    6    6    0    0  0.44707065776E+00 -0.16804026024E+02 -0.30661939150E+02  0.34967551748E+02  0.00000000000E+00 0. -1.
        -12    1    6    6    0    0  0.17540138328E+01  0.58610824650E+02 -0.42935010563E+03  0.43333568804E+03  0.00000000000E+00 0.  1.
</event>
<event>
12    1  0.1630640E-001  0.2377341E+03  0.7818608E-02  0.1121495E+00
         21   -1    0    0  501  502  0.00000000000E+00  0.00000000000E+00  0.46970646121E+03  0.46970646121E+03  0.00000000000E+00 0.  1.
         21   -1    0    0  502  503 -0.00000000000E+00 -0.00000000000E+00 -0.13871182050E+03  0.13871182050E+03  0.00000000000E+00 0.  1.
         -6    2    1    2    0  503  0.16244086691E+03 -0.17962818922E+02  0.53428541278E+02  0.24366388793E+03  0.17264930684E+03 0.  0.
        -24    2    3    3    0    0  0.14093631533E+03 -0.29309604088E+02 -0.21811926898E+02  0.16445269350E+03  0.76464569394E+02 0.  0.
          6    2    1    2  501    0 -0.16244086691E+03  0.17962818922E+02  0.27756609943E+03  0.36475439378E+03  0.17115235938E+03 0.  0.
         24    2    5    5    0    0 -0.17459333261E+03 -0.12310551706E+02  0.26910600817E+03  0.33072760234E+03  0.79550750079E+02 0.  0.
          5    1    5    5  501    0  0.12152465696E+02  0.30273370628E+02  0.84600912546E+01  0.34026791440E+02  0.47000000000E+01 0. -1.
        -13    1    6    6    0    0 -0.88697281620E+02  0.18837747012E+02  0.80916655926E+02  0.12153013489E+03  0.00000000000E+00 0.  1.
         14    1    6    6    0    0 -0.85896050986E+02 -0.31148298718E+02  0.18818935225E+03  0.20919746745E+03  0.00000000000E+00 0. -1.
         -5    1    3    3    0  503  0.21504551576E+02  0.11346785166E+02  0.75240468176E+02  0.79211194433E+02  0.47000000000E+01 0.  1.
         13    1    4    4    0    0 -0.15026865477E+01 -0.12038422317E+01 -0.19146242561E+02  0.19242814430E+02  0.00000000000E+00 0. -1.
        -14    1    4    4    0    0  0.14243900188E+03 -0.28105761856E+02 -0.26656843371E+01  0.14520987907E+03  0.00000000000E+00 0.  1.
</event>
<event>
12    1  0.1630640E-001  0.1966230E+03  0.7818608E-02  0.1152692E+00
         21   -1    0    0  503  502  0.00000000000E+00  0.00000000000E+00  0.11079347948E+04  0.11079347948E+04  0.00000000000E+00 0. -1.
         21   -1    0    0  501  503 -0.00000000000E+00 -0.00000000000E+00 -0.35009899161E+02  0.35009899161E+02  0.00000000000E+00 0.  1.
          6    2    1    2  501    0 -0.90309252193E+02 -0.26051575945E+02  0.57731617575E+03  0.60988078296E+03  0.17270251010E+03 0.  0.
         24    2    3    3    0    0 -0.89159893667E+02 -0.77450412178E+02  0.46229122939E+03  0.48380148380E+03  0.80016510606E+02 0.  0.
         -6    2    1    2    0  502  0.90309252193E+02  0.26051575945E+02  0.49560871990E+03  0.53306391102E+03  0.17232145643E+03 0.  0.
        -24    2    5    5    0    0 -0.13072532412E+02  0.27634398537E+02  0.30175252794E+03  0.31330811046E+03  0.78567377950E+02 0.  0.
          5    1    3    3  501    0 -0.11493585255E+01  0.51398836232E+02  0.11502494636E+03  0.12607929916E+03  0.47000000000E+01 0. -1.
        -13    1    4    4    0    0 -0.87111354905E+02 -0.27435552778E+02  0.26660259408E+03  0.28181206660E+03  0.00000000000E+00 0.  1.
         14    1    4    4    0    0 -0.20485387619E+01 -0.50014859400E+02  0.19568863531E+03  0.20198941720E+03  0.00000000000E+00 0. -1.
         -5    1    5    5    0  502  0.10338178460E+03 -0.15828225916E+01  0.19385619197E+03  0.21975580056E+03  0.47000000000E+01 0.  1.
         11    1    6    6    0    0 -0.42719825447E+01 -0.15360298725E+02  0.11258483745E+02  0.19517737266E+02  0.00000000000E+00 0. -1.
        -12    1    6    6    0    0 -0.88005498671E+01  0.42994697262E+02  0.29049404419E+03  0.29379037319E+03  0.00000000000E+00 0.  1.
</event>
<event>
12    1  0.1630640E-001  0.2770651E+03  0.7818608E-02  0.1097367E+00
         21   -1    0    0  503  502  0.00000000000E+00  0.00000000000E+00  0.87454355002E+03  0.87454355002E+03  0.00000000000E+00 0.  1.
         21   -1    0    0  501  503 -0.00000000000E+00 -0.00000000000E+00 -0.32155804063E+03  0.32155804063E+03  0.00000000000E+00 0. -1.
          6    2    1    2  501    0 -0.10586530074E+03  0.18924250898E+03 -0.23353615840E+03  0.36235921688E+03  0.17246702779E+03 0.  0.
         24    2    3    3    0    0 -0.17414468152E+02  0.16789189254E+03 -0.15475676867E+03  0.24191138231E+03  0.77977613188E+02 0.  0.
         -6    2    1    2    0  502  0.10586530074E+03 -0.18924250898E+03  0.78652166780E+03  0.83374237376E+03  0.17172601082E+03 0.  0.
        -24    2    5    5    0    0  0.33415821248E+02 -0.17494246504E+02  0.30298597577E+03  0.31549991294E+03  0.79479731880E+02 0.  0.
          5    1    3    3  501    0 -0.88450832584E+02  0.21350616433E+02 -0.78779389728E+02  0.12044783457E+03  0.47000000000E+01 0. -1.
        -11    1    4    4    0    0 -0.10522285613E+02  0.42918717393E+02 -0.17387195403E+01  0.44223952139E+02  0.00000000000E+00 0.  1.
         12    1    4    4    0    0 -0.68921825392E+01  0.12497317515E+03 -0.15301804913E+03  0.19768743017E+03  0.00000000000E+00 0. -1.
         -5    1    5    5    0  502  0.72449479488E+02 -0.17174826247E+03  0.48353569203E+03  0.51824246083E+03  0.47000000000E+01 0.  1.
         11    1    6    6    0    0 -0.12066215351E+02 -0.18312403298E+02  0.22761799294E+02  0.31607549329E+02  0.00000000000E+00 0. -1.
        -12    1    6    6    0    0  0.45482036599E+02  0.81815679469E+00  0.28022417648E+03  0.28389236361E+03  0.00000000000E+00 0.  1.
</event>
<event>
12    1  0.1630640E-001  0.3046831E+03  0.7818608E-02  0.1083137E+00
         21   -1    0    0  503  502  0.00000000000E+00  0.00000000000E+00  0.14962612089E+03  0.14962612089E+03  0.00000000000E+00 0.  1.
         21   -1    0    0  501  503 -0.00000000000E+00 -0.00000000000E+00 -0.72187143610E+03  0.72187143610E+03  0.00000000000E+00 0.  1.
          6    2    1    2  501    0 -0.24999031797E+03 -0.39001931186E+00 -0.45300812873E+03  0.54593787432E+03  0.17417372571E+03 0.  0.
         24    2    3    3    0    0 -0.18438050053E+03  0.44470822208E+02 -0.22873424010E+03  0.30795045792E+03  0.80872176497E+02 0.  0.
         -6    2    1    2    0  502  0.24999031797E+03  0.39001931186E+00 -0.11923718648E+03  0.32555968267E+03  0.17110315353E+03 0.  0.
        -24    2    5    5    0    0  0.19839206985E+03 -0.48288227054E+02 -0.11992925171E+03  0.25446453633E+03  0.93155829580E+02 0.  0.
          5    1    3    3  501    0 -0.65609817436E+02 -0.44860841520E+02 -0.22427388863E+03  0.23798741641E+03  0.47000000000E+01 0. -1.
        -11    1    4    4    0    0 -0.13018665265E+03 -0.66958132309E+01 -0.16174922108E+03  0.20774072534E+03  0.00000000000E+00 0.  1.
         12    1    4    4    0    0 -0.54193847881E+02  0.51166635439E+02 -0.66985019022E+02  0.10020973258E+03  0.00000000000E+00 0. -1.
         -5    1    5    5    0  502  0.51598248123E+02  0.48678246366E+02  0.69206523067E+00  0.71095146339E+02  0.47000000000E+01 0.  1.
         13    1    6    6    0    0  0.13709440817E+02  0.57674293036E+01 -0.45959719407E+02  0.48306395190E+02  0.00000000000E+00 0. -1.
        -14    1    6    6    0    0  0.18468262903E+03 -0.54055656358E+02 -0.73969532299E+02  0.20615814114E+03  0.00000000000E+00 0.  1.
</event>
<event>
12    1  0.1630640E-001  0.1866351E+03  0.7818608E-02  0.1161843E+00
         21   -1    0    0  501  502  0.00000000000E+00  0.00000000000E+00  0.22097677055E+02  0.22097677055E+02  0.00000000000E+00 0. -1.
         21   -1    0    0  502  503 -0.00000000000E+00 -0.00000000000E+00 -0.15660934592E+04  0.15660934592E+04  0.00000000000E+00 0. -1.
         -6    2    1    2    0  503 -0.59457268762E+02 -0.35195143695E+02 -0.74816985232E+03  0.77077352176E+03  0.17192972105E+03 0.  0.
        -24    2    3    3    0    0 -0.69958107022E+02 -0.60263189005E+02 -0.33421321007E+03  0.35589900319E+03  0.80248626137E+02 0.  0.
          6    2    1    2  501    0  0.59457268762E+02  0.35195143695E+02 -0.79582592984E+03  0.81741761451E+03  0.17337468372E+03 0.  0.
         24    2    5    5    0    0  0.91312694816E+02 -0.66891185453E+01 -0.66899612739E+03  0.68002420716E+03  0.80587538263E+02 0.  0.
          5    1    5    5  501    0 -0.31855426054E+02  0.41884262240E+02 -0.12682980245E+03  0.13739340734E+03  0.47000000000E+01 0. -1.
        -11    1    6    6    0    0  0.10440893147E+02 -0.31450966501E+02 -0.11762940825E+03  0.12220823715E+03  0.00000000000E+00 0.  1.
         12    1    6    6    0    0  0.80871801669E+02  0.24761847956E+02 -0.55136671914E+03  0.55781597001E+03  0.00000000000E+00 0. -1.
         -5    1    3    3    0  503  0.10500838260E+02  0.25068045310E+02 -0.41395664224E+03  0.41487451857E+03  0.47000000000E+01 0.  1.
         11    1    4    4    0    0 -0.87548784610E+02 -0.49154729740E+02 -0.29312533404E+03  0.30984421666E+03  0.00000000000E+00 0. -1.
        -12    1    4    4    0    0  0.17590677588E+02 -0.11108459265E+02 -0.41087876035E+02  0.46054786530E+02  0.00000000000E+00 0.  1.
</event>
<event>
12    1  0.1630640E-001  0.3202338E+03  0.7818608E-02  0.1075598E+00
         21   -1    0    0  503  502  0.00000000000E+00  0.00000000000E+00  0.93732900862E+03  0.93732900862E+03  0.00000000000E+00 0. -1.
         21   -1    0    0  501  503 -0.00000000000E+00 -0.00000000000E+00 -0.13712089795E+03  0.13712089795E+03  0.00000000000E+00 0. -1.
          6    2    1    2  501    0  0.16890000732E+03  0.20964665209E+03  0.15809975097E+03  0.35713469337E+03  0.17340913108E+03 0.  0.
         24    2    3    3    0    0  0.84408797435E+02  0.13112745271E+03  0.13727941329E+02  0.17228519069E+03  0.71933835010E+02 0.  0.
         -6    2    1    2    0  502 -0.16890000732E+03 -0.20964665209E+03  0.64210835970E+03  0.71731521319E+03  0.17250808178E+03 0.  0.
        -24    2    5    5    0    0 -0.41607736979E+02 -0.15889128462E+03  0.34495789835E+03  0.39005397795E+03  0.78539862326E+02 0.  0.
          5    1    3    3  501    0  0.84491209889E+02  0.78519199380E+02  0.14437180965E+03  0.18484950268E+03  0.47000000000E+01 0. -1.
        -13    1    4    4    0    0  0.96019478059E+02  0.10064389412E+03  0.12072645702E+02  0.13962335895E+03  0.00000000000E+00 0.  1.
         14    1    4    4    0    0 -0.11610680625E+02  0.30483558596E+02  0.16552956273E+01  0.32661831743E+02  0.00000000000E+00 0. -1.
         -5    1    5    5    0  502 -0.12729227034E+03 -0.50755367478E+02  0.29715046134E+03  0.32726123524E+03  0.47000000000E+01 0.  1.
         11    1    6    6    0    0 -0.42298216230E+02 -0.39018510842E+02  0.73830813651E+02  0.93608612472E+02  0.00000000000E+00 0. -1.
        -12    1    6    6    0    0  0.69047925013E+00 -0.11987277377E+03  0.27112708470E+03  0.29644536548E+03  0.00000000000E+00 0.  1.
</event>
<event>
12    1  0.1630640E-001  0.1973224E+03  0.7818608E-02  0.1152300E+00
         21   -1    0    0  503  502  0.00000000000E+00  0.00000000000E+00  0.29250961876E+03  0.29250961876E+03  0.00000000000E+00 0. -1.
         21   -1    0    0  501  503 -0.00000000000E+00 -0.00000000000E+00 -0.14448167369E+03  0.14448167369E+03  0.00000000000E+00 0.  1.
          6    2    1    2  501    0 -0.78094574616E+02  0.53110074993E+02  0.10609388319E+02  0.19760739168E+03  0.17325322356E+03 0.  0.
         24    2    3    3    0    0 -0.83575996064E+02  0.62926203871E+01 -0.45466814791E+02  0.12420064409E+03  0.79586585270E+02 0.  0.
         -6    2    1    2    0  502  0.78094574616E+02 -0.53110074993E+02  0.13741855675E+03  0.23938390077E+03  0.17175956904E+03 0.  0.
        -24    2    5    5    0    0  0.70129655056E+02 -0.58876207128E+02  0.16744574367E+03  0.20744004098E+03  0.81294017281E+02 0.  0.
          5    1    3    3  501    0  0.54814214484E+01  0.46817454606E+02  0.56076203110E+02  0.73406747592E+02  0.47000000000E+01 0. -1.
        -11    1    4    4    0    0 -0.32034103152E+02 -0.43590262852E+01 -0.61246116042E+02  0.69255119703E+02  0.00000000000E+00 0.  1.
         12    1    4    4    0    0 -0.51541892912E+02  0.10651646672E+02  0.15779301251E+02  0.54945524384E+02  0.00000000000E+00 0. -1.
         -5    1    5    5    0  502  0.79649195601E+01  0.57661321351E+01 -0.30027186922E+02  0.31943859783E+02  0.47000000000E+01 0.  1.
         13    1    6    6    0    0  0.14886365914E+02 -0.62291013319E+02  0.11248031285E+03  0.12943567904E+03  0.00000000000E+00 0. -1.
        -14    1    6    6    0    0  0.55243289142E+02  0.34148061908E+01  0.54965430825E+02  0.78004361944E+02  0.00000000000E+00 0.  1.
</event>
<event>
12    1  0.1630640E-001  0.2299272E+03  0.7818608E-02  0.1128435E+00
         21   -1    0    0  501  502  0.00000000000E+00  0.00000000000E+00  0.72824378840E+02  0.72824378840E+02  0.00000000000E+00 0. -1.
         21   -1    0    0  502  503 -0.00000000000E+00 -0.00000000000E+00 -0.70502434421E+03  0.70502434421E+03  0.00000000000E+00 0. -1.
         -6    2    1    2    0  503 -0.14581062822E+03  0.32299929736E+02 -0.27810008234E+03  0.36084095405E+03  0.17482137615E+03 0.  0.
        -24    2    3    3    0    0 -0.10751030469E+03  0.52174377824E+02 -0.96205008952E+02  0.17383877173E+03  0.81755021212E+02 0.  0.
          6    2    1    2  501    0  0.14581062822E+03 -0.32299929736E+02 -0.35409988302E+03  0.41700776899E+03  0.16187874315E+03 0.  0.
         24    2    5    5    0    0  0.37340864299E+02  0.28057377688E+02 -0.18618844314E+03  0.20814169734E+03  0.80469082416E+02 0.  0.
          5    1    5    5  501    0  0.10846976392E+03 -0.60357307423E+02 -0.16791143988E+03  0.20886607165E+03  0.47000000000E+01 0. -1.
        -13    1    6    6    0    0 -0.57400985152E+01  0.26875514980E+02 -0.14392212255E+02  0.31022214782E+02  0.00000000000E+00 0.  1.
         14    1    6    6    0    0  0.43080962815E+02  0.11818627073E+01 -0.17179623088E+03  0.17711948256E+03  0.00000000000E+00 0. -1.
         -5    1    3    3    0  503 -0.38300323528E+02 -0.19874448089E+02 -0.18189507339E+03  0.18700218232E+03  0.47000000000E+01 0.  1.
         13    1    4    4    0    0  0.11054485646E+02  0.10233758557E+02 -0.25350282475E+02  0.29488443307E+02  0.00000000000E+00 0. -1.
        -14    1    4    4    0    0 -0.11856479033E+03  0.41940619267E+02 -0.70854726477E+02  0.14435032842E+03  0.00000000000E+00 0.  1.
</event>
<event>
12    1  0.1630640E-001  0.2158950E+03  0.7818608E-02  0.1137335E+00
         21   -1    0    0  503  502  0.00000000000E+00  0.00000000000E+00  0.41153766206E+03  0.41153766206E+03  0.00000000000E+00 0. -1.
         21   -1    0    0  501  503 -0.00000000000E+00 -0.00000000000E+00 -0.27620527710E+03  0.27620527710E+03  0.00000000000E+00 0. -1.
          6    2    1    2  501    0 -0.12799337222E+03  0.29890897060E+02 -0.19735160240E+03  0.29114579565E+03  0.16894511031E+03 0.  0.
         24    2    3    3    0    0 -0.33848959881E+02  0.66712440259E+02 -0.12135376769E+03  0.16458846754E+03  0.82257674077E+02 0.  0.
         -6    2    1    2    0  502  0.12799337222E+03 -0.29890897060E+02  0.33268398735E+03  0.39659714351E+03  0.17127431140E+03 0.  0.
        -24    2    5    5    0    0  0.14191225129E+03 -0.13443124603E+02  0.18371429292E+03  0.24600390239E+03  0.80294295572E+02 0.  0.
          5    1    3    3  501    0 -0.94144412338E+02 -0.36821543199E+02 -0.75997834702E+02  0.12655732811E+03  0.47000000000E+01 0. -1.
        -13    1    4    4    0    0 -0.50232324983E+02  0.47936108126E+02 -0.41396981060E+02  0.80838524085E+02  0.00000000000E+00 0.  1.
         14    1    4    4    0    0  0.16383365101E+02  0.18776332133E+02 -0.79956786635E+02  0.83749943459E+02  0.00000000000E+00 0. -1.
         -5    1    5    5    0  502 -0.13918879074E+02 -0.16447772457E+02  0.14896969443E+03  0.15059324113E+03  0.47000000000E+01 0.  1.
         13    1    6    6    0    0  0.13593209104E+03 -0.26993504491E+01  0.18883229007E+03  0.23268531032E+03  0.00000000000E+00 0. -1.
        -14    1    6    6    0    0  0.59801602488E+01 -0.10743774154E+02 -0.51179971515E+01  0.13318592062E+02  0.00000000000E+00 0.  1.
</event>
<event>
12    1  0.1630640E-001  0.1760287E+03  0.7818608E-02  0.1171751E+00
         21   -1    0    0  503  502  0.00000000000E+00  0.00000000000E+00  0.15668037518E+04  0.15668037518E+04  0.00000000000E+00 0. -1.
         21   -1    0    0  501  503 -0.00000000000E+00 -0.00000000000E+00 -0.28898040275E+02  0.28898040275E+02  0.00000000000E+00 0. -1.
          6    2    1    2  501    0  0.36818078800E+02  0.11162980732E+02  0.12180253101E+04  0.12306793860E+04  0.17177284976E+03 0.  0.
         24    2    3    3    0    0  0.78576050188E+02  0.90377613273E+01  0.10919851982E+04  0.10978018313E+04  0.80506588950E+02 0.  0.
         -6    2    1    2    0  502 -0.36818078800E+02 -0.11162980732E+02  0.31988040138E+03  0.36502240607E+03  0.17157419002E+03 0.  0.
        -24    2    5    5    0    0  0.98292473984E+01 -0.50598588578E+02  0.10366757678E+03  0.14029765058E+03  0.79244135513E+02 0.  0.
          5    1    3    3  501    0 -0.41757971389E+02  0.21252194049E+01  0.12604011191E+03  0.13287755470E+03  0.47000000000E+01 0. -1.
        -13    1    4    4    0    0  0.11792331943E+02 -0.26586116753E+02  0.15087188365E+03  0.15364962080E+03  0.00000000000E+00 0.  1.
         14    1    4    4    0    0  0.66783718245E+02  0.35623878080E+02  0.94111331454E+03  0.94415221046E+03  0.00000000000E+00 0. -1.
         -5    1    5    5    0  502 -0.46647326198E+02  0.39435607845E+02  0.21621282460E+03  0.22472475549E+03  0.47000000000E+01 0.  1.
         11    1    6    6    0    0  0.76939390649E+00  0.15251572500E+02 -0.20618744257E+01  0.15409534609E+02  0.00000000000E+00 0. -1.
        -12    1    6    6    0    0  0.90598534919E+01 -0.65850161078E+02  0.10572945121E+03  0.12488811598E+03  0.00000000000E+00 0.  1.
</event>
<event>
12    1  0.1630640E-001  0.2104595E+03  0.7818608E-02  0.1141248E+00
         21   -1    0    0  503  502  0.00000000000E+00  0.00000000000E+00  0.51909745102E+02  0.51909745102E+02  0.00000000000E+00 0. -1.
         21   -1    0    0  501  503 -0.00000000000E+00 -0.00000000000E+00 -0.87918035103E+03  0.87918035103E+03  0.00000000000E+00 0. -1.
          6    2    1    2  501    0  0.72291132962E+01 -0.12147562364E+03 -0.49517560190E+03  0.53804466155E+03  0.17171078560E+03 0.  0.
         24    2    3    3    0    0 -0.74648114250E+00 -0.53035133880E+02 -0.10846190451E+03  0.14521227427E+03  0.80680463622E+02 0.  0.
         -6    2    1    2    0  502 -0.72291132962E+01  0.12147562364E+03 -0.33209500403E+03  0.39304543458E+03  0.17143230363E+03 0.  0.
        -24    2    5    5    0    0 -0.48687723126E+02  0.13449443301E+03 -0.23434478665E+03  0.28596835616E+03  0.80007342159E+02 0.  0.
          5    1    3    3  501    0  0.79755944387E+01 -0.68440489759E+02 -0.38671369739E+03  0.39283238728E+03  0.47000000000E+01 0. -1.
        -11    1    4    4    0    0 -0.31888370130E+02 -0.15472954715E+02 -0.82833930697E+02  0.90098504715E+02  0.00000000000E+00 0.  1.
         12    1    4    4    0    0  0.31141888987E+02 -0.37562179165E+02 -0.25627973814E+02  0.55113769560E+02  0.00000000000E+00 0. -1.
         -5    1    5    5    0  502  0.41458609829E+02 -0.13018809369E+02 -0.97750217377E+02  0.10707707842E+03  0.47000000000E+01 0.  1.
         11    1    6    6    0    0 -0.41989372224E+02  0.16301770676E+02 -0.74527846262E+02  0.87081886609E+02  0.00000000000E+00 0. -1.
        -12    1    6    6    0    0 -0.66983509021E+01  0.11819266233E+03 -0.15981694039E+03  0.19888646955E+03  0.00000000000E+00 0.  1.
</event>
<event>
12    1  0.1630640E-001  0.2197929E+03  0.7818608E-02  0.1135696E+00
         21   -1    0    0  501  502  0.00000000000E+00  0.00000000000E+00  0.17816021242E+04  0.17816021242E+04  0.00000000000E+00 0. -1.
         21   -1    0    0  502  503 -0.00000000000E+00 -0.00000000000E+00 -0.48737442055E+02  0.48737442055E+02  0.00000000000E+00 0. -1.
         -6    2    1    2    0  503 -0.36280787529E+02 -0.12468285914E+03  0.15000726455E+04  0.15160893314E+04  0.17733247898E+03 0.  0.
        -24    2    3    3    0    0 -0.37001959734E+02 -0.64252087514E+02  0.13468471575E+04  0.13513090582E+04  0.80879103961E+02 0.  0.
          6    2    1    2  501    0  0.36280787529E+02  0.12468285914E+03  0.23279203668E+03  0.31425023489E+03  0.16643006603E+03 0.  0.
         24    2    5    5    0    0  0.57808119692E+02  0.66200250440E+02  0.22088840776E+03  0.25063083587E+03  0.79371754074E+02 0.  0.
          5    1    5    5  501    0 -0.21527332163E+02  0.58482608699E+02  0.11903628920E+02  0.63619399021E+02  0.47000000000E+01 0. -1.
        -13    1    6    6    0    0  0.41754561091E+01 -0.99189106264E+01  0.86313511153E+02  0.86981845401E+02  0.00000000000E+00 0.  1.
         14    1    6    6    0    0  0.53632663583E+02  0.76119161066E+02  0.13457489661E+03  0.16364899047E+03  0.00000000000E+00 0. -1.
         -5    1    3    3    0  503  0.72117220476E+00 -0.60430771625E+02  0.15322548802E+03  0.16478027317E+03  0.47000000000E+01 0.  1.
         11    1    4    4    0    0  0.24786442153E+02 -0.17196987981E+02  0.27441425249E+03  0.27606753898E+03  0.00000000000E+00 0. -1.
        -12    1    4    4    0    0 -0.61788401886E+02 -0.47055099533E+02  0.10724329050E+04  0.10752415192E+04  0.00000000000E+00 0.  1.
</event>
<event>
12    1  0.1630640E-001  0.1795090E+03  0.7818608E-02  0.1168465E+00
         21   -1    0    0  501  502  0.00000000000E+00  0.00000000000E+00  0.15505220550E+03  0.15505220550E+03  0.00000000000E+00 0. -1.
         21   -1    0    0  502  503 -0.00000000000E+00 -0.00000000000E+00 -0.37707627585E+03  0.37707627585E+03  0.00000000000E+00 0. -1.
         -6    2    1    2    0  503  0.36160091290E+02  0.36609142544E+02 -0.28960110561E+03  0.34032090778E+03  0.17117750548E+03 0.  0.
        -24    2    3    3    0    0  0.26081064183E+02  0.69246927310E+02 -0.28611247856E+03  0.30566441776E+03  0.78070654204E+02 0.  0.
          6    2    1    2  501    0 -0.36160091290E+02 -0.36609142544E+02  0.67577035254E+02  0.19180757357E+03  0.17197589385E+03 0.  0.
         24    2    5    5    0    0 -0.56785372863E+02  0.14544119938E+02 -0.78929870484E+01  0.98213381609E+02  0.78405733760E+02 0.  0.
          5    1    5    5  501    0  0.20625281573E+02 -0.51153262482E+02  0.75470022303E+02  0.93594191961E+02  0.47000000000E+01 0. -1.
        -11    1    6    6    0    0 -0.46206608582E+02 -0.23834512000E+02 -0.21329877785E+02  0.56196960107E+02  0.00000000000E+00 0.  1.
         12    1    6    6    0    0 -0.10578764281E+02  0.38378631938E+02  0.13436890737E+02  0.42016421502E+02  0.00000000000E+00 0. -1.
         -5    1    3    3    0  503  0.10079027107E+02 -0.32637784766E+02 -0.34886270524E+01  0.34656490021E+02  0.47000000000E+01 0.  1.
         13    1    4    4    0    0  0.17832747200E+02 -0.43664306530E+01 -0.14624484020E+03  0.14739276059E+03  0.00000000000E+00 0. -1.
        -14    1    4    4    0    0  0.82483169826E+01  0.73613357963E+02 -0.13986763835E+03  0.15827165717E+03  0.00000000000E+00 0.  1.
</event>
<event>
12    1  0.1630640E-001  0.2186607E+03  0.7818608E-02  0.1135109E+00
         21   -1    0    0  501  502  0.00000000000E+00  0.00000000000E+00  0.41365356215E+03  0.41365356215E+03  0.00000000000E+00 0. -1.
         21   -1    0    0  502  503 -0.00000000000E+00 -0.00000000000E+00 -0.25021255765E+03  0.25021255765E+03  0.00000000000E+00 0. -1.
         -6    2    1    2    0  503 -0.12398017693E+03 -0.50631803925E+02 -0.16222207975E+03  0.27226552433E+03  0.17285210077E+03 0.  0.
        -24    2    3    3    0    0 -0.10841788795E+03 -0.10155372940E+03 -0.13461157082E+03  0.21210193455E+03  0.69277393567E+02 0.  0.
          6    2    1    2  501    0  0.12398017693E+03  0.50631803925E+02  0.32566308426E+03  0.39160059547E+03  0.17134736088E+03 0.  0.
         24    2    5    5    0    0  0.10706686352E+03 -0.18145541475E+02  0.27159811791E+03  0.30237339111E+03  0.76626079509E+02 0.  0.
          5    1    5    5  501    0  0.16913313406E+02  0.68777345399E+02  0.54064966346E+02  0.89227204352E+02  0.47000000000E+01 0. -1.
        -11    1    6    6    0    0 -0.94870119202E+01  0.36702164754E-01  0.54283055299E+02  0.55105851185E+02  0.00000000000E+00 0.  1.
         12    1    6    6    0    0  0.11655387544E+03 -0.18182243640E+02  0.21731506261E+03  0.24726753993E+03  0.00000000000E+00 0. -1.
         -5    1    3    3    0  503 -0.15562288979E+02  0.50921925471E+02 -0.27610508927E+02  0.60163589779E+02  0.47000000000E+01 0.  1.
         13    1    4    4    0    0 -0.76927349207E+02 -0.98600213713E+02 -0.78397472041E+02  0.14760075482E+03  0.00000000000E+00 0. -1.
        -14    1    4    4    0    0 -0.31490538740E+02 -0.29535156831E+01 -0.56214098784E+02  0.64501179734E+02  0.00000000000E+00 0.  1.
</event>
<event>
12    1  0.1630640E-001  0.1848484E+03  0.7818608E-02  0.1163248E+00
         21   -1    0    0  501  502  0.00000000000E+00  0.00000000000E+00  0.62386565936E+03  0.62386565936E+03  0.00000000000E+00 0. -1.
         21   -1    0    0  502  503 -0.00000000000E+00 -0.00000000000E+00 -0.58692236598E+02  0.58692236598E+02  0.00000000000E+00 0. -1.
         -6    2    1    2    0  503  0.61733381917E+02 -0.25285766578E+02  0.19372760181E+03  0.26776727241E+03  0.17239068430E+03 0.  0.
        -24    2    3    3    0    0 -0.15351058019E+02 -0.22363000304E+01  0.36527919804E+02  0.91111905063E+02  0.82014841943E+02 0.  0.
          6    2    1    2  501    0 -0.61733381917E+02  0.25285766578E+02  0.37144582095E+03  0.41479062355E+03  0.17213042453E+03 0.  0.
         24    2    5    5    0    0  0.34782134784E+02 -0.80867261671E+01  0.15554569238E+03  0.17591005977E+03  0.73991179674E+02 0.  0.
          5    1    5    5  501    0 -0.96515516701E+02  0.33372492745E+02  0.21590012857E+03  0.23888056378E+03  0.47000000000E+01 0. -1.
        -13    1    6    6    0    0  0.26980554088E+02  0.29009650230E+02  0.50187803215E+02  0.63940016398E+02  0.00000000000E+00 0.  1.
         14    1    6    6    0    0  0.78015806953E+01 -0.37096376398E+02  0.10535788916E+03  0.11197004337E+03  0.00000000000E+00 0. -1.
         -5    1    3    3    0  503  0.77084439936E+02 -0.23049466547E+02  0.15719968201E+03  0.17665536734E+03  0.47000000000E+01 0.  1.
         11    1    4    4    0    0  0.12626371744E+02 -0.36698863793E+02  0.20697845320E+02  0.43984459392E+02  0.00000000000E+00 0. -1.
        -12    1    4    4    0    0 -0.27977429763E+02  0.34462563763E+02  0.15830074484E+02  0.47127445671E+02  0.00000000000E+00 0.  1.
</event>
<event>
12    1  0.1630640E-001  0.1778405E+03  0.7818608E-02  0.1169964E+00
         21   -1    0    0  503  502  0.00000000000E+00  0.00000000000E+00  0.30461939192E+03  0.30461939192E+03  0.00000000000E+00 0. -1.
         21   -1    0    0  501  503 -0.00000000000E+00 -0.00000000000E+00 -0.27792116400E+03  0.27792116400E+03  0.00000000000E+00 0.  1.
          6    2    1    2  501    0  0.16961598832E+02  0.39858928969E+02 -0.21726998650E+03  0.28063372743E+03  0.17225740009E+03 0.  0.
         24    2    3    3    0    0  0.16889894804E+02  0.89316845116E+02 -0.11437873418E+03  0.16637616570E+03  0.79597527039E+02 0.  0.
         -6    2    1    2    0  502 -0.16961598832E+02 -0.39858928969E+02  0.24396821442E+03  0.30190682850E+03  0.17248424100E+03 0.  0.
        -24    2    5    5    0    0 -0.52662601226E+02 -0.17627046352E+02  0.62461505298E+02  0.11553195457E+03  0.79762964784E+02 0.  0.
          5    1    3    3  501    0  0.71704027628E-01 -0.49457916146E+02 -0.10289125231E+03  0.11425756173E+03  0.47000000000E+01 0. -1.
        -13    1    4    4    0    0  0.25943335067E+02  0.12000682447E+02 -0.72609752485E+02  0.78033641268E+02  0.00000000000E+00 0.  1.
         14    1    4    4    0    0 -0.90534402630E+01  0.77316162668E+02 -0.41768981698E+02  0.88342524429E+02  0.00000000000E+00 0. -1.
         -5    1    5    5    0  502  0.35701002394E+02 -0.22231882618E+02  0.18150670912E+03  0.18637487393E+03  0.47000000000E+01 0.  1.
         13    1    6    6    0    0  0.11681415612E+02 -0.47027533749E+01  0.46245198666E+02  0.47929007497E+02  0.00000000000E+00 0. -1.
        -14    1    6    6    0    0 -0.64344016838E+02 -0.12924292977E+02  0.16216306632E+02  0.67602947070E+02  0.00000000000E+00 0.  1.
</event>
<event>
12    1  0.1630640E-001  0.1998580E+03  0.7818608E-02  0.1150774E+00
         21   -1    0    0  503  502  0.00000000000E+00  0.00000000000E+00  0.11374824548E+03  0.11374824548E+03  0.00000000000E+00 0. -1.
         21   -1    0    0  501  503 -0.00000000000E+00 -0.00000000000E+00 -0.43770699231E+03  0.43770699231E+03  0.00000000000E+00 0. -1.
          6    2    1    2  501    0 -0.10591109000E+01 -0.90614624132E+02 -0.29115452263E+03  0.35314895245E+03  0.17813223949E+03 0.  0.
         24    2    3    3    0    0  0.98164331666E+01  0.81166869977E+01 -0.55391440611E+02  0.97273064374E+02  0.78940448389E+02 0.  0.
         -6    2    1    2    0  502  0.10591109000E+01  0.90614624132E+02 -0.32804224200E+02  0.19830628534E+03  0.17331224382E+03 0.  0.
        -24    2    5    5    0    0  0.52514783814E+01 -0.17980513989E+02 -0.36273035949E+02  0.89473373846E+02  0.79617049568E+02 0.  0.
          5    1    3    3  501    0 -0.10875544067E+02 -0.98731311130E+02 -0.23576308202E+03  0.25587588808E+03  0.47000000000E+01 0. -1.
        -13    1    4    4    0    0 -0.22444020615E+02  0.23807550317E+02 -0.51735211187E+02  0.61213279524E+02  0.00000000000E+00 0.  1.
         14    1    4    4    0    0  0.32260453782E+02 -0.15690863319E+02 -0.36562294235E+01  0.36059784851E+02  0.00000000000E+00 0. -1.
         -5    1    5    5    0  502 -0.41923674814E+01  0.10859513812E+03  0.34688117493E+01  0.10883291149E+03  0.47000000000E+01 0.  1.
         11    1    6    6    0    0 -0.12030742039E+02  0.26706763116E+02 -0.28621783365E+02  0.40953588770E+02  0.00000000000E+00 0. -1.
        -12    1    6    6    0    0  0.17282220421E+02 -0.44687277105E+02 -0.76512525844E+01  0.48519785076E+02  0.00000000000E+00 0.  1.
</event>
<event>
12    1  0.1630640E-001  0.1856262E+03  0.7818608E-02  0.1163570E+00
         21   -1    0    0  503  502  0.00000000000E+00  0.00000000000E+00  0.22693895075E+03  0.22693895075E+03  0.00000000000E+00 0.  1.
         21   -1    0    0  501  503 -0.00000000000E+00 -0.00000000000E+00 -0.14908167078E+03  0.14908167078E+03  0.00000000000E+00 0.  1.
          6    2    1    2  501    0 -0.69034154324E+02 -0.17577869716E+02  0.54246804565E+02  0.18889886108E+03  0.16632909531E+03 0.  0.
         24    2    3    3    0    0 -0.22138342718E+02  0.16068983335E+02 -0.22362279984E+02  0.92865691285E+02  0.85881584801E+02 0.  0.
         -6    2    1    2    0  502  0.69034154324E+02  0.17577869716E+02  0.23610475404E+02  0.18712176044E+03  0.17141295959E+03 0.  0.
        -24    2    5    5    0    0  0.33977717110E+02 -0.51768376973E+02  0.38995963020E+02  0.10777027054E+03  0.79115712516E+02 0.  0.
          5    1    3    3  501    0 -0.46895811607E+02 -0.33646853051E+02  0.76609084548E+02  0.96033169800E+02  0.47000000000E+01 0. -1.
        -11    1    4    4    0    0 -0.54182913114E+02  0.64428872487E+01 -0.40293545543E+01  0.54713202865E+02  0.00000000000E+00 0.  1.
         12    1    4    4    0    0  0.32044570397E+02  0.96260960865E+01 -0.18332925429E+02  0.38152488419E+02  0.00000000000E+00 0. -1.
         -5    1    5    5    0  502  0.35056437214E+02  0.69346246689E+02 -0.15385487616E+02  0.79351489899E+02  0.47000000000E+01 0.  1.
         13    1    6    6    0    0 -0.31105497760E+01  0.17648796022E+02 -0.36001571957E+01  0.18278858082E+02  0.00000000000E+00 0. -1.
        -14    1    6    6    0    0  0.37088266886E+02 -0.69417172995E+02  0.42596120216E+02  0.89491412463E+02  0.00000000000E+00 0.  1.
</event>
<event>
12    1  0.1630640E-001  0.2090582E+03  0.7818608E-02  0.1142677E+00
         21   -1    0    0  503  502  0.00000000000E+00  0.00000000000E+00  0.95640103877E+02  0.95640103877E+02  0.00000000000E+00 0. -1.
         21   -1    0    0  501  503 -0.00000000000E+00 -0.00000000000E+00 -0.16174784783E+04  0.16174784783E+04  0.00000000000E+00 0. -1.
          6    2    1    2  501    0 -0.11787151909E+03 -0.49868495578E+01 -0.14867637340E+04  0.15011384934E+04  0.17038724104E+03 0.  0.
         24    2    3    3    0    0 -0.36713770416E+02 -0.92971664446E+01 -0.11891128921E+04  0.11925558097E+04  0.82252968329E+02 0.  0.
         -6    2    1    2    0  502  0.11787151909E+03  0.49868495578E+01 -0.35074640343E+02  0.21198008871E+03  0.17258842352E+03 0.  0.
        -24    2    5    5    0    0  0.64696641739E+02  0.10451580943E+02  0.47396762408E+02  0.11358774581E+03  0.79754823767E+02 0.  0.
          5    1    3    3  501    0 -0.81157748674E+02  0.43103168869E+01 -0.29765084197E+03  0.30858268377E+03  0.47000000000E+01 0. -1.
        -11    1    4    4    0    0  0.19066800512E+02 -0.24745312466E+02 -0.52342598699E+03  0.52435735641E+03  0.00000000000E+00 0.  1.
         12    1    4    4    0    0 -0.55780570929E+02  0.15448146022E+02 -0.66568690509E+03  0.66819845324E+03  0.00000000000E+00 0. -1.
         -5    1    5    5    0  502  0.53174877351E+02 -0.54647313857E+01 -0.82471402751E+02  0.98392342904E+02  0.47000000000E+01 0.  1.
         13    1    6    6    0    0  0.72520096605E+02  0.32217129334E+02  0.42219208532E+02  0.89886425022E+02  0.00000000000E+00 0. -1.
        -14    1    6    6    0    0 -0.78234548659E+01 -0.21765548391E+02  0.51775538761E+01  0.23701320785E+02  0.00000000000E+00 0.  1.
</event>
<event>
12    1  0.1630640E-001  0.1813547E+03  0.7818608E-02  0.1166644E+00
         21   -1    0    0  501  502  0.00000000000E+00  0.00000000000E+00  0.48417934321E+03  0.48417934321E+03  0.00000000000E+00 0. -1.
         21   -1    0    0  502  503 -0.00000000000E+00 -0.00000000000E+00 -0.67999755797E+02  0.67999755797E+02  0.00000000000E+00 0. -1.
         -6    2    1    2    0  503 -0.55925362246E+02 -0.11392521657E+02  0.19014789584E+03  0.26276556626E+03  0.17213972471E+03 0.  0.
        -24    2    3    3    0    0  0.34260570389E+01 -0.57275459655E+02  0.68589798466E+02  0.11984497289E+03  0.79787473501E+02 0.  0.
          6    2    1    2  501    0  0.55925362246E+02  0.11392521657E+02  0.22603169157E+03  0.28941353275E+03  0.17150052960E+03 0.  0.
         24    2    5    5    0    0 -0.31345453200E+02 -0.63872072393E+01  0.14665750240E+03  0.17002062721E+03  0.79845205323E+02 0.  0.
          5    1    5    5  501    0  0.87270815446E+02  0.17779728897E+02  0.79374189174E+02  0.11939290555E+03  0.47000000000E+01 0. -1.
        -13    1    6    6    0    0 -0.20603131645E+02 -0.18132882257E+02  0.55292004722E+01  0.27997544720E+02  0.00000000000E+00 0.  1.
         14    1    6    6    0    0 -0.10742321556E+02  0.11745675018E+02  0.14112830193E+03  0.14202308249E+03  0.00000000000E+00 0. -1.
         -5    1    3    3    0  503 -0.59351419285E+02  0.45882937997E+02  0.12155809738E+03  0.14292059337E+03  0.47000000000E+01 0.  1.
         13    1    4    4    0    0 -0.30133237327E+02 -0.25005320524E+02  0.28123005506E+01  0.39257955636E+02  0.00000000000E+00 0. -1.
        -14    1    4    4    0    0  0.33559294366E+02 -0.32270139130E+02  0.65777497915E+02  0.80587017253E+02  0.00000000000E+00 0.  1.
</event>
<event>
12    1  0.1630640E-001  0.2001764E+03  0.7818608E-02  0.1149663E+00
         21   -1    0    0  503  502  0.00000000000E+00  0.00000000000E+00  0.18903836177E+03  0.18903836177E+03  0.00000000000E+00 0. -1.
         21   -1    0    0  501  503 -0.00000000000E+00 -0.00000000000E+00 -0.23440821788E+03  0.23440821788E+03  0.00000000000E+00 0. -1.
          6    2    1    2  501    0  0.84788865924E+01 -0.10174234030E+03 -0.88736542116E+02  0.21896292087E+03  0.17218359818E+03 0.  0.
         24    2    3    3    0    0 -0.32597914982E+02 -0.39033653388E+02  0.89584745609E+01  0.95731068961E+02  0.80609758343E+02 0.  0.
         -6    2    1    2    0  502 -0.84788865924E+01  0.10174234030E+03  0.43366686009E+02  0.20448365878E+03  0.17178329932E+03 0.  0.
        -24    2    5    5    0    0  0.51452984018E+02  0.29261785664E+02 -0.40662506449E+01  0.99045366898E+02  0.79308187756E+02 0.  0.
          5    1    3    3  501    0  0.41076801574E+02 -0.62708686911E+02 -0.97695016677E+02  0.12323185191E+03  0.47000000000E+01 0. -1.
        -13    1    4    4    0    0 -0.43827607155E+02 -0.55105210044E+02 -0.65775688814E+01  0.70715682386E+02  0.00000000000E+00 0.  1.
         14    1    4    4    0    0  0.11229692174E+02  0.16071556656E+02  0.15536043442E+02  0.25015386575E+02  0.00000000000E+00 0. -1.
         -5    1    5    5    0  502 -0.59931870611E+02  0.72480554634E+02  0.47432936653E+02  0.10543829188E+03  0.47000000000E+01 0.  1.
         13    1    6    6    0    0  0.37353989996E+02  0.52453394620E+02  0.14696293166E+02  0.66050436854E+02  0.00000000000E+00 0. -1.
        -14    1    6    6    0    0  0.14098994022E+02 -0.23191608955E+02 -0.18762543811E+02  0.32994930044E+02  0.00000000000E+00 0.  1.
</event>
<event>
12    1  0.1630640E-001  0.2165896E+03  0.7818608E-02  0.1137420E+00
         21   -1    0    0  501  502  0.00000000000E+00  0.00000000000E+00  0.75013901275E+02  0.75013901275E+02  0.00000000000E+00 0. -1.
         21   -1    0    0  502  503 -0.00000000000E+00 -0.00000000000E+00 -0.68612719894E+03  0.68612719894E+03  0.00000000000E+00 0. -1.
         -6    2    1    2    0  503 -0.11582931397E+03  0.42266326664E+02 -0.42834505111E+03  0.47774155230E+03  0.17191461731E+03 0.  0.
        -24    2    3    3    0    0 -0.12715750018E+03 -0.77263222291E+01 -0.37259352367E+03  0.40186062218E+03  0.80232785482E+02 0.  0.
          6    2    1    2  501    0  0.11582931397E+03 -0.42266326664E+02 -0.18276824656E+03  0.28339954791E+03  0.17806796304E+03 0.  0.
         24    2    5    5    0    0  0.73930708437E+02  0.58887170713E+01 -0.18935429152E+03  0.21905774680E+03  0.81429859850E+02 0.  0.
          5    1    5    5  501    0  0.41898605536E+02 -0.48155043735E+02  0.65860449576E+01  0.64341801118E+02  0.47000000000E+01 0. -1.
        -13    1    6    6    0    0  0.63490334158E+02 -0.24365718175E+02 -0.16614173005E+03  0.17952098824E+03  0.00000000000E+00 0.  1.
         14    1    6    6    0    0  0.10440374279E+02  0.30254435247E+02 -0.23212561467E+02  0.39536758555E+02  0.00000000000E+00 0. -1.
         -5    1    3    3    0  503  0.11328186204E+02  0.49992648893E+02 -0.55751527434E+02  0.75880930129E+02  0.47000000000E+01 0.  1.
         13    1    4    4    0    0 -0.74387359938E+02 -0.23600339623E+02 -0.30408489660E+03  0.31393961154E+03  0.00000000000E+00 0. -1.
        -14    1    4    4    0    0 -0.52770140239E+02  0.15874017393E+02 -0.68508627069E+02  0.87921010640E+02  0.00000000000E+00 0.  1.
</event>
<event>
12    1  0.1630640E-001  0.4032758E+03  0.7818608E-02  0.1042953E+00
         21   -1    0    0  503  502  0.00000000000E+00  0.00000000000E+00  0.38990930790E+03  0.38990930790E+03  0.00000000000E+00 0.  1.
         21   -1    0    0  501  503 -0.00000000000E+00 -0.00000000000E+00 -0.41451816096E+03  0.41451816096E+03  0.00000000000E+00 0.  1.
          6    2    1    2  501    0 -0.92585741404E+02  0.34825710171E+03 -0.32477782841E+02  0.40458150921E+03  0.18104215757E+03 0.  0.
         24    2    3    3    0    0 -0.11593600584E+03  0.15899506962E+03 -0.11033669848E+02  0.21262502555E+03  0.79793922110E+02 0.  0.
         -6    2    1    2    0  502  0.92585741404E+02 -0.34825710171E+03  0.78689297779E+01  0.39984595964E+03  0.17308882974E+03 0.  0.
        -24    2    5    5    0    0  0.81312766059E+02 -0.11369515437E+03 -0.23775461482E+02  0.16284417776E+03  0.80091195595E+02 0.  0.
          5    1    3    3  501    0  0.23350264432E+02  0.18926203209E+03 -0.21444112993E+02  0.19195648367E+03  0.47000000000E+01 0. -1.
        -13    1    4    4    0    0 -0.28231769669E+02  0.40084847909E+02 -0.38499968707E+02  0.62338394597E+02  0.00000000000E+00 0.  1.
         14    1    4    4    0    0 -0.87704236167E+02  0.11891022172E+03  0.27466298859E+02  0.15028663095E+03  0.00000000000E+00 0. -1.
         -5    1    5    5    0  502  0.11272975345E+02 -0.23456194734E+03  0.31644391260E+02  0.23700178188E+03  0.47000000000E+01 0.  1.
         11    1    6    6    0    0 -0.13556519091E+02 -0.30265977763E+02 -0.14420593319E+02  0.36162993951E+02  0.00000000000E+00 0. -1.
        -12    1    6    6    0    0  0.94869285150E+02 -0.83429176607E+02 -0.93548681634E+01  0.12668118381E+03  0.00000000000E+00 0.  1.
</event>
<event>
12    1  0.1630640E-001  0.2438301E+03  0.7818608E-02  0.1117475E+00
         21   -1    0    0  501  502  0.00000000000E+00  0.00000000000E+00  0.10673921095E+04  0.10673921095E+04  0.00000000000E+00 0.  1.
         21   -1    0    0  502  503 -0.00000000000E+00 -0.00000000000E+00 -0.17433893917E+03  0.17433893917E+03  0.00000000000E+00 0. -1.
         -6    2    1    2    0  503  0.44150668230E+02 -0.16530622236E+03 -0.66637160707E+02  0.25154993065E+03  0.17193437052E+03 0.  0.
        -24    2    3    3    0    0  0.37363613796E+02 -0.93089163561E+02  0.30819222942E+02  0.12997195401E+03  0.76689323367E+02 0.  0.
          6    2    1    2  501    0 -0.44150668230E+02  0.16530622236E+03  0.95969033099E+03  0.99018111798E+03  0.17371725978E+03 0.  0.
         24    2    5    5    0    0 -0.61660413064E+02  0.18688772779E+03  0.75815610056E+03  0.78668544585E+03  0.73104641130E+02 0.  0.
          5    1    5    5  501    0  0.17509744833E+02 -0.21581505425E+02  0.20153423043E+03  0.20349567213E+03  0.47000000000E+01 0. -1.
        -11    1    6    6    0    0 -0.50440734141E+02  0.45027422168E+02  0.24911294075E+03  0.25812592597E+03  0.00000000000E+00 0.  1.
         12    1    6    6    0    0 -0.11219678923E+02  0.14186030562E+03  0.50904315981E+03  0.52855951988E+03  0.00000000000E+00 0. -1.
         -5    1    3    3    0  503  0.67870544344E+01 -0.72217058799E+02 -0.97456383649E+02  0.12157797664E+03  0.47000000000E+01 0.  1.
         13    1    4    4    0    0  0.56469167184E+02 -0.89616368025E+02  0.31602111979E+02  0.11053756711E+03  0.00000000000E+00 0. -1.
        -14    1    4    4    0    0 -0.19105553388E+02 -0.34727955357E+01 -0.78288903718E+00  0.19434386904E+02  0.00000000000E+00 0.  1.
</event>
<event>
12    1  0.1630640E-001  0.2240327E+03  0.7818608E-02  0.1131075E+00
         21   -1    0    0  503  502  0.00000000000E+00  0.00000000000E+00  0.12793530822E+03  0.12793530822E+03  0.00000000000E+00 0.  1.
         21   -1    0    0  501  503 -0.00000000000E+00 -0.00000000000E+00 -0.40812679056E+03  0.40812679056E+03  0.00000000000E+00 0. -1.
          6    2    1    2  501    0  0.94688044540E+02 -0.10878009147E+03 -0.85051427275E+02  0.23963388076E+03  0.17144012788E+03 0.  0.
         24    2    3    3    0    0  0.10155112869E+02 -0.54189309402E+02 -0.99478184460E+02  0.13786850675E+03  0.77924376161E+02 0.  0.
         -6    2    1    2    0  502 -0.94688044540E+02  0.10878009147E+03 -0.19514005506E+03  0.29642821801E+03  0.17026776931E+03 0.  0.
        -24    2    5    5    0    0  0.15543999106E+02  0.56174153654E+02 -0.10389727035E+03  0.14389683141E+03  0.80712476449E+02 0.  0.
          5    1    3    3  501    0  0.84532931671E+02 -0.54590782065E+02  0.14426757184E+02  0.10176537400E+03  0.47000000000E+01 0. -1.
        -11    1    4    4    0    0 -0.11693775224E+02 -0.14869329329E+02  0.86173373829E+01  0.20787011263E+02  0.00000000000E+00 0.  1.
         12    1    4    4    0    0  0.21848888092E+02 -0.39319980073E+02 -0.10809552184E+03  0.11708149549E+03  0.00000000000E+00 0. -1.
         -5    1    5    5    0  502 -0.11023204365E+03  0.52605937813E+02 -0.91242784709E+02  0.15253138661E+03  0.47000000000E+01 0.  1.
         11    1    6    6    0    0 -0.29699837383E+02  0.69293741066E+01 -0.47343553780E+02  0.56316149110E+02  0.00000000000E+00 0. -1.
        -12    1    6    6    0    0  0.45243836489E+02  0.49244779547E+02 -0.56553716574E+02  0.87580682295E+02  0.00000000000E+00 0.  1.
</event>
<event>
12    1  0.1630640E-001  0.2003389E+03  0.7818608E-02  0.1149519E+00
         21   -1    0    0  503  502  0.00000000000E+00  0.00000000000E+00  0.60015338086E+02  0.60015338086E+02  0.00000000000E+00 0.  1.
         21   -1    0    0  501  503 -0.00000000000E+00 -0.00000000000E+00 -0.17126311279E+04  0.17126311279E+04  0.00000000000E+00 0.  1.
          6    2    1    2  501    0  0.40222068308E+02 -0.96101167855E+02 -0.13424948981E+03  0.24116090135E+03  0.17112102613E+03 0.  0.
         24    2    3    3    0    0  0.59335128530E+02 -0.67567995457E+02 -0.15844986405E+03  0.19888562357E+03  0.79768667789E+02 0.  0.
         -6    2    1    2    0  502 -0.40222068308E+02  0.96101167855E+02 -0.15183663000E+04  0.15314855646E+04  0.17075879029E+03 0.  0.
        -24    2    5    5    0    0 -0.58053640014E+02  0.11556868547E+03 -0.91763198222E+03  0.93015307778E+03  0.80062145362E+02 0.  0.
          5    1    3    3  501    0 -0.19113060222E+02 -0.28533172398E+02  0.24200374232E+02  0.42275277777E+02  0.47000000000E+01 0. -1.
        -13    1    4    4    0    0  0.61472056367E+01 -0.66289877705E+02 -0.96328479223E+02  0.11709531132E+03  0.00000000000E+00 0.  1.
         14    1    4    4    0    0  0.53187922893E+02 -0.12781177519E+01 -0.62121384822E+02  0.81790312256E+02  0.00000000000E+00 0. -1.
         -5    1    5    5    0  502  0.17831571706E+02 -0.19467517619E+02 -0.60073431779E+03  0.60133248687E+03  0.47000000000E+01 0.  1.
         13    1    6    6    0    0 -0.20545462867E+02  0.46939852157E+02 -0.14924070074E+03  0.15779180118E+03  0.00000000000E+00 0. -1.
        -14    1    6    6    0    0 -0.37508177147E+02  0.68628833317E+02 -0.76839128148E+03  0.77236127659E+03  0.00000000000E+00 0.  1.
</event>
<event>
12    1  0.1630640E-001  0.2026996E+03  0.7818608E-02  0.1148998E+00
         21   -1    0    0  501  502  0.00000000000E+00  0.00000000000E+00  0.12067733100E+04  0.12067733100E+04  0.00000000000E+00 0. -1.
         21   -1    0    0  502  503 -0.00000000000E+00 -0.00000000000E+00 -0.35013936225E+02  0.35013936225E+02  0.00000000000E+00 0.  1.
         -6    2    1    2    0  503  0.22703034168E+01  0.94632546317E+02  0.42171827086E+03  0.46483887936E+03  0.17108012944E+03 0.  0.
        -24    2    3    3    0    0  0.28145021872E+02  0.10707820499E+03  0.41214327293E+03  0.43420938279E+03  0.80111337749E+02 0.  0.
          6    2    1    2  501    0 -0.22703034168E+01 -0.94632546317E+02  0.75004110289E+03  0.77694836683E+03  0.17923904598E+03 0.  0.
         24    2    5    5    0    0  0.41871051597E+02 -0.20403127814E+02  0.56828949014E+03  0.57566696051E+03  0.79183535144E+02 0.  0.
          5    1    5    5  501    0 -0.44141355014E+02 -0.74229418503E+02  0.18175161275E+03  0.20128140632E+03  0.47000000000E+01 0. -1.
        -11    1    6    6    0    0  0.48803044153E+02 -0.20956683891E+02  0.18919507544E+03  0.19650876899E+03  0.00000000000E+00 0.  1.
         12    1    6    6    0    0 -0.69319925560E+01  0.55355607758E+00  0.37909441469E+03  0.37915819152E+03  0.00000000000E+00 0. -1.
         -5    1    3    3    0  503 -0.25874718455E+02 -0.12445658676E+02  0.95749979234E+01  0.30629496572E+02  0.47000000000E+01 0.  1.
         13    1    4    4    0    0 -0.18684084681E+02  0.30090230721E+02  0.20895612346E+03  0.21193673239E+03  0.00000000000E+00 0. -1.
        -14    1    4    4    0    0  0.46829106553E+02  0.76987974272E+02  0.20318714947E+03  0.22227265039E+03  0.00000000000E+00 0.  1.
</event>
<event>
12    1  0.1630640E-001  0.1940817E+03  0.7818608E-02  0.1154895E+00
         21   -1    0    0  501  502  0.00000000000E+00  0.00000000000E+00  0.94970481084E+02  0.94970481084E+02  0.00000000000E+00 0.  1.
         21   -1    0    0  502  503 -0.00000000000E+00 -0.00000000000E+00 -0.39634095439E+03  0.39634095439E+03  0.00000000000E+00 0.  1.
         -6    2    1    2    0  503  0.39188631406E+02 -0.81463513975E+02 -0.15750896290E+03  0.24972533368E+03  0.17141066462E+03 0.  0.
        -24    2    3    3    0    0 -0.19613820991E+02 -0.18942421008E+01 -0.11687429901E+03  0.14266337338E+03  0.79403691394E+02 0.  0.
          6    2    1    2  501    0 -0.39188631406E+02  0.81463513975E+02 -0.14386151040E+03  0.24158610179E+03  0.17174299829E+03 0.  0.
         24    2    5    5    0    0 -0.52474167807E+02  0.77006393131E+02 -0.30131665379E+02  0.12689983822E+03  0.80697762118E+02 0.  0.
          5    1    5    5  501    0  0.13285536401E+02  0.44571208449E+01 -0.11372984502E+03  0.11468626358E+03  0.47000000000E+01 0. -1.
        -11    1    6    6    0    0 -0.22716705138E+02  0.50277774654E+02 -0.56517472064E+02  0.78981820472E+02  0.00000000000E+00 0.  1.
         12    1    6    6    0    0 -0.29757462669E+02  0.26728618476E+02  0.26385806685E+02  0.47918017744E+02  0.00000000000E+00 0. -1.
         -5    1    3    3    0  503  0.58802452397E+02 -0.79569271875E+02 -0.40634663890E+02  0.10706196030E+03  0.47000000000E+01 0.  1.
         11    1    4    4    0    0  0.32181892335E+01  0.22957162252E+02 -0.10398593321E+03  0.10653854864E+03  0.00000000000E+00 0. -1.
        -12    1    4    4    0    0 -0.22832010225E+02 -0.24851404353E+02 -0.12888365799E+02  0.36124824736E+02  0.00000000000E+00 0.  1.
</event>
<event>
12    1  0.1630640E-001  0.1939367E+03  0.7818608E-02  0.1156041E+00
         21   -1    0    0  503  502  0.00000000000E+00  0.00000000000E+00  0.14473715881E+03  0.14473715881E+03  0.00000000000E+00 0.  1.
         21   -1    0    0  501  503 -0.00000000000E+00 -0.00000000000E+00 -0.29244088065E+03  0.29244088065E+03  0.00000000000E+00 0.  1.
          6    2    1    2  501    0  0.75379935750E+02  0.21504975864E+02 -0.15454848872E+03  0.24798527842E+03  0.17738901952E+03 0.  0.
         24    2    3    3    0    0  0.11041631400E+02  0.59233838316E+02 -0.13965541742E+03  0.17178306033E+03  0.79844968378E+02 0.  0.
         -6    2    1    2    0  502 -0.75379935750E+02 -0.21504975864E+02  0.68447668761E+01  0.18919276105E+03  0.17205362914E+03 0.  0.
        -24    2    5    5    0    0 -0.32259966908E+02  0.18066959854E+01 -0.50602000535E+02  0.11352911824E+03  0.96355221008E+02 0.  0.
          5    1    3    3  501    0  0.64338304351E+02 -0.37728862453E+02 -0.14893071293E+02  0.76202218086E+02  0.47000000000E+01 0. -1.
        -13    1    4    4    0    0  0.40810667866E+02  0.43600336439E+02 -0.11662921581E+03  0.13103004972E+03  0.00000000000E+00 0.  1.
         14    1    4    4    0    0 -0.29769036466E+02  0.15633501878E+02 -0.23026201611E+02  0.40753010609E+02  0.00000000000E+00 0. -1.
         -5    1    5    5    0  502 -0.43119968842E+02 -0.23311671849E+02  0.57446767411E+02  0.75663642810E+02  0.47000000000E+01 0.  1.
         13    1    6    6    0    0 -0.65278201678E+02 -0.23929005672E+01 -0.46078933489E+02  0.79938962333E+02  0.00000000000E+00 0. -1.
        -14    1    6    6    0    0  0.33018234770E+02  0.41995965526E+01 -0.45230670460E+01  0.33590155909E+02  0.00000000000E+00 0.  1.
</event>
<event>
12    1  0.1630640E-001  0.1767118E+03  0.7818608E-02  0.1171444E+00
         21   -1    0    0  501  502  0.00000000000E+00  0.00000000000E+00  0.35243225008E+03  0.35243225008E+03  0.00000000000E+00 0. -1.
         21   -1    0    0  502  503 -0.00000000000E+00 -0.00000000000E+00 -0.89419058665E+02  0.89419058665E+02  0.00000000000E+00 0. -1.
         -6    2    1    2    0  503  0.37150309473E+02  0.53576380224E+01  0.10204561679E+03  0.20405969834E+03  0.17267947997E+03 0.  0.
        -24    2    3    3    0    0  0.19679367809E+02 -0.17175784679E+02 -0.13658264303E+02  0.84801713110E+02  0.79514132492E+02 0.  0.
          6    2    1    2  501    0 -0.37150309473E+02 -0.53576380224E+01  0.16096757463E+03  0.23779161041E+03  0.17095449722E+03 0.  0.
         24    2    5    5    0    0 -0.41322948718E+02 -0.67605607697E+02  0.98537765961E+02  0.14940726984E+03  0.79591059035E+02 0.  0.
          5    1    5    5  501    0  0.41726392447E+01  0.62247969674E+02  0.62429808666E+02  0.88384340564E+02  0.47000000000E+01 0. -1.
        -13    1    6    6    0    0 -0.39086711887E+02 -0.23487146107E+02  0.48883925725E+01  0.45861895516E+02  0.00000000000E+00 0.  1.
         14    1    6    6    0    0 -0.22362368308E+01 -0.44118461589E+02  0.93649373389E+02  0.10354537433E+03  0.00000000000E+00 0. -1.
         -5    1    3    3    0  503  0.17470941664E+02  0.22533422701E+02  0.11570388110E+03  0.11925798523E+03  0.47000000000E+01 0.  1.
         13    1    4    4    0    0  0.25372227979E+02  0.40568563150E+01  0.27812603229E+02  0.37864877316E+02  0.00000000000E+00 0. -1.
        -14    1    4    4    0    0 -0.56928601695E+01 -0.21232640994E+02 -0.41470867532E+02  0.46936835794E+02  0.00000000000E+00 0.  1.
</event>
<event>
12    1  0.1630640E-001  0.1765266E+03  0.7818608E-02  0.1171527E+00
         21   -1    0    0  501  502  0.00000000000E+00  0.00000000000E+00  0.30165687421E+02  0.30165687421E+02  0.00000000000E+00 0.  1.
         21   -1    0    0  502  503 -0.00000000000E+00 -0.00000000000E+00 -0.11711432847E+04  0.11711432847E+04  0.00000000000E+00 0.  1.
         -6    2    1    2    0  503 -0.33828242048E+01  0.34071463028E+02 -0.78410555407E+03  0.80373077492E+03  0.17317427792E+03 0.  0.
        -24    2    3    3    0    0  0.58710986919E+02  0.54492604613E+02 -0.53420640322E+03  0.54538151520E+03  0.75153788536E+02 0.  0.
          6    2    1    2  501    0  0.33828242048E+01 -0.34071463028E+02 -0.35687204318E+03  0.39757819718E+03  0.17186756405E+03 0.  0.
         24    2    5    5    0    0 -0.55571544101E+02 -0.68689512685E+01 -0.15811119930E+03  0.18842859223E+03  0.85853386778E+02 0.  0.
          5    1    5    5  501    0  0.58954368306E+02 -0.27202511760E+02 -0.19876084388E+03  0.20914960494E+03  0.47000000000E+01 0. -1.
        -13    1    6    6    0    0  0.33319644817E+01  0.17244016858E+02  0.45115630432E+00  0.17568769073E+02  0.00000000000E+00 0.  1.
         14    1    6    6    0    0 -0.58903508583E+02 -0.24112968127E+02 -0.15856235561E+03  0.17085982316E+03  0.00000000000E+00 0. -1.
         -5    1    3    3    0  503 -0.62093811124E+02 -0.20421141585E+02 -0.24989915085E+03  0.25834925972E+03  0.47000000000E+01 0.  1.
         11    1    4    4    0    0  0.25415580195E+02 -0.91366966054E+01 -0.60396489160E+02  0.66160160552E+02  0.00000000000E+00 0. -1.
        -12    1    4    4    0    0  0.33295406724E+02  0.63629301218E+02 -0.47380991406E+03  0.47922135464E+03  0.00000000000E+00 0.  1.
</event>
<event>
12    1  0.1630640E-001  0.2218841E+03  0.7818608E-02  0.1132999E+00
         21   -1    0    0  503  502  0.00000000000E+00  0.00000000000E+00  0.53122501512E+03  0.53122501512E+03  0.00000000000E+00 0. -1.
         21   -1    0    0  501  503 -0.00000000000E+00 -0.00000000000E+00 -0.11195891872E+03  0.11195891872E+03  0.00000000000E+00 0. -1.
          6    2    1    2  501    0  0.33020094591E+02  0.13239974899E+03  0.34594147647E+03  0.40949810202E+03  0.17144436483E+03 0.  0.
         24    2    3    3    0    0 -0.78624794666E+01  0.14241425419E+03  0.32186592018E+03  0.36078057348E+03  0.78875301882E+02 0.  0.
         -6    2    1    2    0  502 -0.33020094591E+02 -0.13239974899E+03  0.73324619930E+02  0.23368583183E+03  0.17496441904E+03 0.  0.
        -24    2    5    5    0    0 -0.55373546110E+02 -0.17881439633E+02  0.59299721486E+02  0.11607244931E+03  0.81057886892E+02 0.  0.
          5    1    3    3  501    0  0.40882574058E+02 -0.10014505202E+02  0.24075556291E+02  0.48717528537E+02  0.47000000000E+01 0. -1.
        -11    1    4    4    0    0 -0.38580935711E+02  0.50441043191E+02  0.15930161688E+03  0.17149283536E+03  0.00000000000E+00 0.  1.
         12    1    4    4    0    0  0.30718456245E+02  0.91973211000E+02  0.16256430329E+03  0.18928773812E+03  0.00000000000E+00 0. -1.
         -5    1    5    5    0  502  0.22353451519E+02 -0.11451830936E+03  0.14024898444E+02  0.11761338252E+03  0.47000000000E+01 0.  1.
         11    1    6    6    0    0 -0.58148064402E+02 -0.30459803132E+02  0.11594725834E+02  0.66659092911E+02  0.00000000000E+00 0. -1.
        -12    1    6    6    0    0  0.27745182924E+01  0.12578363499E+02  0.47704995652E+02  0.49413356395E+02  0.00000000000E+00 0.  1.
</event>
<event>
12    1  0.1630640E-001  0.2300500E+03  0.7818608E-02  0.1127744E+00
         21   -1    0    0  501  502  0.00000000000E+00  0.00000000000E+00  0.42444007905E+03  0.42444007905E+03  0.00000000000E+00 0.  1.
         21   -1    0    0  502  503 -0.00000000000E+00 -0.00000000000E+00 -0.37140699966E+03  0.37140699966E+03  0.00000000000E+00 0.  1.
         -6    2    1    2    0  503  0.14325699123E+03 -0.11028066000E+02 -0.29992197059E+03  0.37798967867E+03  0.17966308737E+03 0.  0.
        -24    2    3    3    0    0  0.94770720240E+02  0.56369345830E+02 -0.23839061333E+03  0.27454149105E+03  0.79899644673E+02 0.  0.
          6    2    1    2  501    0 -0.14325699123E+03  0.11028066000E+02  0.35295504998E+03  0.41785740003E+03  0.17141573930E+03 0.  0.
         24    2    5    5    0    0 -0.42634114980E+02 -0.45857411747E+02  0.11338072489E+03  0.15181441845E+03  0.79195068676E+02 0.  0.
          5    1    5    5  501    0 -0.10062287625E+03  0.56885477747E+02  0.23957432509E+03  0.26604298158E+03  0.47000000000E+01 0. -1.
        -11    1    6    6    0    0 -0.29431748251E+02  0.10341193426E+01  0.95474025384E+02  0.99912895719E+02  0.00000000000E+00 0.  1.
         12    1    6    6    0    0 -0.13202366729E+02 -0.46891531090E+02  0.17906699503E+02  0.51901522736E+02  0.00000000000E+00 0. -1.
         -5    1    3    3    0  503  0.48486270994E+02 -0.67397411830E+02 -0.61531357258E+02  0.10344818762E+03  0.47000000000E+01 0.  1.
         11    1    4    4    0    0  0.18830716158E+02 -0.12254150457E+01 -0.11893339590E+01  0.18907988479E+02  0.00000000000E+00 0. -1.
        -12    1    4    4    0    0  0.75940004082E+02  0.57594760876E+02 -0.23720127937E+03  0.25563350257E+03  0.00000000000E+00 0.  1.
</event>
<event>
12    1  0.1630640E-001  0.2760201E+03  0.7818608E-02  0.1097912E+00
         21   -1    0    0  503  502  0.00000000000E+00  0.00000000000E+00  0.20188937887E+03  0.20188937887E+03  0.00000000000E+00 0.  1.
         21   -1    0    0  501  503 -0.00000000000E+00 -0.00000000000E+00 -0.48318345041E+03  0.48318345041E+03  0.00000000000E+00 0.  1.
          6    2    1    2  501    0 -0.10930910530E+03  0.18633519451E+03  0.19822342074E+02  0.27673093079E+03  0.17180744336E+03 0.  0.
         24    2    3    3    0    0 -0.14237934649E+03  0.17656818746E+03  0.10225237861E+02  0.24063065810E+03  0.79689114669E+02 0.  0.
         -6    2    1    2    0  502  0.10930910530E+03 -0.18633519451E+03 -0.30111641361E+03  0.40834189850E+03  0.17147223189E+03 0.  0.
        -24    2    5    5    0    0  0.32952100982E+02 -0.88320071629E+02 -0.49761829085E+02  0.12791619785E+03  0.70710947008E+02 0.  0.
          5    1    3    3  501    0  0.33070241188E+02  0.97670070459E+01  0.95971042129E+01  0.36100272688E+02  0.47000000000E+01 0. -1.
        -11    1    4    4    0    0 -0.67194522772E+02  0.10503540694E+03  0.42848430438E+02  0.13184661009E+03  0.00000000000E+00 0.  1.
         12    1    4    4    0    0 -0.75184823718E+02  0.71532780522E+02 -0.32623192577E+02  0.10878404801E+03  0.00000000000E+00 0. -1.
         -5    1    5    5    0  502  0.76357004321E+02 -0.98015122881E+02 -0.25135458453E+03  0.28042570065E+03  0.47000000000E+01 0.  1.
         11    1    6    6    0    0  0.42433386259E+02 -0.91897253944E+02 -0.29778764966E+02  0.10551053215E+03  0.00000000000E+00 0. -1.
        -12    1    6    6    0    0 -0.94812852771E+01  0.35771823154E+01 -0.19983064119E+02  0.22405665699E+02  0.00000000000E+00 0.  1.
</event>
<event>
12    1  0.1630640E-001  0.1868084E+03  0.7818608E-02  0.1161461E+00
         21   -1    0    0  501  502  0.00000000000E+00  0.00000000000E+00  0.53609442608E+03  0.53609442608E+03  0.00000000000E+00 0. -1.
         21   -1    0    0  502  503 -0.00000000000E+00 -0.00000000000E+00 -0.19878470587E+03  0.19878470587E+03  0.00000000000E+00 0. -1.
         -6    2    1    2    0  503  0.33855031035E+02  0.65364728115E+02 -0.13276948433E+03  0.22918354216E+03  0.17169347460E+03 0.  0.
        -24    2    3    3    0    0 -0.21806456152E+01  0.22501492287E+01 -0.21779417118E+01  0.79656751709E+02  0.79565295676E+02 0.  0.
          6    2    1    2  501    0 -0.33855031035E+02 -0.65364728115E+02  0.47007920454E+03  0.50569558979E+03  0.17127422510E+03 0.  0.
         24    2    5    5    0    0  0.30951212532E+02 -0.45778769000E+02  0.15347999812E+03  0.18190459778E+03  0.80495339138E+02 0.  0.
          5    1    5    5  501    0 -0.64806243567E+02 -0.19585959114E+02  0.31659920642E+03  0.32379099201E+03  0.47000000000E+01 0. -1.
        -13    1    6    6    0    0  0.20375262747E+02 -0.26755290922E+02  0.15637215414E+03  0.15994763992E+03  0.00000000000E+00 0.  1.
         14    1    6    6    0    0  0.10575949785E+02 -0.19023478079E+02 -0.28921560251E+01  0.21956957861E+02  0.00000000000E+00 0. -1.
         -5    1    3    3    0  503  0.36035676650E+02  0.63114578886E+02 -0.13059154262E+03  0.14952679045E+03  0.47000000000E+01 0.  1.
         13    1    4    4    0    0  0.22407241243E+02 -0.29502553215E+02 -0.10785248781E+02  0.38585057958E+02  0.00000000000E+00 0. -1.
        -14    1    4    4    0    0 -0.24587886859E+02  0.31752702444E+02  0.86073070688E+01  0.41071693752E+02  0.00000000000E+00 0.  1.
</event>
<event>
12    1  0.1630640E-001  0.2354346E+03  0.7818608E-02  0.1123177E+00
         21   -1    0    0  501  502  0.00000000000E+00  0.00000000000E+00  0.17564128338E+03  0.17564128338E+03  0.00000000000E+00 0.  1.
         21   -1    0    0  502  503 -0.00000000000E+00 -0.00000000000E+00 -0.78741806871E+03  0.78741806871E+03  0.00000000000E+00 0. -1.
         -6    2    1    2    0  503 -0.18474979963E+02 -0.15683241910E+03 -0.68003538758E+03  0.71963711332E+03  0.17461876743E+03 0.  0.
        -24    2    3    3    0    0 -0.39855523298E+02 -0.28920616456E+02 -0.13749831377E+03  0.16179562746E+03  0.69621648799E+02 0.  0.
          6    2    1    2  501    0  0.18474979963E+02  0.15683241910E+03  0.68258602248E+02  0.24342223876E+03  0.17221328920E+03 0.  0.
         24    2    5    5    0    0 -0.47718185782E+02  0.94371163535E+02  0.55868453560E+01  0.13282032761E+03  0.80169101433E+02 0.  0.
          5    1    5    5  501    0  0.66193165746E+02  0.62461255568E+02  0.62671756892E+02  0.11060191115E+03  0.47000000000E+01 0. -1.
        -13    1    6    6    0    0  0.84148553854E+00  0.80111471278E+02  0.14539449739E+02  0.81424514287E+02  0.00000000000E+00 0.  1.
         14    1    6    6    0    0 -0.48559671321E+02  0.14259692258E+02 -0.89526043832E+01  0.51395813325E+02  0.00000000000E+00 0. -1.
         -5    1    3    3    0  503  0.21380543335E+02 -0.12791180265E+03 -0.54253707381E+03  0.55784148586E+03  0.47000000000E+01 0.  1.
         11    1    4    4    0    0 -0.34516385701E+02 -0.31482076968E+02 -0.14494134335E+03  0.15228425744E+03  0.00000000000E+00 0. -1.
        -12    1    4    4    0    0 -0.53391375968E+01  0.25614605116E+01  0.74430295820E+01  0.95113700164E+01  0.00000000000E+00 0.  1.
</event>
<event>
12    1  0.1630640E-001  0.1847518E+03  0.7818608E-02  0.1163597E+00
         21   -1    0    0  503  502  0.00000000000E+00  0.00000000000E+00  0.56381648799E+03  0.56381648799E+03  0.00000000000E+00 0. -1.
         21   -1    0    0  501  503 -0.00000000000E+00 -0.00000000000E+00 -0.69083027364E+02  0.69083027364E+02  0.00000000000E+00 0.  1.
          6    2    1    2  501    0 -0.18343393479E+02 -0.61057783027E+02  0.13247103089E+03  0.22624572678E+03  0.17197099148E+03 0.  0.
         24    2    3    3    0    0 -0.22749843886E+02 -0.16237257197E+02  0.15369600566E+03  0.17623686861E+03  0.81582889035E+02 0.  0.
         -6    2    1    2    0  502  0.18343393479E+02  0.61057783027E+02  0.36226242974E+03  0.40665378857E+03  0.17340329526E+03 0.  0.
        -24    2    5    5    0    0 -0.45620439937E+02  0.39443904466E+00  0.22949713281E+03  0.24721688143E+03  0.79786417252E+02 0.  0.
          5    1    3    3  501    0  0.44064504072E+01 -0.44820525829E+02 -0.21224974779E+02  0.50008858167E+02  0.47000000000E+01 0. -1.
        -11    1    4    4    0    0 -0.31192310881E+02 -0.40131017690E+02  0.57433479433E+02  0.76694611275E+02  0.00000000000E+00 0.  1.
         12    1    4    4    0    0  0.84424669947E+01  0.23893760492E+02  0.96262526232E+02  0.99542257338E+02  0.00000000000E+00 0. -1.
         -5    1    5    5    0  502  0.63963833416E+02  0.60663343982E+02  0.13276529693E+03  0.15943690714E+03  0.47000000000E+01 0.  1.
         11    1    6    6    0    0 -0.33368408618E+02 -0.34849118375E+02  0.82638719164E+02  0.95692578867E+02  0.00000000000E+00 0. -1.
        -12    1    6    6    0    0 -0.12252031319E+02  0.35243557420E+02  0.14685841364E+03  0.15152430257E+03  0.00000000000E+00 0.  1.
</event>
<event>
12    1  0.1630640E-001  0.2236827E+03  0.7818608E-02  0.1132010E+00
         21   -1    0    0  503  502  0.00000000000E+00  0.00000000000E+00  0.24998820582E+03  0.24998820582E+03  0.00000000000E+00 0.  1.
         21   -1    0    0  501  503 -0.00000000000E+00 -0.00000000000E+00 -0.20425453907E+03  0.20425453907E+03  0.00000000000E+00 0. -1.
          6    2    1    2  501    0 -0.22140212549E+01  0.13456798890E+03 -0.22802377979E+02  0.22029589513E+03  0.17290716423E+03 0.  0.
         24    2    3    3    0    0  0.18472765472E+02  0.16205728368E+03 -0.58150403392E+01  0.18164018258E+03  0.79721609197E+02 0.  0.
         -6    2    1    2    0  502  0.22140212549E+01 -0.13456798890E+03  0.68536044735E+02  0.23394684976E+03  0.17866307273E+03 0.  0.
        -24    2    5    5    0    0  0.67697441759E+02 -0.81921368742E+02  0.12909614895E+02  0.13307002055E+03  0.79037446410E+02 0.  0.
          5    1    3    3  501    0 -0.20686786727E+02 -0.27489294782E+02 -0.16987337640E+02  0.38655712550E+02  0.47000000000E+01 0. -1.
        -11    1    4    4    0    0 -0.29906670433E+02  0.44291044057E+02 -0.94515973023E+01  0.54271891543E+02  0.00000000000E+00 0.  1.
         12    1    4    4    0    0  0.48379435905E+02  0.11776623963E+03  0.36365569631E+01  0.12736829103E+03  0.00000000000E+00 0. -1.
         -5    1    5    5    0  502 -0.65483420504E+02 -0.52646620160E+02  0.55626429840E+02  0.10087682921E+03  0.47000000000E+01 0.  1.
         11    1    6    6    0    0 -0.95945579581E+01 -0.45045374020E+02 -0.22035553313E+01  0.46108534125E+02  0.00000000000E+00 0. -1.
        -12    1    6    6    0    0  0.77291999717E+02 -0.36875994722E+02  0.15113170226E+02  0.86961486425E+02  0.00000000000E+00 0.  1.
</event>
<event>
12    1  0.1630640E-001  0.1775014E+03  0.7818608E-02  0.1170554E+00
         21   -1    0    0  503  502  0.00000000000E+00  0.00000000000E+00  0.15725813427E+03  0.15725813427E+03  0.00000000000E+00 0.  1.
         21   -1    0    0  501  503 -0.00000000000E+00 -0.00000000000E+00 -0.27913922312E+03  0.27913922312E+03  0.00000000000E+00 0.  1.
          6    2    1    2  501    0 -0.16099503707E+02 -0.38931661669E+02 -0.17805345672E+03  0.25141554795E+03  0.17242933625E+03 0.  0.
         24    2    3    3    0    0  0.37302093577E+02  0.22470960924E+02 -0.12452531201E+03  0.15389957526E+03  0.79259924698E+02 0.  0.
         -6    2    1    2    0  502  0.16099503707E+02  0.38931661669E+02  0.56172367866E+02  0.18498180944E+03  0.17113756633E+03 0.  0.
        -24    2    5    5    0    0  0.18111999813E+02  0.20727665325E+01 -0.28250241403E+02  0.92721876384E+02  0.86411395790E+02 0.  0.
          5    1    3    3  501    0 -0.53401597284E+02 -0.61402622593E+02 -0.53528144704E+02  0.97515972688E+02  0.47000000000E+01 0. -1.
        -13    1    4    4    0    0  0.25659498013E+02  0.48978341428E+02 -0.52388427524E+02  0.76169778165E+02  0.00000000000E+00 0.  1.
         14    1    4    4    0    0  0.11642595564E+02 -0.26507380503E+02 -0.72136884487E+02  0.77729797093E+02  0.00000000000E+00 0. -1.
         -5    1    5    5    0  502 -0.20124961061E+01  0.36858895136E+02  0.84422609269E+02  0.92259933053E+02  0.47000000000E+01 0.  1.
         13    1    6    6    0    0  0.33999440312E+02  0.31949392885E+02  0.28775178749E+01  0.46744045144E+02  0.00000000000E+00 0. -1.
        -14    1    6    6    0    0 -0.15887440499E+02 -0.29876626353E+02 -0.31127759278E+02  0.45977831240E+02  0.00000000000E+00 0.  1.
</event>
<event>
12    1  0.1630640E-001  0.2321641E+03  0.7818608E-02  0.1125404E+00
         21   -1    0    0  501  502  0.00000000000E+00  0.00000000000E+00  0.42665675549E+03  0.42665675549E+03  0.00000000000E+00 0.  1.
         21   -1    0    0  502  503 -0.00000000000E+00 -0.00000000000E+00 -0.15375648075E+03  0.15375648075E+03  0.00000000000E+00 0.  1.
         -6    2    1    2    0  503 -0.65861899338E+02 -0.13901241394E+03  0.12349072970E+02  0.23249225355E+03  0.17389050389E+03 0.  0.
        -24    2    3    3    0    0 -0.54838299224E+02 -0.20286296644E+02 -0.34431969344E+02  0.10432062405E+03  0.79236728835E+02 0.  0.
          6    2    1    2  501    0  0.65861899338E+02  0.13901241394E+03  0.26055120178E+03  0.34792098269E+03  0.17175517587E+03 0.  0.
         24    2    5    5    0    0  0.13489640134E+01  0.12645363881E+03  0.23366068452E+03  0.27675335258E+03  0.77477481922E+02 0.  0.
          5    1    5    5  501    0  0.64512935324E+02  0.12558775130E+02  0.26890517260E+02  0.71167630110E+02  0.47000000000E+01 0. -1.
        -13    1    6    6    0    0  0.25319938839E+02  0.49687793057E+02  0.44972115634E+02  0.71641239983E+02  0.00000000000E+00 0.  1.
         14    1    6    6    0    0 -0.23970974826E+02  0.76765845753E+02  0.18868856888E+03  0.20511211260E+03  0.00000000000E+00 0. -1.
         -5    1    3    3    0  503 -0.11023600114E+02 -0.11872611730E+03  0.46781042315E+02  0.12817162950E+03  0.47000000000E+01 0.  1.
         13    1    4    4    0    0  0.12139649475E+02 -0.10393747978E+01  0.14670856730E+02  0.19070538182E+02  0.00000000000E+00 0. -1.
        -14    1    4    4    0    0 -0.66977948699E+02 -0.19246921846E+02 -0.49102826074E+02  0.85250085871E+02  0.00000000000E+00 0.  1.
</event>
<event>
12    1  0.1630640E-001  0.1768119E+03  0.7818608E-02  0.1171158E+00
         21   -1    0    0  501  502  0.00000000000E+00  0.00000000000E+00  0.28082850065E+03  0.28082850065E+03  0.00000000000E+00 0.  1.
         21   -1    0    0  502  503 -0.00000000000E+00 -0.00000000000E+00 -0.11554051512E+03  0.11554051512E+03  0.00000000000E+00 0.  1.
         -6    2    1    2    0  503  0.25670429901E+02  0.25263819469E+02  0.42424352028E+02  0.18183033741E+03  0.17310463429E+03 0.  0.
        -24    2    3    3    0    0  0.15088684080E+02  0.76682465956E+02  0.61545340813E+02  0.12576294258E+03  0.76945563737E+02 0.  0.
          6    2    1    2  501    0 -0.25670429901E+02 -0.25263819469E+02  0.12286363350E+03  0.21453867835E+03  0.17214569564E+03 0.  0.
         24    2    5    5    0    0 -0.51939244972E+02  0.39833937643E+02  0.80395783554E+02  0.13235974610E+03  0.82287256725E+02 0.  0.
          5    1    5    5  501    0  0.26268815071E+02 -0.65097757111E+02  0.42467849945E+02  0.82178932246E+02  0.47000000000E+01 0. -1.
        -11    1    6    6    0    0 -0.43936309645E+02  0.15104531356E+02  0.92632884715E+02  0.10363106437E+03  0.00000000000E+00 0.  1.
         12    1    6    6    0    0 -0.80029353277E+01  0.24729406286E+02 -0.12237101161E+02  0.28728681731E+02  0.00000000000E+00 0. -1.
         -5    1    3    3    0  503  0.10581745821E+02 -0.51418646487E+02 -0.19120988785E+02  0.56067394832E+02  0.47000000000E+01 0.  1.
         13    1    4    4    0    0  0.36194269723E+02  0.22193499694E+02  0.51043807551E+02  0.66393123731E+02  0.00000000000E+00 0. -1.
        -14    1    4    4    0    0 -0.21105585642E+02  0.54488966262E+02  0.10501533262E+02  0.59369818851E+02  0.00000000000E+00 0.  1.
</event>
<event>
12    1  0.1630640E-001  0.2319548E+03  0.7818608E-02  0.1125581E+00
         21   -1    0    0  501  502  0.00000000000E+00  0.00000000000E+00  0.11832455655E+03  0.11832455655E+03  0.00000000000E+00 0.  1.
         21   -1    0    0  502  503 -0.00000000000E+00 -0.00000000000E+00 -0.46045481476E+03  0.46045481476E+03  0.00000000000E+00 0.  1.
         -6    2    1    2    0  503 -0.14579998150E+03 -0.52764224744E+02 -0.21135588284E+03  0.31249946680E+03  0.17012615766E+03 0.  0.
        -24    2    3    3    0    0 -0.99923985908E+02 -0.70199847008E+02 -0.69519808172E+02  0.16233898607E+03  0.81290351155E+02 0.  0.
          6    2    1    2  501    0  0.14579998150E+03  0.52764224744E+02 -0.13077437537E+03  0.26627990451E+03  0.17251478857E+03 0.  0.
         24    2    5    5    0    0  0.65416569805E+02  0.22643060485E+02 -0.14072395220E+03  0.17973591863E+03  0.87805090576E+02 0.  0.
          5    1    5    5  501    0  0.80383411692E+02  0.30121164259E+02  0.99495768323E+01  0.86543985872E+02  0.47000000000E+01 0. -1.
        -13    1    6    6    0    0  0.57333691695E+02 -0.25626231624E+02 -0.82228617760E+02  0.10346691031E+03  0.00000000000E+00 0.  1.
         14    1    6    6    0    0  0.80828781102E+01  0.48269292109E+02 -0.58495334442E+02  0.76269008324E+02  0.00000000000E+00 0. -1.
         -5    1    3    3    0  503 -0.45875995590E+02  0.17435622264E+02 -0.14183607467E+03  0.15016048073E+03  0.47000000000E+01 0.  1.
         11    1    4    4    0    0  0.62064002056E+01 -0.24057559555E+02  0.40979031919E+01  0.25180913125E+02  0.00000000000E+00 0. -1.
        -12    1    4    4    0    0 -0.10613038611E+03 -0.46142287453E+02 -0.73617711363E+02  0.13715807295E+03  0.00000000000E+00 0.  1.
</event>
<event>
12    1  0.1630640E-001  0.1841772E+03  0.7818608E-02  0.1164667E+00
         21   -1    0    0  501  502  0.00000000000E+00  0.00000000000E+00  0.15198259636E+02  0.15198259636E+02  0.00000000000E+00 0. -1.
         21   -1    0    0  502  503 -0.00000000000E+00 -0.00000000000E+00 -0.24899634209E+04  0.24899634209E+04  0.00000000000E+00 0.  1.
         -6    2    1    2    0  503 -0.52934214927E+02  0.17745287622E+02 -0.16835391232E+04  0.16935835417E+04  0.17551155752E+03 0.  0.
        -24    2    3    3    0    0 -0.13323961176E+02  0.72569371781E+02 -0.12383704909E+04  0.12432815834E+04  0.82120528734E+02 0.  0.
          6    2    1    2  501    0  0.52934214927E+02 -0.17745287622E+02 -0.79122603803E+03  0.81157813886E+03  0.17176584608E+03 0.  0.
         24    2    5    5    0    0  0.36618917097E+02 -0.34869661834E+02 -0.77856298065E+03  0.78434073521E+03  0.80456420928E+02 0.  0.
          5    1    5    5  501    0  0.16315297829E+02  0.17124374211E+02 -0.12663057378E+02  0.27237403649E+02  0.47000000000E+01 0. -1.
        -13    1    6    6    0    0 -0.25313286238E+02 -0.57989557737E+01 -0.17585452482E+03  0.17776165010E+03  0.00000000000E+00 0.  1.
         14    1    6    6    0    0  0.61932203335E+02 -0.29070706060E+02 -0.60270845583E+03  0.60657908511E+03  0.00000000000E+00 0. -1.
         -5    1    3    3    0  503 -0.39610253751E+02 -0.54824084159E+02 -0.44516863236E+03  0.45030195829E+03  0.47000000000E+01 0.  1.
         11    1    4    4    0    0  0.33084402481E+02  0.37510636053E+02 -0.45074130850E+03  0.45350783090E+03  0.00000000000E+00 0. -1.
        -12    1    4    4    0    0 -0.46408363657E+02  0.35058735728E+02 -0.78762918237E+03  0.78977375247E+03  0.00000000000E+00 0.  1.
</event>
<event>
12    1  0.1630640E-001  0.2116567E+03  0.7818608E-02  0.1140719E+00
         21   -1    0    0  503  502  0.00000000000E+00  0.00000000000E+00  0.15070212454E+03  0.15070212454E+03  0.00000000000E+00 0. -1.
         21   -1    0    0  501  503 -0.00000000000E+00 -0.00000000000E+00 -0.59028074094E+03  0.59028074094E+03  0.00000000000E+00 0. -1.
          6    2    1    2  501    0  0.91315146836E+02 -0.77038691891E+02 -0.48166059052E+03  0.52518332774E+03  0.17189295271E+03 0.  0.
         24    2    3    3    0    0  0.30154886570E+02 -0.41577380226E+02 -0.10388366388E+03  0.14081946581E+03  0.80001941222E+02 0.  0.
         -6    2    1    2    0  502 -0.91315146836E+02  0.77038691891E+02  0.42081974113E+02  0.21579953773E+03  0.17471442943E+03 0.  0.
        -24    2    5    5    0    0 -0.11360034763E+03  0.19499639490E+02  0.58648168541E+02  0.15173783682E+03  0.79369317301E+02 0.  0.
          5    1    3    3  501    0  0.61160260266E+02 -0.35461311665E+02 -0.37777692664E+03  0.38436386193E+03  0.47000000000E+01 0. -1.
        -13    1    4    4    0    0  0.30513877175E+02 -0.42431514684E+02 -0.11675283641E+03  0.12791698460E+03  0.00000000000E+00 0.  1.
         14    1    4    4    0    0 -0.35899060465E+00  0.85413445849E+00  0.12869172528E+02  0.12902481214E+02  0.00000000000E+00 0. -1.
         -5    1    5    5    0  502  0.22285200795E+02  0.57539052401E+02 -0.16566194428E+02  0.64061700910E+02  0.47000000000E+01 0.  1.
         13    1    6    6    0    0 -0.20850962342E+02 -0.14348710201E+02  0.45590454767E+02  0.52145351479E+02  0.00000000000E+00 0. -1.
        -14    1    6    6    0    0 -0.92749385289E+02  0.33848349691E+02  0.13057713774E+02  0.99592485346E+02  0.00000000000E+00 0.  1.
</event>
<event>
12    1  0.1630640E-001  0.2340752E+03  0.7818608E-02  0.1124244E+00
         21   -1    0    0  501  502  0.00000000000E+00  0.00000000000E+00  0.42909021376E+03  0.42909021376E+03  0.00000000000E+00 0.  1.
         21   -1    0    0  502  503 -0.00000000000E+00 -0.00000000000E+00 -0.20407499522E+03  0.20407499522E+03  0.00000000000E+00 0. -1.
         -6    2    1    2    0  503  0.15619776114E+03  0.99693884903E+01 -0.82539046669E+02  0.24820128630E+03  0.17405187446E+03 0.  0.
        -24    2    3    3    0    0  0.77124344017E+02  0.50458897735E+02 -0.99482239750E+02  0.15764098900E+03  0.80372262546E+02 0.  0.
          6    2    1    2  501    0 -0.15619776114E+03 -0.99693884903E+01  0.30755426521E+03  0.38496392269E+03  0.17061789600E+03 0.  0.
         24    2    5    5    0    0 -0.25439208946E+02  0.29761368511E+02  0.82930127477E+02  0.12199163275E+03  0.80446628338E+02 0.  0.
          5    1    5    5  501    0 -0.13075855219E+03 -0.39730757001E+02  0.22462413773E+03  0.26297228994E+03  0.47000000000E+01 0. -1.
        -11    1    6    6    0    0 -0.42698493227E+02  0.47448390608E+02  0.51546132252E+02  0.82045809432E+02  0.00000000000E+00 0.  1.
         12    1    6    6    0    0  0.17259284280E+02 -0.17687022098E+02  0.31383995224E+02  0.39945823321E+02  0.00000000000E+00 0. -1.
         -5    1    3    3    0  503  0.79073417123E+02 -0.40489509245E+02  0.16943193081E+02  0.90560297295E+02  0.47000000000E+01 0.  1.
         11    1    4    4    0    0  0.14207410785E+02  0.12887265679E+02 -0.79362647120E+02  0.81647791738E+02  0.00000000000E+00 0. -1.
        -12    1    4    4    0    0  0.62916933231E+02  0.37571632056E+02 -0.20119592631E+02  0.75993197263E+02  0.00000000000E+00 0.  1.
</event>
<event>
12    1  0.1630640E-001  0.1794562E+03  0.7818608E-02  0.1169345E+00
         21   -1    0    0  503  502  0.00000000000E+00  0.00000000000E+00  0.48560189355E+03  0.48560189355E+03  0.00000000000E+00 0. -1.
         21   -1    0    0  501  503 -0.00000000000E+00 -0.00000000000E+00 -0.14070011051E+03  0.14070011051E+03  0.00000000000E+00 0. -1.
          6    2    1    2  501    0 -0.26682965411E+01  0.47631089462E+02 -0.58461797553E+02  0.18481960524E+03  0.16871474215E+03 0.  0.
         24    2    3    3    0    0  0.51314854505E+02  0.66082185431E+02 -0.27241470051E+02  0.11961667288E+03  0.81030742413E+02 0.  0.
         -6    2    1    2    0  502  0.26682965411E+01 -0.47631089462E+02  0.40336358060E+03  0.44148239882E+03  0.17299910354E+03 0.  0.
        -24    2    5    5    0    0 -0.69465636082E+01  0.82308200620E+00  0.37774046293E+03  0.38563540761E+03  0.77316738524E+02 0.  0.
          5    1    3    3  501    0 -0.53983151047E+02 -0.18451095969E+02 -0.31220327502E+02  0.65202932363E+02  0.47000000000E+01 0. -1.
        -13    1    4    4    0    0 -0.18037475704E+02  0.83303149480E+01  0.96870227122E+01  0.22103915624E+02  0.00000000000E+00 0.  1.
         14    1    4    4    0    0  0.69352330210E+02  0.57751870483E+02 -0.36928492763E+02  0.97512757255E+02  0.00000000000E+00 0. -1.
         -5    1    5    5    0  502  0.96148601493E+01 -0.48454171468E+02  0.25623117666E+02  0.55846991210E+02  0.47000000000E+01 0.  1.
         13    1    6    6    0    0  0.18214933385E+02 -0.31564606114E+02  0.16481120900E+03  0.16879230661E+03  0.00000000000E+00 0. -1.
        -14    1    6    6    0    0 -0.25161496993E+02  0.32387688120E+02  0.21292925393E+03  0.21684310100E+03  0.00000000000E+00 0.  1.
</event>
<event>
12    1  0.1630640E-001  0.2065770E+03  0.7818608E-02  0.1144663E+00
         21   -1    0    0  501  502  0.00000000000E+00  0.00000000000E+00  0.85485325977E+03  0.85485325977E+03  0.00000000000E+00 0.  1.
         21   -1    0    0  502  503 -0.00000000000E+00 -0.00000000000E+00 -0.51952991388E+02  0.51952991388E+02  0.00000000000E+00 0. -1.
         -6    2    1    2    0  503  0.49309551902E+02  0.10180585031E+03  0.30447380247E+03  0.36793798362E+03  0.17285311781E+03 0.  0.
        -24    2    3    3    0    0  0.93848895970E+02  0.50821948939E+02  0.15525515043E+03  0.20401297795E+03  0.78272905069E+02 0.  0.
          6    2    1    2  501    0 -0.49309551902E+02 -0.10180585031E+03  0.49842646592E+03  0.53886826754E+03  0.17074602415E+03 0.  0.
         24    2    5    5    0    0 -0.79200790433E+02 -0.19948729398E+02  0.21447824059E+03  0.24181143955E+03  0.76165212546E+02 0.  0.
          5    1    5    5  501    0  0.29891238531E+02 -0.81857120915E+02  0.28394822533E+03  0.29705682799E+03  0.47000000000E+01 0. -1.
        -13    1    6    6    0    0 -0.10527306529E+02  0.19795549513E+02  0.10026980521E+03  0.10274590892E+03  0.00000000000E+00 0.  1.
         14    1    6    6    0    0 -0.68673483904E+02 -0.39744278911E+02  0.11420843538E+03  0.13906553063E+03  0.00000000000E+00 0. -1.
         -5    1    3    3    0  503 -0.44539344068E+02  0.50983901374E+02  0.14921865203E+03  0.16392500567E+03  0.47000000000E+01 0.  1.
         11    1    4    4    0    0  0.14662668494E+02 -0.11644227236E+02 -0.17738967975E+00  0.18724672023E+02  0.00000000000E+00 0. -1.
        -12    1    4    4    0    0  0.79186227476E+02  0.62466176175E+02  0.15543254011E+03  0.18528830593E+03  0.00000000000E+00 0.  1.
</event>
<event>
12    1  0.1630640E-001  0.1845156E+03  0.7818608E-02  0.1163749E+00
         21   -1    0    0  503  502  0.00000000000E+00  0.00000000000E+00  0.44237183411E+03  0.44237183411E+03  0.00000000000E+00 0.  1.
         21   -1    0    0  501  503 -0.00000000000E+00 -0.00000000000E+00 -0.25725462512E+03  0.25725462512E+03  0.00000000000E+00 0.  1.
          6    2    1    2  501    0  0.67543520716E+02 -0.11089943174E+02 -0.20056560975E+03  0.27252991427E+03  0.17135015707E+03 0.  0.
         24    2    3    3    0    0 -0.52578164401E+01 -0.92097487429E+01 -0.17889110205E+03  0.19640209999E+03  0.80369735500E+02 0.  0.
         -6    2    1    2    0  502 -0.67543520716E+02  0.11089943174E+02  0.38568281874E+03  0.42709654496E+03  0.17022076259E+03 0.  0.
        -24    2    5    5    0    0 -0.90142350457E+02 -0.48907217129E+01  0.16501957453E+03  0.20465453881E+03  0.80637818502E+02 0.  0.
          5    1    3    3  501    0  0.72801337157E+02 -0.18801944310E+01 -0.21674507705E+02  0.76127814280E+02  0.47000000000E+01 0. -1.
        -11    1    4    4    0    0  0.32344085398E+02  0.97056161713E+01 -0.11529332387E+03  0.12013696090E+03  0.00000000000E+00 0.  1.
         12    1    4    4    0    0 -0.37601901838E+02 -0.18915364914E+02 -0.63597778179E+02  0.76265139094E+02  0.00000000000E+00 0. -1.
         -5    1    5    5    0  502  0.22598829741E+02  0.15980664887E+02  0.22066324421E+03  0.22244200615E+03  0.47000000000E+01 0.  1.
         13    1    6    6    0    0  0.97326377654E+01  0.71146526804E+01  0.81041249113E+00  0.12083016554E+02  0.00000000000E+00 0. -1.
        -14    1    6    6    0    0 -0.99874988222E+02 -0.12005374393E+02  0.16420916204E+03  0.19257152225E+03  0.00000000000E+00 0.  1.
</event>
<event>
12    1  0.1630640E-001  0.1894918E+03  0.7818608E-02  0.1160443E+00
         21   -1    0    0  501  502  0.00000000000E+00  0.00000000000E+00  0.17482751576E+04  0.17482751576E+04  0.00000000000E+00 0. -1.
         21   -1    0    0  502  503 -0.00000000000E+00 -0.00000000000E+00 -0.52092410119E+02  0.52092410119E+02  0.00000000000E+00 0. -1.
         -6    2    1    2    0  503 -0.36362708105E+02 -0.73354616990E+02  0.15622051150E+04  0.15736556094E+04  0.17089180618E+03 0.  0.
        -24    2    3    3    0    0 -0.50926730609E+02 -0.10006079049E+03  0.89255344517E+03  0.90329691489E+03  0.81780011502E+02 0.  0.
          6    2    1    2  501    0  0.36362708105E+02  0.73354616990E+02  0.13397763246E+03  0.22671195825E+03  0.16353947426E+03 0.  0.
         24    2    5    5    0    0 -0.33033283575E+02  0.49400485557E+02  0.42208143526E+02  0.10909676717E+03  0.81172479518E+02 0.  0.
          5    1    5    5  501    0  0.69395991680E+02  0.23954131434E+02  0.91769488932E+02  0.11761519108E+03  0.47000000000E+01 0. -1.
        -11    1    6    6    0    0  0.19571802972E+01 -0.20584943721E+02  0.17366052906E+02  0.27002782379E+02  0.00000000000E+00 0.  1.
         12    1    6    6    0    0 -0.34990463873E+02  0.69985429278E+02  0.24842090620E+02  0.82093984795E+02  0.00000000000E+00 0. -1.
         -5    1    3    3    0  503  0.14564022504E+02  0.26706173498E+02  0.66965166983E+03  0.67035869456E+03  0.47000000000E+01 0.  1.
         11    1    4    4    0    0 -0.54362883474E+02 -0.67366327319E+02  0.38197128880E+03  0.39165751700E+03  0.00000000000E+00 0. -1.
        -12    1    4    4    0    0  0.34361528651E+01 -0.32694463170E+02  0.51058215637E+03  0.51163939789E+03  0.00000000000E+00 0.  1.
</event>
<event>
12    1  0.1630640E-001  0.2489714E+03  0.7818608E-02  0.1113974E+00
         21   -1    0    0  501  502  0.00000000000E+00  0.00000000000E+00  0.12523376534E+04  0.12523376534E+04  0.00000000000E+00 0.  1.
         21   -1    0    0  502  503 -0.00000000000E+00 -0.00000000000E+00 -0.70572560209E+02  0.70572560209E+02  0.00000000000E+00 0.  1.
         -6    2    1    2    0  503 -0.13589546240E+03  0.11834282954E+03  0.22912663190E+03  0.33827486353E+03  0.17163411038E+03 0.  0.
        -24    2    3    3    0    0 -0.16607124505E+03  0.97868800518E+02  0.16965840625E+03  0.26835831624E+03  0.77937478388E+02 0.  0.
          6    2    1    2  501    0  0.13589546240E+03 -0.11834282954E+03  0.95263846125E+03  0.98463535003E+03  0.17179677729E+03 0.  0.
         24    2    5    5    0    0  0.62905445990E+02 -0.79542429642E+02  0.30365908326E+03  0.33039583993E+03  0.81660755259E+02 0.  0.
          5    1    5    5  501    0  0.72990016406E+02 -0.38800399899E+02  0.64897937799E+03  0.65423951011E+03  0.47000000000E+01 0. -1.
        -13    1    6    6    0    0 -0.20061032170E+02 -0.14042070153E+02  0.58638152259E+02  0.63545713044E+02  0.00000000000E+00 0.  1.
         14    1    6    6    0    0  0.82966478160E+02 -0.65500359489E+02  0.24502093100E+03  0.26685012688E+03  0.00000000000E+00 0. -1.
         -5    1    3    3    0  503  0.30175782652E+02  0.20474029023E+02  0.59468225649E+02  0.69916547290E+02  0.47000000000E+01 0.  1.
         13    1    4    4    0    0 -0.14878097245E+03  0.93155931717E+02  0.11259268552E+03  0.20854476308E+03  0.00000000000E+00 0. -1.
        -14    1    4    4    0    0 -0.17290272600E+02  0.47128688005E+01  0.57065720731E+02  0.59813553159E+02  0.00000000000E+00 0.  1.
</event>
<event>
12    1  0.1630640E-001  0.2857684E+03  0.7818608E-02  0.1092606E+00
         21   -1    0    0  503  502  0.00000000000E+00  0.00000000000E+00  0.40560363200E+03  0.40560363200E+03  0.00000000000E+00 0.  1.
         21   -1    0    0  501  503 -0.00000000000E+00 -0.00000000000E+00 -0.26567806328E+03  0.26567806328E+03  0.00000000000E+00 0. -1.
          6    2    1    2  501    0 -0.20504943047E+03  0.98599609220E+02 -0.95408610247E+02  0.30108480748E+03  0.17257493013E+03 0.  0.
         24    2    3    3    0    0 -0.32120649682E+02  0.60516898836E+02 -0.53219771093E+02  0.11899514768E+03  0.81446116889E+02 0.  0.
         -6    2    1    2    0  502  0.20504943047E+03 -0.98599609220E+02  0.23533417897E+03  0.37019688780E+03  0.17290577801E+03 0.  0.
        -24    2    5    5    0    0  0.15072433848E+03 -0.12747654359E+03  0.13388551636E+03  0.25145761838E+03  0.79608460430E+02 0.  0.
          5    1    3    3  501    0 -0.17292878079E+03  0.38082710383E+02 -0.42188839154E+02  0.18208965980E+03  0.47000000000E+01 0. -1.
        -13    1    4    4    0    0 -0.25662372401E+02  0.16949587646E+01 -0.54003235904E+02  0.59814544473E+02  0.00000000000E+00 0.  1.
         14    1    4    4    0    0 -0.64582772811E+01  0.58821940072E+02  0.78346481062E+00  0.59180603211E+02  0.00000000000E+00 0. -1.
         -5    1    5    5    0  502  0.54325091989E+02  0.28876934367E+02  0.10144866260E+03  0.11873926942E+03  0.47000000000E+01 0.  1.
         13    1    6    6    0    0  0.47303310836E+02 -0.78905782016E+02  0.91040982293E+02  0.12943023645E+03  0.00000000000E+00 0. -1.
        -14    1    6    6    0    0  0.10342102765E+03 -0.48570761570E+02  0.42844534068E+02  0.12202738192E+03  0.00000000000E+00 0.  1.
</event>
<event>
12    1  0.1630640E-001  0.1909135E+03  0.7818608E-02  0.1157822E+00
         21   -1    0    0  503  502  0.00000000000E+00  0.00000000000E+00  0.38093468733E+03  0.38093468733E+03  0.00000000000E+00 0. -1.
         21   -1    0    0  501  503 -0.00000000000E+00 -0.00000000000E+00 -0.12312298166E+03  0.12312298166E+03  0.00000000000E+00 0.  1.
          6    2    1    2  501    0  0.70135862297E+02 -0.42488715649E+02  0.92547757636E+01  0.19113765957E+03  0.17240540564E+03 0.  0.
         24    2    3    3    0    0  0.33698779780E+02  0.35248800511E+02  0.34621025660E+02  0.10149214080E+03  0.81999716648E+02 0.  0.
         -6    2    1    2    0  502 -0.70135862297E+02  0.42488715649E+02  0.24855692991E+03  0.31292000942E+03  0.17150526159E+03 0.  0.
        -24    2    5    5    0    0 -0.94487869037E+02 -0.11630953947E+02  0.20184043682E+03  0.23724650286E+03  0.80517729082E+02 0.  0.
          5    1    3    3  501    0  0.36437082517E+02 -0.77737516159E+02 -0.25366249897E+02  0.89645518766E+02  0.47000000000E+01 0. -1.
        -11    1    4    4    0    0  0.15866166242E+02  0.19967269594E+02 -0.26037013666E+02  0.36446579632E+02  0.00000000000E+00 0.  1.
         12    1    4    4    0    0  0.17832613538E+02  0.15281530917E+02  0.60658039326E+02  0.65045561168E+02  0.00000000000E+00 0. -1.
         -5    1    5    5    0  502  0.24352006740E+02  0.54119669596E+02  0.46716493084E+02  0.75673506563E+02  0.47000000000E+01 0.  1.
         11    1    6    6    0    0  0.95093153843E+01 -0.18140698257E+02  0.33687478336E+02  0.39425349827E+02  0.00000000000E+00 0. -1.
        -12    1    6    6    0    0 -0.10399718442E+03  0.65097443105E+01  0.16815295849E+03  0.19782115303E+03  0.00000000000E+00 0.  1.
</event>
<event>
12    1  0.1630640E-001  0.2330473E+03  0.7818608E-02  0.1124712E+00
         21   -1    0    0  501  502  0.00000000000E+00  0.00000000000E+00  0.32934711588E+03  0.32934711588E+03  0.00000000000E+00 0. -1.
         21   -1    0    0  502  503 -0.00000000000E+00 -0.00000000000E+00 -0.18098786954E+03  0.18098786954E+03  0.00000000000E+00 0.  1.
         -6    2    1    2    0  503 -0.42511506594E+02  0.15045506603E+03 -0.36080141852E+01  0.23307520035E+03  0.17282093671E+03 0.  0.
        -24    2    3    3    0    0  0.20535394715E+02  0.35502166065E+02  0.35072986746E+02  0.96300236239E+02  0.79759105241E+02 0.  0.
          6    2    1    2  501    0  0.42511506594E+02 -0.15045506603E+03  0.15196726053E+03  0.27725978507E+03  0.17127458965E+03 0.  0.
         24    2    5    5    0    0  0.65505539195E+02 -0.11927504973E+03  0.46008715977E+02  0.16434290363E+03  0.79839056070E+02 0.  0.
          5    1    5    5  501    0 -0.22994032602E+02 -0.31180016299E+02  0.10595854455E+03  0.11291688145E+03  0.47000000000E+01 0. -1.
        -11    1    6    6    0    0  0.21791555685E+02 -0.35814295385E+02 -0.22756692871E+02  0.47701181573E+02  0.00000000000E+00 0.  1.
         12    1    6    6    0    0  0.43713983511E+02 -0.83460754342E+02  0.68765408848E+02  0.11664172205E+03  0.00000000000E+00 0. -1.
         -5    1    3    3    0  503 -0.63046901309E+02  0.11495289996E+03 -0.38681000931E+02  0.13677496411E+03  0.47000000000E+01 0.  1.
         13    1    4    4    0    0  0.32374329100E+02 -0.26869355706E+01 -0.11916899521E+02  0.34602446469E+02  0.00000000000E+00 0. -1.
        -14    1    4    4    0    0 -0.11838934385E+02  0.38189101636E+02  0.46989886266E+02  0.61697789770E+02  0.00000000000E+00 0.  1.
</event>
<event>
12    1  0.1630640E-001  0.2156647E+03  0.7818608E-02  0.1137180E+00
         21   -1    0    0  503  502  0.00000000000E+00  0.00000000000E+00  0.25484877880E+03  0.25484877880E+03  0.00000000000E+00 0. -1.
         21   -1    0    0  501  503 -0.00000000000E+00 -0.00000000000E+00 -0.28163387643E+03  0.28163387643E+03  0.00000000000E+00 0. -1.
          6    2    1    2  501    0 -0.12803565960E+03  0.87190114771E+01 -0.17261718131E+03  0.27623890688E+03  0.17332654471E+03 0.  0.
         24    2    3    3    0    0 -0.37910734838E+02 -0.18084507825E+02 -0.15682382569E+03  0.18077974916E+03  0.79519382298E+02 0.  0.
         -6    2    1    2    0  502  0.12803565960E+03 -0.87190114771E+01  0.14583208368E+03  0.26024374835E+03  0.17317811823E+03 0.  0.
        -24    2    5    5    0    0  0.67755575547E+02  0.23148200559E+02  0.10699889503E+02  0.10881056956E+03  0.81231737676E+02 0.  0.
          5    1    3    3  501    0 -0.90124924765E+02  0.26803519302E+02 -0.15793355612E+02  0.95459157719E+02  0.47000000000E+01 0. -1.
        -13    1    4    4    0    0 -0.47483111427E+02  0.52390570089E+01 -0.14550067908E+03  0.15314222540E+03  0.00000000000E+00 0.  1.
         14    1    4    4    0    0  0.95723765887E+01 -0.23323564834E+02 -0.11323146618E+02  0.27637523758E+02  0.00000000000E+00 0. -1.
         -5    1    5    5    0  502  0.60280084057E+02 -0.31867212037E+02  0.13513219417E+03  0.15143317879E+03  0.47000000000E+01 0.  1.
         13    1    6    6    0    0  0.74103533063E+02 -0.80666118524E+01 -0.18742253908E+01  0.74564848018E+02  0.00000000000E+00 0. -1.
        -14    1    6    6    0    0 -0.63479575164E+01  0.31214812412E+02  0.12574114894E+02  0.34245721542E+02  0.00000000000E+00 0.  1.
</event>
<event>
12    1  0.1630640E-001  0.2026404E+03  0.7818608E-02  0.1147629E+00
         21   -1    0    0  501  502  0.00000000000E+00  0.00000000000E+00  0.59258750784E+03  0.59258750784E+03  0.00000000000E+00 0. -1.
         21   -1    0    0  502  503 -0.00000000000E+00 -0.00000000000E+00 -0.72922865245E+02  0.72922865245E+02  0.00000000000E+00 0. -1.
         -6    2    1    2    0  503  0.10230842522E+03  0.33209229581E+02  0.18367072876E+03  0.27313930624E+03  0.17117323743E+03 0.  0.
        -24    2    3    3    0    0  0.42024817342E+02 -0.29774578019E+02  0.34280984372E+02  0.10010619055E+03  0.78698492538E+02 0.  0.
          6    2    1    2  501    0 -0.10230842522E+03 -0.33209229581E+02  0.33599391384E+03  0.39237106684E+03  0.17173606832E+03 0.  0.
         24    2    5    5    0    0 -0.99815327279E+02 -0.12839098519E+02  0.34614337830E+03  0.36899887384E+03  0.78847882295E+02 0.  0.
          5    1    5    5  501    0 -0.24930979377E+01 -0.20370131063E+02 -0.10149464467E+02  0.23372193004E+02  0.47000000000E+01 0. -1.
        -11    1    6    6    0    0 -0.45092710720E+02 -0.45443942303E+02  0.18176210449E+03  0.19270694611E+03  0.00000000000E+00 0.  1.
         12    1    6    6    0    0 -0.54722616558E+02  0.32604843784E+02  0.16438127382E+03  0.17629192773E+03  0.00000000000E+00 0. -1.
         -5    1    3    3    0  503  0.60283607874E+02  0.62983807600E+02  0.14938974439E+03  0.17303311570E+03  0.47000000000E+01 0.  1.
         11    1    4    4    0    0  0.21788109673E+02 -0.53534145456E+02  0.37240288945E+02  0.68756567494E+02  0.00000000000E+00 0. -1.
        -12    1    4    4    0    0  0.20236707669E+02  0.23759567437E+02 -0.29593045723E+01  0.31349623054E+02  0.00000000000E+00 0.  1.
</event>
<event>
12    1  0.1630640E-001  0.1741177E+03  0.7818608E-02  0.1174147E+00
         21   -1    0    0  503  502  0.00000000000E+00  0.00000000000E+00  0.16716764752E+03  0.16716764752E+03  0.00000000000E+00 0. -1.
         21   -1    0    0  501  503 -0.00000000000E+00 -0.00000000000E+00 -0.20487952535E+03  0.20487952535E+03  0.00000000000E+00 0. -1.
          6    2    1    2  501    0 -0.16125628910E+02 -0.61441282384E+01 -0.84603858486E+02  0.19172574335E+03  0.17118166250E+03 0.  0.
         24    2    3    3    0    0 -0.53485979877E+02 -0.79944973781E+01  0.22684112184E+01  0.97025685626E+02  0.80524381090E+02 0.  0.
         -6    2    1    2    0  502  0.16125628910E+02  0.61441282384E+01  0.46891980659E+02  0.18032142951E+03  0.17326042211E+03 0.  0.
        -24    2    5    5    0    0 -0.30246015246E+02  0.51076931989E+02  0.92386638222E+01  0.10542718071E+03  0.86636384409E+02 0.  0.
          5    1    3    3  501    0  0.37360350966E+02  0.18503691398E+01 -0.86872269704E+02  0.94700057729E+02  0.47000000000E+01 0. -1.
        -11    1    4    4    0    0 -0.90743272618E+01  0.20930670695E+02  0.29617414926E+02  0.37384858671E+02  0.00000000000E+00 0.  1.
         12    1    4    4    0    0 -0.44411652615E+02 -0.28925168073E+02 -0.27349003707E+02  0.59640826955E+02  0.00000000000E+00 0. -1.
         -5    1    5    5    0  502  0.46371644157E+02 -0.44932803751E+02  0.37653316837E+02  0.74894248801E+02  0.47000000000E+01 0.  1.
         11    1    6    6    0    0 -0.16005963187E+02  0.37372594977E+02  0.47402804831E+02  0.62449400468E+02  0.00000000000E+00 0. -1.
        -12    1    6    6    0    0 -0.14240052059E+02  0.13704337012E+02 -0.38164141009E+02  0.42977780242E+02  0.00000000000E+00 0.  1.
</event>
<event>
12    1  0.1630640E-001  0.1802324E+03  0.7818608E-02  0.1168333E+00
         21   -1    0    0  501  502  0.00000000000E+00  0.00000000000E+00  0.10063587201E+04  0.10063587201E+04  0.00000000000E+00 0. -1.
         21   -1    0    0  502  503 -0.00000000000E+00 -0.00000000000E+00 -0.33443449433E+02  0.33443449433E+02  0.00000000000E+00 0.  1.
         -6    2    1    2    0  503 -0.51539710089E+02 -0.89946739627E+01  0.37266559519E+03  0.41396057798E+03  0.17247164522E+03 0.  0.
        -24    2    3    3    0    0 -0.76660805144E+02 -0.18125677379E+02  0.37026800561E+03  0.38671570551E+03  0.79026715003E+02 0.  0.
          6    2    1    2  501    0  0.51539710089E+02  0.89946739627E+01  0.60024967547E+03  0.62584159155E+03  0.16923586776E+03 0.  0.
         24    2    5    5    0    0  0.46204300499E+02 -0.25815466977E+02  0.17672650631E+03  0.20083079483E+03  0.79369228305E+02 0.  0.
          5    1    5    5  501    0  0.53354095901E+01  0.34810140940E+02  0.42352316916E+03  0.42501079672E+03  0.47000000000E+01 0. -1.
        -13    1    6    6    0    0  0.52273486606E+02 -0.48858185336E+02  0.13088897272E+03  0.14916957751E+03  0.00000000000E+00 0.  1.
         14    1    6    6    0    0 -0.60691861069E+01  0.23042718359E+02  0.45837533588E+02  0.51661217318E+02  0.00000000000E+00 0. -1.
         -5    1    3    3    0  503  0.25121095055E+02  0.91310034164E+01  0.23975895839E+01  0.27244872471E+02  0.47000000000E+01 0.  1.
         13    1    4    4    0    0 -0.53768977441E+02  0.27027446262E+02  0.17816250218E+03  0.18805175609E+03  0.00000000000E+00 0. -1.
        -14    1    4    4    0    0 -0.22891827702E+02 -0.45153123641E+02  0.19210550343E+03  0.19866394941E+03  0.00000000000E+00 0.  1.
</event>
<event>
12    1  0.1630640E-001  0.1811116E+03  0.7818608E-02  0.1166821E+00
         21   -1    0    0  503  502  0.00000000000E+00  0.00000000000E+00  0.32281492239E+03  0.32281492239E+03  0.00000000000E+00 0. -1.
         21   -1    0    0  501  503 -0.00000000000E+00 -0.00000000000E+00 -0.23203986881E+03  0.23203986881E+03  0.00000000000E+00 0. -1.
          6    2    1    2  501    0 -0.18342953605E+02 -0.54536882058E+02 -0.16275518599E+03  0.24349671511E+03  0.17172846081E+03 0.  0.
         24    2    3    3    0    0  0.52036063257E+02 -0.55623660077E+02 -0.10401143200E+03  0.15169635709E+03  0.79947878818E+02 0.  0.
         -6    2    1    2    0  502  0.18342953605E+02  0.54536882058E+02  0.25353023956E+03  0.31135807608E+03  0.17133456662E+03 0.  0.
        -24    2    5    5    0    0 -0.28351160708E+02  0.32127099536E+02  0.24121186550E+03  0.25791304822E+03  0.80622810322E+02 0.  0.
          5    1    3    3  501    0 -0.70379016862E+02  0.10867780193E+01 -0.58743753990E+02  0.91800358026E+02  0.47000000000E+01 0. -1.
        -11    1    4    4    0    0 -0.10968139580E+02 -0.25627187083E+02 -0.17963121179E+01  0.27933484224E+02  0.00000000000E+00 0.  1.
         12    1    4    4    0    0  0.63004202837E+02 -0.29996472994E+02 -0.10221511988E+03  0.12376287286E+03  0.00000000000E+00 0. -1.
         -5    1    5    5    0  502  0.46694114313E+02  0.22409782522E+02  0.12318374059E+02  0.53445027866E+02  0.47000000000E+01 0.  1.
         11    1    6    6    0    0 -0.25965602151E+02  0.50810036269E+02  0.22768034278E+03  0.23472156009E+03  0.00000000000E+00 0. -1.
        -12    1    6    6    0    0 -0.23855585569E+01 -0.18682936733E+02  0.13531522721E+02  0.23191488132E+02  0.00000000000E+00 0.  1.
</event>
<event>
12    1  0.1630640E-001  0.1715909E+03  0.7818608E-02  0.1177379E+00
         21   -1    0    0  501  502  0.00000000000E+00  0.00000000000E+00  0.75847625360E+03  0.75847625360E+03  0.00000000000E+00 0. -1.
         21   -1    0    0  502  503 -0.00000000000E+00 -0.00000000000E+00 -0.40237564609E+02  0.40237564609E+02  0.00000000000E+00 0. -1.
         -6    2    1    2    0  503 -0.12293644420E+02 -0.21503189444E+02  0.25641749480E+03  0.30604531894E+03  0.16522797812E+03 0.  0.
        -24    2    3    3    0    0 -0.10158169201E+02  0.38182044327E+02  0.74024079351E+02  0.11406527991E+03  0.77267501882E+02 0.  0.
          6    2    1    2  501    0  0.12293644420E+02  0.21503189444E+02  0.46182119418E+03  0.49266849927E+03  0.16979373935E+03 0.  0.
         24    2    5    5    0    0  0.29840790095E+02  0.60144758595E+02  0.42073471348E+03  0.43341259589E+03  0.79504178588E+02 0.  0.
          5    1    5    5  501    0 -0.17547145676E+02 -0.38641569150E+02  0.41086480709E+02  0.59255903375E+02  0.47000000000E+01 0. -1.
        -13    1    6    6    0    0  0.77003622250E+01 -0.19614084816E+02  0.74673610231E+02  0.77589664044E+02  0.00000000000E+00 0.  1.
         14    1    6    6    0    0  0.22140427870E+02  0.79758843411E+02  0.34606110324E+03  0.35582293185E+03  0.00000000000E+00 0. -1.
         -5    1    3    3    0  503 -0.21354752191E+01 -0.59685233771E+02  0.18239341545E+03  0.19198003903E+03  0.47000000000E+01 0.  1.
         11    1    4    4    0    0 -0.28196356765E+02 -0.12745306160E+02  0.16194744863E+02  0.34924878312E+02  0.00000000000E+00 0. -1.
        -12    1    4    4    0    0  0.18038187564E+02  0.50927350486E+02  0.57829334488E+02  0.79140401600E+02  0.00000000000E+00 0.  1.
</event>
<event>
12    1  0.1630640E-001  0.1945859E+03  0.7818608E-02  0.1154989E+00
         21   -1    0    0  501  502  0.00000000000E+00  0.00000000000E+00  0.23675437245E+03  0.23675437245E+03  0.00000000000E+00 0. -1.
         21   -1    0    0  502  503 -0.00000000000E+00 -0.00000000000E+00 -0.36411844652E+03  0.36411844652E+03  0.00000000000E+00 0.  1.
         -6    2    1    2    0  503  0.87051082199E+01 -0.83901086094E+02 -0.28969413453E+03  0.34746655859E+03  0.17232279768E+03 0.  0.
        -24    2    3    3    0    0  0.66308724335E+02 -0.65646569868E+02 -0.17014827617E+03  0.21343407669E+03  0.88867036365E+02 0.  0.
          6    2    1    2  501    0 -0.87051082199E+01  0.83901086094E+02  0.16233006046E+03  0.25340626038E+03  0.17535253951E+03 0.  0.
         24    2    5    5    0    0 -0.44273602882E+02  0.31674309933E+02  0.21806998004E+02  0.99258360478E+02  0.80082851729E+02 0.  0.
          5    1    5    5  501    0  0.35568494662E+02  0.52226776161E+02  0.14052306246E+03  0.15414789990E+03  0.47000000000E+01 0. -1.
        -13    1    6    6    0    0  0.21827210703E+02 -0.31856001546E+01  0.62459623327E+01  0.22925689104E+02  0.00000000000E+00 0.  1.
         14    1    6    6    0    0 -0.66100813585E+02  0.34859910087E+02  0.15561035671E+02  0.76332671374E+02  0.00000000000E+00 0. -1.
         -5    1    3    3    0  503 -0.57603616115E+02 -0.18254516226E+02 -0.11954585836E+03  0.13403248190E+03  0.47000000000E+01 0.  1.
         11    1    4    4    0    0  0.59741436336E+02 -0.52387326419E+02 -0.53359205826E+02  0.95711420589E+02  0.00000000000E+00 0. -1.
        -12    1    4    4    0    0  0.65672879989E+01 -0.13259243449E+02 -0.11678907035E+03  0.11772265611E+03  0.00000000000E+00 0.  1.
</event>
<event>
12    1  0.1630640E-001  0.1930631E+03  0.7818608E-02  0.1155929E+00
         21   -1    0    0  503  502  0.00000000000E+00  0.00000000000E+00  0.37502538620E+02  0.37502538620E+02  0.00000000000E+00 0.  1.
         21   -1    0    0  501  503 -0.00000000000E+00 -0.00000000000E+00 -0.10077726721E+04  0.10077726721E+04  0.00000000000E+00 0.  1.
          6    2    1    2  501    0  0.10361347097E+02 -0.82529251764E+02 -0.55720998346E+03  0.58970866513E+03  0.17422660287E+03 0.  0.
         24    2    3    3    0    0 -0.34774010557E+02 -0.25359665913E+02 -0.27173974763E+03  0.29505478750E+03  0.10659499387E+03 0.  0.
         -6    2    1    2    0  502 -0.10361347097E+02  0.82529251764E+02 -0.41306015001E+03  0.45556654559E+03  0.17321592022E+03 0.  0.
        -24    2    5    5    0    0 -0.48463740086E+02  0.55460896276E+02 -0.13156881307E+03  0.17018267955E+03  0.78912272346E+02 0.  0.
          5    1    3    3  501    0  0.45135357654E+02 -0.57169585850E+02 -0.28547023583E+03  0.29465387763E+03  0.47000000000E+01 0. -1.
        -13    1    4    4    0    0 -0.11526598682E+02 -0.16847013372E+02 -0.26941688504E+03  0.27018908617E+03  0.00000000000E+00 0.  1.
         14    1    4    4    0    0 -0.23247411875E+02 -0.85126525416E+01 -0.23228625872E+01  0.24865701333E+02  0.00000000000E+00 0. -1.
         -5    1    5    5    0  502  0.38102392989E+02  0.27068355488E+02 -0.28149133694E+03  0.28538386604E+03  0.47000000000E+01 0.  1.
         13    1    6    6    0    0 -0.34000409656E+02  0.21107705694E+02 -0.12636108631E+03  0.13254692463E+03  0.00000000000E+00 0. -1.
        -14    1    6    6    0    0 -0.14463330431E+02  0.34353190582E+02 -0.52077267660E+01  0.37635754920E+02  0.00000000000E+00 0.  1.
</event>
<event>
12    1  0.1630640E-001  0.2143459E+03  0.7818608E-02  0.1139425E+00
         21   -1    0    0  503  502  0.00000000000E+00  0.00000000000E+00  0.10488602792E+04  0.10488602792E+04  0.00000000000E+00 0. -1.
         21   -1    0    0  501  503 -0.00000000000E+00 -0.00000000000E+00 -0.66800959802E+02  0.66800959802E+02  0.00000000000E+00 0. -1.
          6    2    1    2  501    0  0.92617565562E+02 -0.89573996682E+02  0.15937444822E+03  0.26710365671E+03  0.17129691869E+03 0.  0.
         24    2    3    3    0    0 -0.12792063617E+02 -0.66759991567E+02  0.79587647967E+02  0.13286620945E+03  0.81845601837E+02 0.  0.
         -6    2    1    2    0  502 -0.92617565562E+02  0.89573996682E+02  0.82268487113E+03  0.84855758224E+03  0.16321169950E+03 0.  0.
        -24    2    5    5    0    0 -0.53246360282E+02  0.11468475351E+03  0.72216773593E+03  0.73762324859E+03  0.81080518399E+02 0.  0.
          5    1    3    3  501    0  0.10540962918E+03 -0.22814005115E+02  0.79786800250E+02  0.13423744726E+03  0.47000000000E+01 0. -1.
        -11    1    4    4    0    0 -0.22627163322E+02  0.57161928837E+01  0.47646961342E+02  0.53055596370E+02  0.00000000000E+00 0.  1.
         12    1    4    4    0    0  0.98350997051E+01 -0.72476184451E+02  0.31940686625E+02  0.79810613084E+02  0.00000000000E+00 0. -1.
         -5    1    5    5    0  502 -0.39371205280E+02 -0.25110756830E+02  0.10051713520E+03  0.11093433365E+03  0.47000000000E+01 0.  1.
         13    1    6    6    0    0 -0.44941793309E+02  0.99264023259E+02  0.38836926025E+03  0.40336558282E+03  0.00000000000E+00 0. -1.
        -14    1    6    6    0    0 -0.83045669726E+01  0.15420730253E+02  0.33379847568E+03  0.33425766577E+03  0.00000000000E+00 0.  1.
</event>
<event>
12    1  0.1630640E-001  0.2835280E+03  0.7818608E-02  0.1093789E+00
         21   -1    0    0  503  502  0.00000000000E+00  0.00000000000E+00  0.55282121692E+03  0.55282121692E+03  0.00000000000E+00 0.  1.
         21   -1    0    0  501  503 -0.00000000000E+00 -0.00000000000E+00 -0.28056744612E+03  0.28056744612E+03  0.00000000000E+00 0. -1.
          6    2    1    2  501    0 -0.22305551887E+03  0.30584561350E+02 -0.15314168423E+03  0.32216522546E+03  0.17218849310E+03 0.  0.
         24    2    3    3    0    0 -0.66862519693E+02  0.42418732050E+02 -0.15454769943E+02  0.11356015133E+03  0.79919413704E+02 0.  0.
         -6    2    1    2    0  502  0.22305551887E+03 -0.30584561350E+02  0.42539545503E+03  0.51122343758E+03  0.17233377520E+03 0.  0.
        -24    2    5    5    0    0  0.13725267086E+03  0.32318523097E+01  0.14446337144E+03  0.21550295444E+03  0.81994616621E+02 0.  0.
          5    1    3    3  501    0 -0.15619299918E+03 -0.11834170700E+02 -0.13768691429E+03  0.20860507413E+03  0.47000000000E+01 0. -1.
        -13    1    4    4    0    0 -0.75550373063E+01 -0.72997183920E+01  0.24359786053E+02  0.26528544133E+02  0.00000000000E+00 0.  1.
         14    1    4    4    0    0 -0.59307482387E+02  0.49718450442E+02 -0.39814555996E+02  0.87031607193E+02  0.00000000000E+00 0. -1.
         -5    1    5    5    0  502  0.85802848009E+02 -0.33816413660E+02  0.28093208359E+03  0.29572048314E+03  0.47000000000E+01 0.  1.
         13    1    6    6    0    0  0.35587377300E+02  0.31847970199E+02  0.18734504602E+02  0.51300451183E+02  0.00000000000E+00 0. -1.
        -14    1    6    6    0    0  0.10166529356E+03 -0.28616117890E+02  0.12572886684E+03  0.16420250326E+03  0.00000000000E+00 0.  1.
</event>
<event>
12    1  0.1630640E-001  0.1824396E+03  0.7818608E-02  0.1166279E+00
         21   -1    0    0  501  502  0.00000000000E+00  0.00000000000E+00  0.70413898253E+02  0.70413898253E+02  0.00000000000E+00 0.  1.
         21   -1    0    0  502  503 -0.00000000000E+00 -0.00000000000E+00 -0.15347262705E+04  0.15347262705E+04  0.00000000000E+00 0.  1.
         -6    2    1    2    0  503  0.19805576100E+02  0.50498346382E+02 -0.14046100256E+04  0.14164086790E+04  0.17418920212E+03 0.  0.
        -24    2    3    3    0    0 -0.10051049243E+02 -0.37991323396E+02 -0.68092933879E+03  0.68671171027E+03  0.79773707135E+02 0.  0.
          6    2    1    2  501    0 -0.19805576100E+02 -0.50498346382E+02 -0.59702346686E+02  0.18873148978E+03  0.17062491378E+03 0.  0.
         24    2    5    5    0    0  0.29506102280E+02  0.23067172408E+02 -0.45372177914E+02  0.98892907217E+02  0.79488792006E+02 0.  0.
          5    1    5    5  501    0 -0.49311678380E+02 -0.73565518790E+02 -0.14330168772E+02  0.89838582561E+02  0.47000000000E+01 0. -1.
        -11    1    6    6    0    0  0.34255341661E+02 -0.23176175084E+02 -0.20193250038E+02  0.46025328580E+02  0.00000000000E+00 0.  1.
         12    1    6    6    0    0 -0.47492393813E+01  0.46243347492E+02 -0.25178927876E+02  0.52867578637E+02  0.00000000000E+00 0. -1.
         -5    1    3    3    0  503  0.29856625343E+02  0.88489669778E+02 -0.72368068681E+03  0.72969696875E+03  0.47000000000E+01 0.  1.
         13    1    4    4    0    0 -0.31981516780E+02  0.54896464989E+01 -0.14560947792E+03  0.14918134500E+03  0.00000000000E+00 0. -1.
        -14    1    4    4    0    0  0.21930467537E+02 -0.43480969895E+02 -0.53531986087E+03  0.53753036527E+03  0.00000000000E+00 0.  1.
</event>
<event>
12    1  0.1630640E-001  0.2905954E+03  0.7818608E-02  0.1090243E+00
         21   -1    0    0  501  502  0.00000000000E+00  0.00000000000E+00  0.21791944389E+03  0.21791944389E+03  0.00000000000E+00 0. -1.
         21   -1    0    0  502  503 -0.00000000000E+00 -0.00000000000E+00 -0.40081776093E+03  0.40081776093E+03  0.00000000000E+00 0. -1.
         -6    2    1    2    0  503  0.67454234708E+02 -0.22342263538E+03 -0.31052634054E+02  0.29224979911E+03  0.17314136196E+03 0.  0.
        -24    2    3    3    0    0  0.70941115239E+02 -0.22921764848E+03 -0.62238124759E+02  0.25999510421E+03  0.78425109716E+02 0.  0.
          6    2    1    2  501    0 -0.67454234708E+02  0.22342263538E+03 -0.15184568298E+03  0.32648740571E+03  0.17049682363E+03 0.  0.
         24    2    5    5    0    0 -0.60118089487E+02  0.22359147538E+03 -0.84901509649E+02  0.25897844425E+03  0.79083725887E+02 0.  0.
          5    1    5    5  501    0 -0.73361452211E+01 -0.16884000538E+00 -0.66944173331E+02  0.67508961454E+02  0.47000000000E+01 0. -1.
        -11    1    6    6    0    0  0.18500990597E+02  0.54672436876E+02 -0.12296781837E+02  0.59013327737E+02  0.00000000000E+00 0.  1.
         12    1    6    6    0    0 -0.78619080083E+02  0.16891903851E+03 -0.72604727812E+02  0.19996511652E+03  0.00000000000E+00 0. -1.
         -5    1    3    3    0  503 -0.34868805308E+01  0.57950131025E+01  0.31185490705E+02  0.32254694902E+02  0.47000000000E+01 0.  1.
         11    1    4    4    0    0  0.30327319600E+02 -0.23174416129E+02  0.71278410762E+01  0.38827902280E+02  0.00000000000E+00 0. -1.
        -12    1    4    4    0    0  0.40613795639E+02 -0.20604323235E+03 -0.69365965835E+02  0.22116720193E+03  0.00000000000E+00 0.  1.
</event>
<event>
12    1  0.1630640E-001  0.1812865E+03  0.7818608E-02  0.1166570E+00
         21   -1    0    0  503  502  0.00000000000E+00  0.00000000000E+00  0.28529206587E+03  0.28529206587E+03  0.00000000000E+00 0. -1.
         21   -1    0    0  501  503 -0.00000000000E+00 -0.00000000000E+00 -0.15993117949E+03  0.15993117949E+03  0.00000000000E+00 0. -1.
          6    2    1    2  501    0  0.27673729066E+02 -0.52966304971E+02 -0.55072034845E+02  0.18946695844E+03  0.17115354094E+03 0.  0.
         24    2    3    3    0    0  0.59744658013E+02 -0.75981506623E+02 -0.52347075950E+01  0.12571671783E+03  0.80216441384E+02 0.  0.
         -6    2    1    2    0  502 -0.27673729066E+02  0.52966304971E+02  0.18043292122E+03  0.25575628692E+03  0.17112561028E+03 0.  0.
        -24    2    5    5    0    0 -0.11366789575E+02  0.10140343793E+03  0.11971857724E+03  0.17625538321E+03  0.79508246388E+02 0.  0.
          5    1    3    3  501    0 -0.32070928947E+02  0.23015201652E+02 -0.49837327250E+02  0.63750240612E+02  0.47000000000E+01 0. -1.
        -13    1    4    4    0    0 -0.80278151813E+01 -0.50012171718E+02  0.98165078643E+01  0.51594834656E+02  0.00000000000E+00 0.  1.
         14    1    4    4    0    0  0.67772473195E+02 -0.25969334905E+02 -0.15051215459E+02  0.74121883173E+02  0.00000000000E+00 0. -1.
         -5    1    5    5    0  502 -0.16306939491E+02 -0.48437132963E+02  0.60714343985E+02  0.79500903711E+02  0.47000000000E+01 0.  1.
         11    1    6    6    0    0 -0.12308514479E+02  0.21809343199E+02 -0.75393056255E+01  0.26153166324E+02  0.00000000000E+00 0. -1.
        -12    1    6    6    0    0  0.94172490395E+00  0.79594094735E+02  0.12725788286E+03  0.15010221688E+03  0.00000000000E+00 0.  1.
</event>
<event>
12    1  0.1630640E-001  0.1946170E+03  0.7818608E-02  0.1154524E+00
         21   -1    0    0  503  502  0.00000000000E+00  0.00000000000E+00  0.24223530573E+03  0.24223530573E+03  0.00000000000E+00 0. -1.
         21   -1    0    0  501  503 -0.00000000000E+00 -0.00000000000E+00 -0.20182625508E+03  0.20182625508E+03  0.00000000000E+00 0. -1.
          6    2    1    2  501    0 -0.83464127488E+02 -0.34105271027E+02 -0.85895894072E+02  0.21205136036E+03  0.17163404302E+03 0.  0.
         24    2    3    3    0    0 -0.12073579337E+03 -0.35015816502E+02 -0.87089779857E+02  0.17445453158E+03  0.83943520451E+02 0.  0.
         -6    2    1    2    0  502  0.83464127488E+02  0.34105271027E+02  0.12630494472E+03  0.23201020044E+03  0.17247134243E+03 0.  0.
        -24    2    5    5    0    0  0.11666164057E+03  0.48969544240E+02  0.12467419010E+03  0.19529820167E+03  0.81177455341E+02 0.  0.
          5    1    3    3  501    0  0.37271665886E+02  0.91054547466E+00  0.11938857852E+01  0.37596828779E+02  0.47000000000E+01 0. -1.
        -13    1    4    4    0    0 -0.11354201571E+03 -0.46716496705E+02 -0.45969234976E+02  0.13110069016E+03  0.00000000000E+00 0.  1.
         14    1    4    4    0    0 -0.71937776610E+01  0.11700680203E+02 -0.41120544881E+02  0.43353841416E+02  0.00000000000E+00 0. -1.
         -5    1    5    5    0  502 -0.33197513085E+02 -0.14864273212E+02  0.16307546211E+01  0.36711998771E+02  0.47000000000E+01 0.  1.
         13    1    6    6    0    0  0.53046546191E+02  0.50018831840E+02  0.10661509225E+03  0.12916112997E+03  0.00000000000E+00 0. -1.
        -14    1    6    6    0    0  0.63615094382E+02 -0.10492876001E+01  0.18059097853E+02  0.66137071700E+02  0.00000000000E+00 0.  1.
</event>
<event>
12    1  0.1630640E-001  0.2128630E+03  0.7818608E-02  0.1140030E+00
         21   -1    0    0  501  502  0.00000000000E+00  0.00000000000E+00  0.84426197336E+03  0.84426197336E+03  0.00000000000E+00 0. -1.
         21   -1    0    0  502  503 -0.00000000000E+00 -0.00000000000E+00 -0.16757589415E+03  0.16757589415E+03  0.00000000000E+00 0. -1.
         -6    2    1    2    0  503 -0.10213445413E+03  0.65931281343E+02 -0.81338470005E+02  0.22449303288E+03  0.17030206848E+03 0.  0.
        -24    2    3    3    0    0 -0.40663686130E+02  0.10272748602E+03 -0.65659009337E+02  0.15100458832E+03  0.79276783704E+02 0.  0.
          6    2    1    2  501    0  0.10213445413E+03 -0.65931281343E+02  0.75802454921E+03  0.78734483463E+03  0.17473491587E+03 0.  0.
         24    2    5    5    0    0  0.12200228543E+03 -0.11370664277E+02  0.63113982927E+03  0.64772601852E+03  0.78725226736E+02 0.  0.
          5    1    5    5  501    0 -0.19867831299E+02 -0.54560617066E+02  0.12688471994E+03  0.13961881610E+03  0.47000000000E+01 0. -1.
        -13    1    6    6    0    0  0.17249769955E+02  0.18095661186E+02  0.44167565341E+02  0.50752156067E+02  0.00000000000E+00 0.  1.
         14    1    6    6    0    0  0.10475251547E+03 -0.29466325462E+02  0.58697226393E+03  0.59697386245E+03  0.00000000000E+00 0. -1.
         -5    1    3    3    0  503 -0.61470767998E+02 -0.36796204673E+02 -0.15679460668E+02  0.73488444557E+02  0.47000000000E+01 0.  1.
         11    1    4    4    0    0 -0.34674397597E+02  0.10392769020E+02 -0.42102617429E+02  0.55524354035E+02  0.00000000000E+00 0. -1.
        -12    1    4    4    0    0 -0.59892885335E+01  0.92334716996E+02 -0.23556391907E+02  0.95480234287E+02  0.00000000000E+00 0.  1.
</event>
<event>
12    1  0.1630640E-001  0.2063010E+03  0.7818608E-02  0.1144696E+00
         21   -1    0    0  501  502  0.00000000000E+00  0.00000000000E+00  0.24657610408E+03  0.24657610408E+03  0.00000000000E+00 0.  1.
         21   -1    0    0  502  503 -0.00000000000E+00 -0.00000000000E+00 -0.31627601070E+03  0.31627601070E+03  0.00000000000E+00 0.  1.
         -6    2    1    2    0  503  0.77288542599E+02 -0.82863046472E+02  0.15524187190E+03  0.25818622342E+03  0.17239571887E+03 0.  0.
        -24    2    3    3    0    0  0.63273604760E+02  0.15864879233E+02  0.23254705510E+02  0.92698085207E+02  0.61619073510E+02 0.  0.
          6    2    1    2  501    0 -0.77288542599E+02  0.82863046472E+02 -0.22494177853E+03  0.30466589137E+03  0.17141382192E+03 0.  0.
         24    2    5    5    0    0 -0.10883948291E+03  0.64329359564E+02 -0.22269348062E+03  0.26770504413E+03  0.78033997744E+02 0.  0.
          5    1    5    5  501    0  0.31550940308E+02  0.18533686908E+02 -0.22482979122E+01  0.36960847233E+02  0.47000000000E+01 0. -1.
        -11    1    6    6    0    0 -0.50857344032E+02  0.27368305366E+02 -0.17430739272E+03  0.18362614394E+03  0.00000000000E+00 0.  1.
         12    1    6    6    0    0 -0.57982138874E+02  0.36961054198E+02 -0.48386087893E+02  0.84078900192E+02  0.00000000000E+00 0. -1.
         -5    1    3    3    0  503  0.14014937838E+02 -0.98727925704E+02  0.13198716639E+03  0.16548813821E+03  0.47000000000E+01 0.  1.
         11    1    4    4    0    0  0.33512088259E+02  0.12438591574E+02  0.43678038858E+02  0.56440674149E+02  0.00000000000E+00 0. -1.
        -12    1    4    4    0    0  0.29761516501E+02  0.34262876587E+01 -0.20423333349E+02  0.36257411058E+02  0.00000000000E+00 0.  1.
</event>
<event>
12    1  0.1630640E-001  0.1942580E+03  0.7818608E-02  0.1154958E+00
         21   -1    0    0  503  502  0.00000000000E+00  0.00000000000E+00  0.31358360601E+02  0.31358360601E+02  0.00000000000E+00 0.  1.
         21   -1    0    0  501  503 -0.00000000000E+00 -0.00000000000E+00 -0.13548029830E+04  0.13548029830E+04  0.00000000000E+00 0.  1.
          6    2    1    2  501    0  0.19885092945E+02 -0.84900059120E+02 -0.89748257902E+03  0.91799490061E+03  0.17215173813E+03 0.  0.
         24    2    3    3    0    0  0.72873339148E+01 -0.99292144025E+02 -0.39642434398E+03  0.41654970865E+03  0.80307933447E+02 0.  0.
         -6    2    1    2    0  502 -0.19885092945E+02  0.84900059120E+02 -0.42596204335E+03  0.46816644296E+03  0.17358778465E+03 0.  0.
        -24    2    5    5    0    0  0.40103912512E+02  0.96804234465E+02 -0.31770984172E+03  0.34374369856E+03  0.78998754201E+02 0.  0.
          5    1    3    3  501    0  0.12597759031E+02  0.14392084905E+02 -0.50105823504E+03  0.50144519196E+03  0.47000000000E+01 0. -1.
        -11    1    4    4    0    0 -0.19260206774E+02 -0.95448868673E+02 -0.26279449197E+03  0.28025414735E+03  0.00000000000E+00 0.  1.
         12    1    4    4    0    0  0.26547540689E+02 -0.38432753520E+01 -0.13362985201E+03  0.13629556130E+03  0.00000000000E+00 0. -1.
         -5    1    5    5    0  502 -0.59989005458E+02 -0.11904175345E+02 -0.10825220162E+03  0.12442274439E+03  0.47000000000E+01 0.  1.
         13    1    6    6    0    0  0.43594117007E+01  0.48607567902E+01  0.37216024549E+01  0.75154342377E+01  0.00000000000E+00 0. -1.
        -14    1    6    6    0    0  0.35744500812E+02  0.91943477675E+02 -0.32143144418E+03  0.33622826433E+03  0.00000000000E+00 0.  1.
</event>
<event>
12    1  0.1630640E-001  0.2923739E+03  0.7818608E-02  0.1089324E+00
         21   -1    0    0  503  502  0.00000000000E+00  0.00000000000E+00  0.73669158893E+03  0.73669158893E+03  0.00000000000E+00 0. -1.
         21   -1    0    0  501  503 -0.00000000000E+00 -0.00000000000E+00 -0.16720873951E+03  0.16720873951E+03  0.00000000000E+00 0.  1.
          6    2    1    2  501    0  0.14573933556E+03  0.18611866548E+03  0.32631404262E+02  0.29259681860E+03  0.16931620755E+03 0.  0.
         24    2    3    3    0    0  0.14308040767E+03  0.18338385608E+03  0.68760926013E+02  0.25596375400E+03  0.81778583289E+02 0.  0.
         -6    2    1    2    0  502 -0.14573933556E+03 -0.18611866548E+03  0.53685144516E+03  0.61130350984E+03  0.17205346671E+03 0.  0.
        -24    2    5    5    0    0 -0.28899145383E+02 -0.54354708347E+02  0.27088230336E+03  0.29228149676E+03  0.90893652986E+02 0.  0.
          5    1    3    3  501    0  0.26589278918E+01  0.27348093980E+01 -0.36129521752E+02  0.36633064600E+02  0.47000000000E+01 0. -1.
        -11    1    4    4    0    0  0.31217457891E+02  0.77176817421E+02 -0.80629484545E+01  0.83640910816E+02  0.00000000000E+00 0.  1.
         12    1    4    4    0    0  0.11186294978E+03  0.10620703866E+03  0.76823874468E+02  0.17232284318E+03  0.00000000000E+00 0. -1.
         -5    1    5    5    0  502 -0.11684019018E+03 -0.13176395713E+03  0.26596914180E+03  0.31902201308E+03  0.47000000000E+01 0.  1.
         13    1    6    6    0    0 -0.32736200707E+02 -0.73538005678E+02  0.15395228209E+03  0.17372622795E+03  0.00000000000E+00 0. -1.
        -14    1    6    6    0    0  0.38370553237E+01  0.19183297331E+02  0.11693002127E+03  0.11855526881E+03  0.00000000000E+00 0.  1.
</event>
<event>
12    1  0.1630640E-001  0.1963627E+03  0.7818608E-02  0.1152891E+00
         21   -1    0    0  503  502  0.00000000000E+00  0.00000000000E+00  0.94300795476E+02  0.94300795476E+02  0.00000000000E+00 0. -1.
         21   -1    0    0  501  503 -0.00000000000E+00 -0.00000000000E+00 -0.10251369947E+04  0.10251369947E+04  0.00000000000E+00 0.  1.
          6    2    1    2  501    0 -0.76281060758E+02  0.57149896992E+02 -0.89964585316E+03  0.92082624724E+03  0.17167820343E+03 0.  0.
         24    2    3    3    0    0 -0.83116340028E+02 -0.47949561110E+01 -0.37587514797E+03  0.39334001283E+03  0.80640692273E+02 0.  0.
         -6    2    1    2    0  502  0.76281060758E+02 -0.57149896992E+02 -0.31190346071E+02  0.19861154295E+03  0.17143160837E+03 0.  0.
        -24    2    5    5    0    0  0.58573960755E+02  0.24200563853E+02  0.14990281608E+02  0.10329009078E+03  0.80172053371E+02 0.  0.
          5    1    3    3  501    0  0.68352792696E+01  0.61944853103E+02 -0.52377070520E+03  0.52748623441E+03  0.47000000000E+01 0. -1.
        -13    1    4    4    0    0 -0.53148695364E+02  0.44323979330E+01 -0.34581174555E+03  0.34990026198E+03  0.00000000000E+00 0.  1.
         14    1    4    4    0    0 -0.29967644664E+02 -0.92273540441E+01 -0.30063402415E+02  0.43439750853E+02  0.00000000000E+00 0. -1.
         -5    1    5    5    0  502  0.17707100003E+02 -0.81350460845E+02 -0.46180627679E+02  0.95321452166E+02  0.47000000000E+01 0.  1.
         11    1    6    6    0    0  0.16360337880E+01  0.71660021450E+01  0.38634842732E+02  0.39327843396E+02  0.00000000000E+00 0. -1.
        -12    1    6    6    0    0  0.56937926967E+02  0.17034561708E+02 -0.23644561124E+02  0.63962247386E+02  0.00000000000E+00 0.  1.
</event>
<event>
12    1  0.1630640E-001  0.1983253E+03  0.7818608E-02  0.1151559E+00
         21   -1    0    0  503  502  0.00000000000E+00  0.00000000000E+00  0.20568706865E+03  0.20568706865E+03  0.00000000000E+00 0.  1.
         21   -1    0    0  501  503 -0.00000000000E+00 -0.00000000000E+00 -0.21921989262E+03  0.21921989262E+03  0.00000000000E+00 0. -1.
          6    2    1    2  501    0 -0.71839234822E+02  0.68775022234E+02 -0.85102638617E+02  0.21581331849E+03  0.17158685846E+03 0.  0.
         24    2    3    3    0    0 -0.26641695812E+02 -0.57243870106E+01 -0.95911597688E+02  0.12788207770E+03  0.80076480094E+02 0.  0.
         -6    2    1    2    0  502  0.71839234822E+02 -0.68775022234E+02  0.71569814651E+02  0.20909364278E+03  0.16943150162E+03 0.  0.
        -24    2    5    5    0    0  0.26333120243E+02 -0.51455975432E+02 -0.22979888689E+02  0.10263946368E+03  0.81643331580E+02 0.  0.
          5    1    3    3  501    0 -0.45197539010E+02  0.74499409245E+02  0.10808959072E+02  0.87931240788E+02  0.47000000000E+01 0. -1.
        -11    1    4    4    0    0 -0.36185684581E+02  0.97044997825E+01 -0.82489104765E+01  0.38361772752E+02  0.00000000000E+00 0.  1.
         12    1    4    4    0    0  0.95439887696E+01 -0.15428886793E+02 -0.87662687212E+02  0.89520304951E+02  0.00000000000E+00 0. -1.
         -5    1    5    5    0  502  0.45506114579E+02 -0.17319046802E+02  0.94549703340E+02  0.10645417910E+03  0.47000000000E+01 0.  1.
         11    1    6    6    0    0  0.45700918201E+02 -0.62322509971E+02 -0.22238956783E+02  0.80419154262E+02  0.00000000000E+00 0. -1.
        -12    1    6    6    0    0 -0.19367797958E+02  0.10866534539E+02 -0.74093190587E+00  0.22220309420E+02  0.00000000000E+00 0.  1.
</event>
<event>
12    1  0.1630640E-001  0.2651330E+03  0.7818608E-02  0.1104101E+00
         21   -1    0    0  503  502  0.00000000000E+00  0.00000000000E+00  0.14886901584E+03  0.14886901584E+03  0.00000000000E+00 0.  1.
         21   -1    0    0  501  503 -0.00000000000E+00 -0.00000000000E+00 -0.57913484028E+03  0.57913484028E+03  0.00000000000E+00 0. -1.
          6    2    1    2  501    0  0.15007868529E+03  0.13385151520E+03 -0.37158817915E+03  0.45647922415E+03  0.17278792579E+03 0.  0.
         24    2    3    3    0    0  0.15404864737E+02  0.70188392295E+02 -0.20612273479E+03  0.23378900335E+03  0.83707801445E+02 0.  0.
         -6    2    1    2    0  502 -0.15007868529E+03 -0.13385151520E+03 -0.58677645288E+02  0.27152463198E+03  0.17275045532E+03 0.  0.
        -24    2    5    5    0    0 -0.45085315148E+02  0.24794989866E+01 -0.91266698401E+01  0.92395789045E+02  0.80092772293E+02 0.  0.
          5    1    3    3  501    0  0.13467382055E+03  0.63663122904E+02 -0.16546544436E+03  0.22269022079E+03  0.47000000000E+01 0. -1.
        -13    1    4    4    0    0 -0.25895726963E+02  0.34093941495E+02 -0.39065832770E+02  0.57957957276E+02  0.00000000000E+00 0.  1.
         14    1    4    4    0    0  0.41300591700E+02  0.36094450800E+02 -0.16705690202E+03  0.17583104608E+03  0.00000000000E+00 0. -1.
         -5    1    5    5    0  502 -0.10499337014E+03 -0.13633101419E+03 -0.49550975448E+02  0.17912884293E+03  0.47000000000E+01 0.  1.
         11    1    6    6    0    0 -0.39938417408E+02  0.21993612830E+02  0.25556830763E+02  0.52268037930E+02  0.00000000000E+00 0. -1.
        -12    1    6    6    0    0 -0.51468977402E+01 -0.19514113844E+02 -0.34683500603E+02  0.40127751115E+02  0.00000000000E+00 0.  1.
</event>
<event>
12    1  0.1630640E-001  0.2970257E+03  0.7818608E-02  0.1086737E+00
         21   -1    0    0  501  502  0.00000000000E+00  0.00000000000E+00  0.26001761771E+03  0.26001761771E+03  0.00000000000E+00 0. -1.
         21   -1    0    0  502  503 -0.00000000000E+00 -0.00000000000E+00 -0.48363789868E+03  0.48363789868E+03  0.00000000000E+00 0. -1.
         -6    2    1    2    0  503 -0.15196176911E+03 -0.18851608054E+03 -0.31493838491E+03  0.43290918645E+03  0.17202757201E+03 0.  0.
        -24    2    3    3    0    0 -0.11084275063E+03 -0.59684436765E+02 -0.22637908512E+03  0.27118965858E+03  0.80299398375E+02 0.  0.
          6    2    1    2  501    0  0.15196176911E+03  0.18851608054E+03  0.91318103943E+02  0.31074632994E+03  0.17202788604E+03 0.  0.
         24    2    5    5    0    0  0.93695755600E+02  0.40326988881E+02  0.78816958034E+02  0.15095489130E+03  0.78550020262E+02 0.  0.
          5    1    5    5  501    0  0.58266013510E+02  0.14818909165E+03  0.12501145910E+02  0.15979143865E+03  0.47000000000E+01 0. -1.
        -13    1    6    6    0    0 -0.60305540515E+01  0.26941688216E+02  0.11588915602E+02  0.29942029172E+02  0.00000000000E+00 0.  1.
         14    1    6    6    0    0  0.99726309651E+02  0.13385300665E+02  0.67228042432E+02  0.12101286213E+03  0.00000000000E+00 0. -1.
         -5    1    3    3    0  503 -0.41119018475E+02 -0.12883164377E+03 -0.88559299794E+02  0.16171952788E+03  0.47000000000E+01 0.  1.
         11    1    4    4    0    0 -0.52751652966E+02 -0.54480325066E+02 -0.65993215726E+02  0.10052834044E+03  0.00000000000E+00 0. -1.
        -12    1    4    4    0    0 -0.58091097668E+02 -0.52041116990E+01 -0.16038586939E+03  0.17066131813E+03  0.00000000000E+00 0.  1.
</event>
<event>
12    1  0.1630640E-001  0.2701496E+03  0.7818608E-02  0.1102187E+00
         21   -1    0    0  503  502  0.00000000000E+00  0.00000000000E+00  0.13512059826E+03  0.13512059826E+03  0.00000000000E+00 0.  1.
         21   -1    0    0  501  503 -0.00000000000E+00 -0.00000000000E+00 -0.60345454947E+03  0.60345454947E+03  0.00000000000E+00 0. -1.
          6    2    1    2  501    0 -0.12809188513E+03 -0.15281260881E+03 -0.36340279634E+03  0.44876248586E+03  0.17195043437E+03 0.  0.
         24    2    3    3    0    0 -0.56007888218E+02 -0.10818731719E+02 -0.10568954619E+03  0.14578299308E+03  0.82634571455E+02 0.  0.
         -6    2    1    2    0  502  0.12809188513E+03  0.15281260881E+03 -0.10493115487E+03  0.28981266187E+03  0.18226795459E+03 0.  0.
        -24    2    5    5    0    0  0.39736763098E+02  0.16100803315E+03 -0.49050686623E+02  0.18484357451E+03  0.65257797237E+02 0.  0.
          5    1    3    3  501    0 -0.72083996917E+02 -0.14199387709E+03 -0.25771325015E+03  0.30297949278E+03  0.47000000000E+01 0. -1.
        -11    1    4    4    0    0 -0.51407280554E+02 -0.38694337649E+02 -0.44048986010E+02  0.77976108062E+02  0.00000000000E+00 0.  1.
         12    1    4    4    0    0 -0.46006076647E+01  0.27875605930E+02 -0.61640560180E+02  0.67806885020E+02  0.00000000000E+00 0. -1.
         -5    1    5    5    0  502  0.88355122037E+02 -0.81954243391E+01 -0.55880468243E+02  0.10496908736E+03  0.47000000000E+01 0.  1.
         13    1    6    6    0    0  0.33096373854E+02  0.25958973608E+02 -0.36831975974E+01  0.42223266307E+02  0.00000000000E+00 0. -1.
        -14    1    6    6    0    0  0.66403892443E+01  0.13504905954E+03 -0.45367489025E+02  0.14262030820E+03  0.00000000000E+00 0.  1.
</event>
<event>
12    1  0.1630640E-001  0.2338497E+03  0.7818608E-02  0.1124343E+00
         21   -1    0    0  503  502  0.00000000000E+00  0.00000000000E+00  0.35806009398E+02  0.35806009398E+02  0.00000000000E+00 0. -1.
         21   -1    0    0  501  503 -0.00000000000E+00 -0.00000000000E+00 -0.15297689023E+04  0.15297689023E+04  0.00000000000E+00 0. -1.
          6    2    1    2  501    0  0.11049857345E+03  0.10981667828E+03 -0.66107757684E+03  0.70048322829E+03  0.17141631473E+03 0.  0.
         24    2    3    3    0    0  0.11729267904E+03  0.13885362074E+03 -0.52631337467E+03  0.56237897751E+03  0.78907828740E+02 0.  0.
         -6    2    1    2    0  502 -0.11049857345E+03 -0.10981667828E+03 -0.83288531606E+03  0.86509168341E+03  0.17440193068E+03 0.  0.
        -24    2    5    5    0    0 -0.10948590781E+03 -0.10857429815E+03 -0.45373287350E+03  0.48590672365E+03  0.80350988618E+02 0.  0.
          5    1    3    3  501    0 -0.67941055911E+01 -0.29036942463E+02 -0.13476420216E+03  0.13810425078E+03  0.47000000000E+01 0. -1.
        -11    1    4    4    0    0 -0.56821498789E+01  0.35132979508E+02 -0.12656120403E+03  0.13146996403E+03  0.00000000000E+00 0.  1.
         12    1    4    4    0    0  0.12297482892E+03  0.10372064123E+03 -0.39975217064E+03  0.43090901348E+03  0.00000000000E+00 0. -1.
         -5    1    5    5    0  502 -0.10126656344E+01 -0.12423801326E+01 -0.37915244256E+03  0.37918495975E+03  0.47000000000E+01 0.  1.
         13    1    6    6    0    0 -0.34004665853E+02 -0.64924611211E+02 -0.11693204382E+03  0.13800226561E+03  0.00000000000E+00 0. -1.
        -14    1    6    6    0    0 -0.75481241958E+02 -0.43649686936E+02 -0.33680082968E+03  0.34790445805E+03  0.00000000000E+00 0.  1.
</event>
<event>
12    1  0.1630640E-001  0.3312713E+03  0.7818608E-02  0.1070619E+00
         21   -1    0    0  501  502  0.00000000000E+00  0.00000000000E+00  0.21766876784E+03  0.21766876784E+03  0.00000000000E+00 0.  1.
         21   -1    0    0  502  503 -0.00000000000E+00 -0.00000000000E+00 -0.65734387077E+03  0.65734387077E+03  0.00000000000E+00 0.  1.
         -6    2    1    2    0  503  0.69119049121E+02  0.27466409417E+03 -0.43154542140E+03  0.54403321154E+03  0.17182222483E+03 0.  0.
        -24    2    3    3    0    0  0.87463856794E+02  0.68892349604E+02 -0.15788798440E+03  0.20112064884E+03  0.55900068803E+02 0.  0.
          6    2    1    2  501    0 -0.69119049121E+02 -0.27466409417E+03 -0.81296815259E+01  0.33097942707E+03  0.17106572376E+03 0.  0.
         24    2    5    5    0    0  0.15266336005E+02 -0.11508643317E+03 -0.35240053476E+02  0.14837880993E+03  0.85419328916E+02 0.  0.
          5    1    5    5  501    0 -0.84385385126E+02 -0.15957766101E+03  0.27110371950E+02  0.18260061715E+03  0.47000000000E+01 0. -1.
        -11    1    6    6    0    0 -0.18839557582E+02 -0.34369333162E+02  0.20793292112E+02  0.44368243020E+02  0.00000000000E+00 0.  1.
         12    1    6    6    0    0  0.34105893587E+02 -0.80717100005E+02 -0.56033345588E+02  0.10401056691E+03  0.00000000000E+00 0. -1.
         -5    1    3    3    0  503 -0.18344807674E+02  0.20577174457E+03 -0.27365743700E+03  0.34291256270E+03  0.47000000000E+01 0.  1.
         13    1    4    4    0    0  0.71780575956E+02  0.24040370414E+02 -0.82127717389E+02  0.11169311732E+03  0.00000000000E+00 0. -1.
        -14    1    4    4    0    0  0.15683280839E+02  0.44851979190E+02 -0.75760267014E+02  0.89427531516E+02  0.00000000000E+00 0.  1.
</event>
<event>
12    1  0.1630640E-001  0.2125829E+03  0.7818608E-02  0.1139938E+00
         21   -1    0    0  501  502  0.00000000000E+00  0.00000000000E+00  0.85532929386E+02  0.85532929386E+02  0.00000000000E+00 0. -1.
         21   -1    0    0  502  503 -0.00000000000E+00 -0.00000000000E+00 -0.60666896275E+03  0.60666896275E+03  0.00000000000E+00 0. -1.
         -6    2    1    2    0  503  0.89255379178E+02  0.86291846292E+02 -0.38997540909E+03  0.44415347093E+03  0.17256500399E+03 0.  0.
        -24    2    3    3    0    0  0.82339132514E+02  0.11617113530E+03 -0.23831518301E+03  0.28935191876E+03  0.81577821860E+02 0.  0.
          6    2    1    2  501    0 -0.89255379178E+02 -0.86291846292E+02 -0.13116062428E+03  0.24804842120E+03  0.17003559760E+03 0.  0.
         24    2    5    5    0    0 -0.46793966641E+02 -0.97759933348E+02 -0.14900633384E+03  0.20035095874E+03  0.78682521975E+02 0.  0.
          5    1    5    5  501    0 -0.42461412536E+02  0.11468087056E+02  0.17845709559E+02  0.47697462458E+02  0.47000000000E+01 0. -1.
        -11    1    6    6    0    0 -0.57862538006E+02 -0.41668741352E+02 -0.11018202886E+03  0.13124190183E+03  0.00000000000E+00 0.  1.
         12    1    6    6    0    0  0.11068571365E+02 -0.56091191996E+02 -0.38824304973E+02  0.69109056919E+02  0.00000000000E+00 0. -1.
         -5    1    3    3    0  503  0.69162466637E+01 -0.29879289010E+02 -0.15166022608E+03  0.15480155217E+03  0.47000000000E+01 0.  1.
         13    1    4    4    0    0 -0.11062400924E+02  0.33163001905E+01 -0.46967084832E+02  0.48366120568E+02  0.00000000000E+00 0. -1.
        -14    1    4    4    0    0  0.93401533438E+02  0.11285483511E+03 -0.19134809818E+03  0.24098579820E+03  0.00000000000E+00 0.  1.
</event>
<event>
12    1  0.1630640E-001  0.2473038E+03  0.7818608E-02  0.1115183E+00
         21   -1    0    0  501  502  0.00000000000E+00  0.00000000000E+00  0.88910553811E+03  0.88910553811E+03  0.00000000000E+00 0.  1.
         21   -1    0    0  502  503 -0.00000000000E+00 -0.00000000000E+00 -0.13512375964E+03  0.13512375964E+03  0.00000000000E+00 0. -1.
         -6    2    1    2    0  503 -0.33101049295E+02 -0.17467588738E+03  0.17021330238E+02  0.24688132776E+03  0.17045034237E+03 0.  0.
        -24    2    3    3    0    0  0.33577239519E+02 -0.46402688448E+02  0.26729268901E+02  0.10191118656E+03  0.79942451939E+02 0.  0.
          6    2    1    2  501    0  0.33101049295E+02  0.17467588738E+03  0.73696044823E+03  0.77734796999E+03  0.17190642541E+03 0.  0.
         24    2    5    5    0    0 -0.35013700222E+02  0.79021466349E+02  0.48337016558E+03  0.49784929590E+03  0.82078335187E+02 0.  0.
          5    1    5    5  501    0  0.68114749516E+02  0.95654421033E+02  0.25359028265E+03  0.27949867409E+03  0.47000000000E+01 0. -1.
        -13    1    6    6    0    0  0.18432698477E+02  0.12694482146E+02  0.21793625498E+03  0.21908246275E+03  0.00000000000E+00 0.  1.
         14    1    6    6    0    0 -0.53446398699E+02  0.66326984203E+02  0.26543391060E+03  0.27876683315E+03  0.00000000000E+00 0. -1.
         -5    1    3    3    0  503 -0.66678288813E+02 -0.12827319893E+03 -0.97079386636E+01  0.14497014119E+03  0.47000000000E+01 0.  1.
         11    1    4    4    0    0  0.61801620447E+01 -0.44765157183E+02 -0.18642437126E+02  0.48884089052E+02  0.00000000000E+00 0. -1.
        -12    1    4    4    0    0  0.27397077474E+02 -0.16375312655E+01  0.45371706027E+02  0.53027097512E+02  0.00000000000E+00 0.  1.
</event>
<event>
12    1  0.1630640E-001  0.1830704E+03  0.7818608E-02  0.1165082E+00
         21   -1    0    0  501  502  0.00000000000E+00  0.00000000000E+00  0.66942368310E+02  0.66942368310E+02  0.00000000000E+00 0. -1.
         21   -1    0    0  502  503 -0.00000000000E+00 -0.00000000000E+00 -0.10114858679E+04  0.10114858679E+04  0.00000000000E+00 0. -1.
         -6    2    1    2    0  503 -0.56574574529E+02  0.26076241817E+02 -0.85699122231E+03  0.87632684071E+03  0.17214564696E+03 0.  0.
        -24    2    3    3    0    0 -0.75341986907E+02  0.15184943086E+02 -0.84278085902E+03  0.84996663244E+03  0.79099320092E+02 0.  0.
          6    2    1    2  501    0  0.56574574529E+02 -0.26076241817E+02 -0.87552277244E+02  0.20210139546E+03  0.17116927273E+03 0.  0.
         24    2    5    5    0    0  0.53405333261E+02  0.48246175484E+02 -0.13561191971E+02  0.97074558397E+02  0.63716096011E+02 0.  0.
          5    1    5    5  501    0  0.31692412682E+01 -0.74322417301E+02 -0.73991085273E+02  0.10502683706E+03  0.47000000000E+01 0. -1.
        -13    1    6    6    0    0  0.21515820227E+02  0.38249182090E+02 -0.36049105797E+02  0.56793208039E+02  0.00000000000E+00 0.  1.
         14    1    6    6    0    0  0.31889513034E+02  0.99969933940E+01  0.22487913826E+02  0.40281350358E+02  0.00000000000E+00 0. -1.
         -5    1    3    3    0  503  0.18767412378E+02  0.10891298731E+02 -0.14210363286E+02  0.26360208272E+02  0.47000000000E+01 0.  1.
         13    1    4    4    0    0 -0.54927196757E+02 -0.26535608769E+02 -0.38057077525E+03  0.38542865805E+03  0.00000000000E+00 0. -1.
        -14    1    4    4    0    0 -0.20414790150E+02  0.41720551854E+02 -0.46221008378E+03  0.46453797439E+03  0.00000000000E+00 0.  1.
</event>
<event>
12    1  0.1630640E-001  0.2202930E+03  0.7818608E-02  0.1134726E+00
         21   -1    0    0  503  502  0.00000000000E+00  0.00000000000E+00  0.62521898188E+03  0.62521898188E+03  0.00000000000E+00 0. -1.
         21   -1    0    0  501  503 -0.00000000000E+00 -0.00000000000E+00 -0.82910645257E+02  0.82910645257E+02  0.00000000000E+00 0.  1.
          6    2    1    2  501    0 -0.76423792704E+02 -0.11505727500E+03  0.16958806793E+03  0.27800923724E+03  0.17161075311E+03 0.  0.
         24    2    3    3    0    0 -0.10689918968E+03 -0.47106142915E+02  0.13328671193E+03  0.19502740417E+03  0.81387439719E+02 0.  0.
         -6    2    1    2    0  502  0.76423792704E+02  0.11505727500E+03  0.37272026870E+03  0.43012038990E+03  0.16433009004E+03 0.  0.
        -24    2    5    5    0    0  0.20014424470E+01  0.82256406746E+02  0.30344041246E+03  0.32317941714E+03  0.74824658538E+02 0.  0.
          5    1    3    3  501    0  0.30475396976E+02 -0.67951132084E+02  0.36301356000E+02  0.82981833071E+02  0.47000000000E+01 0. -1.
        -13    1    4    4    0    0 -0.48154915365E+02 -0.17202653262E+02  0.57430353399E+01  0.51456871339E+02  0.00000000000E+00 0.  1.
         14    1    4    4    0    0 -0.58744274316E+02 -0.29903489653E+02  0.12754367659E+03  0.14357053283E+03  0.00000000000E+00 0. -1.
         -5    1    5    5    0  502  0.74422350257E+02  0.32800868253E+02  0.69279856236E+02  0.10694097277E+03  0.47000000000E+01 0.  1.
         13    1    6    6    0    0  0.30228220343E+02  0.73713138716E+01  0.90293502798E+02  0.95503917307E+02  0.00000000000E+00 0. -1.
        -14    1    6    6    0    0 -0.28226777896E+02  0.74885092875E+02  0.21314690966E+03  0.22767549983E+03  0.00000000000E+00 0.  1.
</event>
<event>
12    1  0.1630640E-001  0.1722270E+03  0.7818608E-02  0.1175556E+00
         21   -1    0    0  501  502  0.00000000000E+00  0.00000000000E+00  0.19838424561E+02  0.19838424561E+02  0.00000000000E+00 0. -1.
         21   -1    0    0  502  503 -0.00000000000E+00 -0.00000000000E+00 -0.19484847151E+04  0.19484847151E+04  0.00000000000E+00 0. -1.
         -6    2    1    2    0  503  0.85799333970E-01  0.61985851132E+01 -0.14391164849E+04  0.14493803809E+04  0.17207208311E+03 0.  0.
        -24    2    3    3    0    0 -0.23889464367E+02 -0.56654844752E+02 -0.97706766631E+03  0.98243652173E+03  0.82096386856E+02 0.  0.
          6    2    1    2  501    0 -0.85799333970E-01 -0.61985851132E+01 -0.48952980565E+03  0.51894275871E+03  0.17211544492E+03 0.  0.
         24    2    5    5    0    0 -0.65566971814E+02  0.62940222495E+01 -0.32727215276E+03  0.34346203296E+03  0.80749387647E+02 0.  0.
          5    1    5    5  501    0  0.65481172480E+02 -0.12492607363E+02 -0.16225765289E+03  0.17548072575E+03  0.47000000000E+01 0. -1.
        -11    1    6    6    0    0 -0.68657574798E+02 -0.17757730836E+02 -0.29311763950E+03  0.30157445211E+03  0.00000000000E+00 0.  1.
         12    1    6    6    0    0  0.30906029846E+01  0.24051753085E+02 -0.34154513259E+02  0.41887580848E+02  0.00000000000E+00 0. -1.
         -5    1    3    3    0  503  0.23975263700E+02  0.62853429865E+02 -0.46204881858E+03  0.46694385922E+03  0.47000000000E+01 0.  1.
         11    1    4    4    0    0 -0.39874982664E+02 -0.37667982720E+02 -0.30385671011E+03  0.30876818399E+03  0.00000000000E+00 0. -1.
        -12    1    4    4    0    0  0.15985518297E+02 -0.18986862031E+02 -0.67321095620E+03  0.67366833774E+03  0.00000000000E+00 0.  1.
</event>
<event>
12    1  0.1630640E-001  0.1776199E+03  0.7818608E-02  0.1172237E+00
         21   -1    0    0  501  502  0.00000000000E+00  0.00000000000E+00  0.33903190718E+02  0.33903190718E+02  0.00000000000E+00 0.  1.
         21   -1    0    0  502  503 -0.00000000000E+00 -0.00000000000E+00 -0.26580234686E+04  0.26580234686E+04  0.00000000000E+00 0.  1.
         -6    2    1    2    0  503 -0.31942864105E+02 -0.19417618081E+02 -0.24210735055E+04  0.24275802229E+04  0.17364166861E+03 0.  0.
        -24    2    3    3    0    0 -0.35947910744E+02 -0.61381917687E+02 -0.97050023838E+03  0.97638694282E+03  0.80004733032E+02 0.  0.
          6    2    1    2  501    0  0.31942864105E+02  0.19417618081E+02 -0.20304677239E+03  0.26434643644E+03  0.16508681419E+03 0.  0.
         24    2    5    5    0    0  0.19921202415E+02 -0.14977807569E+02 -0.31310211134E+02  0.88724393037E+02  0.79186486052E+02 0.  0.
          5    1    5    5  501    0  0.12021661690E+02  0.34395425649E+02 -0.17173656126E+03  0.17562204340E+03  0.47000000000E+01 0. -1.
        -13    1    6    6    0    0  0.44010556205E+01  0.22348176183E+02 -0.41227919382E+02  0.47101503223E+02  0.00000000000E+00 0.  1.
         14    1    6    6    0    0  0.15520146794E+02 -0.37325983751E+02  0.99177082490E+01  0.41622889814E+02  0.00000000000E+00 0. -1.
         -5    1    3    3    0  503  0.40050466388E+01  0.41964299606E+02 -0.14505732671E+04  0.14511932801E+04  0.47000000000E+01 0.  1.
         11    1    4    4    0    0  0.13364949734E+02 -0.39210564339E+02 -0.21500388423E+03  0.21895835328E+03  0.00000000000E+00 0. -1.
        -12    1    4    4    0    0 -0.49312860478E+02 -0.22171353348E+02 -0.75549635415E+03  0.75742858954E+03  0.00000000000E+00 0.  1.
</event>
<event>
12    1  0.1630640E-001  0.1948214E+03  0.7818608E-02  0.1154259E+00
         21   -1    0    0  501  502  0.00000000000E+00  0.00000000000E+00  0.77866790319E+02  0.77866790319E+02  0.00000000000E+00 0. -1.
         21   -1    0    0  502  503 -0.00000000000E+00 -0.00000000000E+00 -0.49896811574E+03  0.49896811574E+03  0.00000000000E+00 0. -1.
         -6    2    1    2    0  503  0.59035771789E+02 -0.69375248973E+02 -0.25582466029E+03  0.32135151279E+03  0.17182080909E+03 0.  0.
        -24    2    3    3    0    0 -0.24587703815E+01  0.22455480791E+02 -0.12467090453E+03  0.14977686637E+03  0.79874783829E+02 0.  0.
          6    2    1    2  501    0 -0.59035771789E+02  0.69375248973E+02 -0.16527666513E+03  0.25548339327E+03  0.17221277734E+03 0.  0.
         24    2    5    5    0    0 -0.24463918888E+02  0.11165077129E+03 -0.11249423005E+03  0.17938800410E+03  0.80378642450E+02 0.  0.
          5    1    5    5  501    0 -0.34571852900E+02 -0.42275522321E+02 -0.52782435082E+02  0.76095389175E+02  0.47000000000E+01 0. -1.
        -11    1    6    6    0    0  0.27627870257E+02  0.40748883844E+02 -0.24639335092E+02  0.55053315824E+02  0.00000000000E+00 0.  1.
         12    1    6    6    0    0 -0.52091789145E+02  0.70901887450E+02 -0.87854894957E+02  0.12433468827E+03  0.00000000000E+00 0. -1.
         -5    1    3    3    0  503  0.61494542170E+02 -0.91830729763E+02 -0.13115375576E+03  0.17157464642E+03  0.47000000000E+01 0.  1.
         11    1    4    4    0    0  0.35104048327E+02  0.78910147606E+01 -0.88883391360E+02  0.95889621871E+02  0.00000000000E+00 0. -1.
        -12    1    4    4    0    0 -0.37562818709E+02  0.14564466030E+02 -0.35787513175E+02  0.53887244495E+02  0.00000000000E+00 0.  1.
</event>
<event>
12    1  0.1630640E-001  0.1899847E+03  0.7818608E-02  0.1159876E+00
         21   -1    0    0  503  502  0.00000000000E+00  0.00000000000E+00  0.46282721521E+02  0.46282721521E+02  0.00000000000E+00 0. -1.
         21   -1    0    0  501  503 -0.00000000000E+00 -0.00000000000E+00 -0.10919320299E+04  0.10919320299E+04  0.00000000000E+00 0. -1.
          6    2    1    2  501    0 -0.62169864476E+02  0.15070693879E+02 -0.84482873019E+03  0.86592711576E+03  0.17889094049E+03 0.  0.
         24    2    3    3    0    0  0.65063328435E+01 -0.13726166826E+02 -0.68039148836E+03  0.68535199077E+03  0.80895202550E+02 0.  0.
         -6    2    1    2    0  502  0.62169864476E+02 -0.15070693879E+02 -0.20082057815E+03  0.27228763562E+03  0.17239325405E+03 0.  0.
        -24    2    5    5    0    0  0.68127199002E+02 -0.16360830196E+02 -0.22536530204E+03  0.24656434351E+03  0.71382519721E+02 0.  0.
          5    1    3    3  501    0 -0.68676197319E+02  0.28796860704E+02 -0.16443724183E+03  0.18057512499E+03  0.47000000000E+01 0. -1.
        -13    1    4    4    0    0  0.19447558908E+02  0.89537547551E+01 -0.49639886364E+02  0.54060110894E+02  0.00000000000E+00 0.  1.
         14    1    4    4    0    0 -0.12941226065E+02 -0.22679921581E+02 -0.63075160199E+03  0.63129187987E+03  0.00000000000E+00 0. -1.
         -5    1    5    5    0  502 -0.59573345257E+01  0.12901363169E+01  0.24544723886E+02  0.25723292110E+02  0.47000000000E+01 0.  1.
         11    1    6    6    0    0  0.65483519929E+02 -0.24506072844E+02 -0.10655911380E+03  0.12744992633E+03  0.00000000000E+00 0. -1.
        -12    1    6    6    0    0  0.26436790723E+01  0.81452426485E+01 -0.11880618824E+03  0.11911441718E+03  0.00000000000E+00 0.  1.
</event>
<event>
12    1  0.1630640E-001  0.1811933E+03  0.7818608E-02  0.1166752E+00
         21   -1    0    0  501  502  0.00000000000E+00  0.00000000000E+00  0.42242106249E+02  0.42242106249E+02  0.00000000000E+00 0.  1.
         21   -1    0    0  502  503 -0.00000000000E+00 -0.00000000000E+00 -0.10309464366E+04  0.10309464366E+04  0.00000000000E+00 0.  1.
         -6    2    1    2    0  503 -0.48729071822E+02  0.24606358392E+02 -0.76106084088E+03  0.78223742582E+03  0.17234207705E+03 0.  0.
        -24    2    3    3    0    0  0.39181076925E+02  0.27479779085E+02 -0.35087064718E+03  0.36269656273E+03  0.78411035665E+02 0.  0.
          6    2    1    2  501    0  0.48729071822E+02 -0.24606358392E+02 -0.22764348945E+03  0.29095111700E+03  0.17277441617E+03 0.  0.
         24    2    5    5    0    0 -0.15649214382E+02 -0.50595438073E+02 -0.43417078479E+02  0.94021036782E+02  0.64421396983E+02 0.  0.
          5    1    5    5  501    0  0.64378286204E+02  0.25989079681E+02 -0.18422641097E+03  0.19693008022E+03  0.47000000000E+01 0. -1.
        -13    1    6    6    0    0 -0.15913876748E+02 -0.52656288706E+02 -0.46569789962E+01  0.55205286584E+02  0.00000000000E+00 0.  1.
         14    1    6    6    0    0  0.26466236602E+00  0.20608506329E+01 -0.38760099483E+02  0.38815750198E+02  0.00000000000E+00 0. -1.
         -5    1    3    3    0  503 -0.87910148747E+02 -0.28734206927E+01 -0.41019019369E+03  0.41954086309E+03  0.47000000000E+01 0.  1.
         11    1    4    4    0    0  0.34965986939E+02  0.75238183614E+01 -0.51896919946E+02  0.63027917506E+02  0.00000000000E+00 0. -1.
        -12    1    4    4    0    0  0.42150899858E+01  0.19955960724E+02 -0.29897372724E+03  0.29966864522E+03  0.00000000000E+00 0.  1.
</event>
<event>
12    1  0.1630640E-001  0.2706139E+03  0.7818608E-02  0.1101119E+00
         21   -1    0    0  503  502  0.00000000000E+00  0.00000000000E+00  0.17216638082E+03  0.17216638082E+03  0.00000000000E+00 0.  1.
         21   -1    0    0  501  503 -0.00000000000E+00 -0.00000000000E+00 -0.74778866422E+03  0.74778866422E+03  0.00000000000E+00 0.  1.
          6    2    1    2  501    0  0.13238423881E+03  0.15949246439E+03 -0.59122923931E+03  0.65021835657E+03  0.17397834612E+03 0.  0.
         24    2    3    3    0    0  0.21028749179E+01  0.98036595683E+02 -0.25088154611E+03  0.28061221505E+03  0.78651566312E+02 0.  0.
         -6    2    1    2    0  502 -0.13238423881E+03 -0.15949246439E+03  0.15606955919E+02  0.26973668847E+03  0.17190366822E+03 0.  0.
        -24    2    5    5    0    0 -0.16014493395E+03 -0.15360410952E+03  0.29847014609E+02  0.23763998787E+03  0.79632262455E+02 0.  0.
          5    1    3    3  501    0  0.13028136390E+03  0.61455868711E+02 -0.34034769320E+03  0.36960614152E+03  0.47000000000E+01 0. -1.
        -11    1    4    4    0    0 -0.24371210631E+02  0.48627800039E+02 -0.19097537743E+03  0.19857042486E+03  0.00000000000E+00 0.  1.
         12    1    4    4    0    0  0.26474085549E+02  0.49408795644E+02 -0.59906168681E+02  0.82041790197E+02  0.00000000000E+00 0. -1.
         -5    1    5    5    0  502  0.27760695139E+02 -0.58883548758E+01 -0.14240058690E+02  0.32096700597E+02  0.47000000000E+01 0. -1.
         13    1    6    6    0    0 -0.76048555694E+02 -0.63361967289E+02 -0.25836176599E+02  0.10230166051E+03  0.00000000000E+00 0. -1.
        -14    1    6    6    0    0 -0.84096378259E+02 -0.90242142229E+02  0.55683191208E+02  0.13533832736E+03  0.00000000000E+00 0.  1.
</event>
<event>
12    1  0.1630640E-001  0.2254379E+03  0.7818608E-02  0.1130358E+00
         21   -1    0    0  503  502  0.00000000000E+00  0.00000000000E+00  0.16630427902E+03  0.16630427902E+03  0.00000000000E+00 0.  1.
         21   -1    0    0  501  503 -0.00000000000E+00 -0.00000000000E+00 -0.38648009032E+03  0.38648009032E+03  0.00000000000E+00 0. -1.
          6    2    1    2  501    0 -0.11822539797E+03 -0.80844445686E+02 -0.23969818401E+03  0.32905541586E+03  0.17409531347E+03 0.  0.
         24    2    3    3    0    0 -0.13766007709E+03 -0.55521237130E+02 -0.12472716359E+03  0.20964269804E+03  0.79751431995E+02 0.  0.
         -6    2    1    2    0  502  0.11822539797E+03  0.80844445686E+02  0.19522372711E+02  0.22372895348E+03  0.17076431848E+03 0.  0.
        -24    2    5    5    0    0  0.76458652619E+02  0.13207681368E+02  0.68793036856E+02  0.13008664867E+03  0.78547347728E+02 0.  0.
          5    1    3    3  501    0  0.19434679121E+02 -0.25323208556E+02 -0.11497102041E+03  0.11941271783E+03  0.47000000000E+01 0. -1.
        -13    1    4    4    0    0 -0.32964681982E+02  0.12786968701E+02 -0.35392230848E+01  0.35534531470E+02  0.00000000000E+00 0.  1.
         14    1    4    4    0    0 -0.10469539511E+03 -0.68308205831E+02 -0.12118794051E+03  0.17410816657E+03  0.00000000000E+00 0. -1.
         -5    1    5    5    0  502  0.41766745349E+02  0.67636764318E+02 -0.49270664145E+02  0.93642304808E+02  0.47000000000E+01 0.  1.
         11    1    6    6    0    0 -0.11344235838E+02  0.10708277686E+02  0.30512584436E+02  0.34269180129E+02  0.00000000000E+00 0. -1.
        -12    1    6    6    0    0  0.87802888458E+02  0.24994036821E+01  0.38280452420E+02  0.95817468542E+02  0.00000000000E+00 0.  1.
</event>
<event>
12    1  0.1630640E-001  0.3172174E+03  0.7818608E-02  0.1077134E+00
         21   -1    0    0  503  502  0.00000000000E+00  0.00000000000E+00  0.42732019951E+03  0.42732019951E+03  0.00000000000E+00 0.  1.
         21   -1    0    0  501  503 -0.00000000000E+00 -0.00000000000E+00 -0.44660037259E+03  0.44660037259E+03  0.00000000000E+00 0. -1.
          6    2    1    2  501    0 -0.64114750010E+02  0.25826164352E+03 -0.31094647501E+03  0.44299585903E+03  0.16955188915E+03 0.  0.
         24    2    3    3    0    0 -0.10018302466E+03  0.18214000889E+03 -0.17761605077E+03  0.28521589920E+03  0.81172818115E+02 0.  0.
         -6    2    1    2    0  502  0.64114750010E+02 -0.25826164352E+03  0.29166630192E+03  0.43092471307E+03  0.17267628378E+03 0.  0.
        -24    2    5    5    0    0  0.83123896360E+02 -0.25498562059E+03  0.22126254454E+03  0.35777514695E+03  0.84372349162E+02 0.  0.
          5    1    3    3  501    0  0.36068274646E+02  0.76121634633E+02 -0.13333042424E+03  0.15777995982E+03  0.47000000000E+01 0. -1.
        -11    1    4    4    0    0 -0.58708952955E+02  0.33826090375E+02 -0.39988893287E+02  0.78676916141E+02  0.00000000000E+00 0.  1.
         12    1    4    4    0    0 -0.41474071702E+02  0.14831391851E+03 -0.13762715748E+03  0.20653898306E+03  0.00000000000E+00 0. -1.
         -5    1    5    5    0  502 -0.19009146350E+02 -0.32760229269E+01  0.70403757377E+02  0.73149566123E+02  0.47000000000E+01 0.  1.
         13    1    6    6    0    0  0.77547075647E+02 -0.21615396266E+03  0.14381653491E+03  0.27095992366E+03  0.00000000000E+00 0. -1.
        -14    1    6    6    0    0  0.55768207130E+01 -0.38831657929E+02  0.77446009635E+02  0.86815223291E+02  0.00000000000E+00 0.  1.
</event>
<event>
12    1  0.1630640E-001  0.2532456E+03  0.7818608E-02  0.1111730E+00
         21   -1    0    0  501  502  0.00000000000E+00  0.00000000000E+00  0.33674440718E+03  0.33674440718E+03  0.00000000000E+00 0.  1.
         21   -1    0    0  502  503 -0.00000000000E+00 -0.00000000000E+00 -0.18826982631E+03  0.18826982631E+03  0.00000000000E+00 0.  1.
         -6    2    1    2    0  503 -0.55017432214E+02  0.17330555392E+03  0.71766101914E+02  0.26321800157E+03  0.17627141033E+03 0.  0.
        -24    2    3    3    0    0 -0.89890536942E+02  0.65032168389E+02  0.15785333184E+02  0.13635115832E+03  0.77672196281E+02 0.  0.
          6    2    1    2  501    0  0.55017432214E+02 -0.17330555392E+03  0.76708478959E+02  0.26179623192E+03  0.17202134588E+03 0.  0.
         24    2    5    5    0    0  0.40287646363E+02 -0.12725230251E+03  0.12609609189E+03  0.19252073216E+03  0.57859873630E+02 0.  0.
          5    1    5    5  501    0  0.14729785852E+02 -0.46053251410E+02 -0.49387612931E+02  0.69275499765E+02  0.47000000000E+01 0. -1.
        -13    1    6    6    0    0  0.21588657911E+02 -0.13767180610E+02  0.45053115170E+02  0.51820735221E+02  0.00000000000E+00 0.  1.
         14    1    6    6    0    0  0.18698988452E+02 -0.11348512190E+03  0.81042976720E+02  0.14069999694E+03  0.00000000000E+00 0. -1.
         -5    1    3    3    0  503  0.34873104727E+02  0.10827338553E+03  0.55980768730E+02  0.12686684325E+03  0.47000000000E+01 0.  1.
         13    1    4    4    0    0 -0.16041993885E+02  0.12220477854E+02  0.37878635111E+02  0.42912429955E+02  0.00000000000E+00 0. -1.
        -14    1    4    4    0    0 -0.73848543057E+02  0.52811690535E+02 -0.22093301927E+02  0.93438728367E+02  0.00000000000E+00 0.  1.
</event>
<event>
12    1  0.1630640E-001  0.2101246E+03  0.7818608E-02  0.1141726E+00
         21   -1    0    0  501  502  0.00000000000E+00  0.00000000000E+00  0.16456583474E+03  0.16456583474E+03  0.00000000000E+00 0.  1.
         21   -1    0    0  502  503 -0.00000000000E+00 -0.00000000000E+00 -0.33098243165E+03  0.33098243165E+03  0.00000000000E+00 0.  1.
         -6    2    1    2    0  503  0.11946903281E+03 -0.93491699473E+01 -0.19266734800E+03  0.28508427535E+03  0.17260382467E+03 0.  0.
        -24    2    3    3    0    0  0.38494053307E+02  0.56480656259E+00 -0.14655987494E+02  0.89213479409E+02  0.79133657772E+02 0.  0.
          6    2    1    2  501    0 -0.11946903281E+03  0.93491699473E+01  0.26250751084E+02  0.21046399104E+03  0.17101383808E+03 0.  0.
         24    2    5    5    0    0 -0.79097140476E+02  0.36990703461E+02 -0.43006193664E+02  0.12553720810E+03  0.79280439894E+02 0.  0.
          5    1    5    5  501    0 -0.40371892331E+02 -0.27641533514E+02  0.69256944748E+02  0.84926782944E+02  0.47000000000E+01 0. -1.
        -11    1    6    6    0    0 -0.41674393036E+02  0.32328503252E+02  0.16345030814E+02  0.55218178073E+02  0.00000000000E+00 0.  1.
         12    1    6    6    0    0 -0.37422747440E+02  0.46622002094E+01 -0.59351224478E+02  0.70319030026E+02  0.00000000000E+00 0. -1.
         -5    1    3    3    0  503  0.80974979499E+02 -0.99139765099E+01 -0.17801136050E+03  0.19587079594E+03  0.47000000000E+01 0.  1.
         11    1    4    4    0    0 -0.18574440235E+01 -0.34353758263E+02 -0.25720668437E+01  0.34499946855E+02  0.00000000000E+00 0. -1.
        -12    1    4    4    0    0  0.40351497331E+02  0.34918564826E+02 -0.12083920650E+02  0.54713532555E+02  0.00000000000E+00 0.  1.
</event>
<event>
12    1  0.1630640E-001  0.2199612E+03  0.7818608E-02  0.1134245E+00
         21   -1    0    0  503  502  0.00000000000E+00  0.00000000000E+00  0.27464953798E+03  0.27464953798E+03  0.00000000000E+00 0. -1.
         21   -1    0    0  501  503 -0.00000000000E+00 -0.00000000000E+00 -0.17934402004E+03  0.17934402004E+03  0.00000000000E+00 0. -1.
          6    2    1    2  501    0 -0.23820262224E+02 -0.13471918458E+03  0.11468432528E+02  0.22025994273E+03  0.17223894403E+03 0.  0.
         24    2    3    3    0    0 -0.64854576920E+02 -0.52356042929E+02 -0.23668458891E+02  0.12164861872E+03  0.85386879038E+02 0.  0.
         -6    2    1    2    0  502  0.23820262224E+02  0.13471918458E+03  0.83837085413E+02  0.23373361528E+03  0.16995906106E+03 0.  0.
        -24    2    5    5    0    0  0.63046962655E+02  0.33924275977E+02  0.14025090239E+02  0.10491532350E+03  0.75397254255E+02 0.  0.
          5    1    3    3  501    0  0.41034314696E+02 -0.82363141649E+02  0.35136891419E+02  0.98611324012E+02  0.47000000000E+01 0. -1.
        -11    1    4    4    0    0 -0.84588564938E+01 -0.30129159703E+02  0.28005028048E+02  0.41995239177E+02  0.00000000000E+00 0.  1.
         12    1    4    4    0    0 -0.56395720426E+02 -0.22226883226E+02 -0.51673486939E+02  0.79653379543E+02  0.00000000000E+00 0. -1.
         -5    1    5    5    0  502 -0.39226700431E+02  0.10079490860E+03  0.69811995174E+02  0.12881829178E+03  0.47000000000E+01 0.  1.
         11    1    6    6    0    0  0.78623136999E+02  0.36800513678E+02  0.56379258153E+01  0.86992308200E+02  0.00000000000E+00 0. -1.
        -12    1    6    6    0    0 -0.15576174344E+02 -0.28762377004E+01  0.83871644237E+01  0.17923015304E+02  0.00000000000E+00 0.  1.
</event>
<event>
12    1  0.1630640E-001  0.2223683E+03  0.7818608E-02  0.1132282E+00
         21   -1    0    0  503  502  0.00000000000E+00  0.00000000000E+00  0.52789286876E+02  0.52789286876E+02  0.00000000000E+00 0.  1.
         21   -1    0    0  501  503 -0.00000000000E+00 -0.00000000000E+00 -0.99645985183E+03  0.99645985183E+03  0.00000000000E+00 0.  1.
          6    2    1    2  501    0  0.12711297250E+03 -0.59651276293E+02 -0.34048728298E+03  0.40666847727E+03  0.17242876210E+03 0.  0.
         24    2    3    3    0    0  0.15805548944E+03 -0.65935632542E+02 -0.27893991643E+03  0.33733521817E+03  0.81599798173E+02 0.  0.
         -6    2    1    2    0  502 -0.12711297250E+03  0.59651276293E+02 -0.60318328198E+03  0.64258066143E+03  0.17135884059E+03 0.  0.
        -24    2    5    5    0    0  0.27306772103E+01  0.27962532591E+02 -0.28755834318E+03  0.29979101480E+03  0.79971820010E+02 0.  0.
          5    1    3    3  501    0 -0.30942516943E+02  0.62843562482E+01 -0.61547366548E+02  0.69333259099E+02  0.47000000000E+01 0. -1.
        -13    1    4    4    0    0  0.41336510257E+02 -0.53920410878E+02 -0.69030469795E+02  0.96857232821E+02  0.00000000000E+00 0.  1.
         14    1    4    4    0    0  0.11671897919E+03 -0.12015221663E+02 -0.20990944663E+03  0.24047798535E+03  0.00000000000E+00 0. -1.
         -5    1    5    5    0  502 -0.12984364971E+03  0.31688743703E+02 -0.31562493880E+03  0.34278964663E+03  0.47000000000E+01 0.  1.
         13    1    6    6    0    0  0.22287494035E+02  0.37799591211E+02 -0.81406147291E+02  0.92479739959E+02  0.00000000000E+00 0. -1.
        -14    1    6    6    0    0 -0.19556816825E+02 -0.98370586204E+01 -0.20615219589E+03  0.20731127484E+03  0.00000000000E+00 0.  1.
</event>
<event>
12    1  0.1630640E-001  0.1827088E+03  0.7818608E-02  0.1165380E+00
         21   -1    0    0  501  502  0.00000000000E+00  0.00000000000E+00  0.19274595324E+03  0.19274595324E+03  0.00000000000E+00 0. -1.
         21   -1    0    0  502  503 -0.00000000000E+00 -0.00000000000E+00 -0.29673769095E+03  0.29673769095E+03  0.00000000000E+00 0. -1.
         -6    2    1    2    0  503  0.13808656984E+02  0.59233517562E+02 -0.21029281035E+03  0.27810145054E+03  0.17151694406E+03 0.  0.
        -24    2    3    3    0    0 -0.63763514737E+01  0.86938246130E+02 -0.10061365631E+03  0.16309452300E+03  0.94222073309E+02 0.  0.
          6    2    1    2  501    0 -0.13808656984E+02 -0.59233517562E+02  0.10630107264E+03  0.21138219365E+03  0.17228820371E+03 0.  0.
         24    2    5    5    0    0  0.15211603078E+02 -0.85957491576E+02  0.26361586462E+02  0.12211429499E+03  0.81221207664E+02 0.  0.
          5    1    5    5  501    0 -0.29020260062E+02  0.26723974014E+02  0.79939486175E+02  0.89267898660E+02  0.47000000000E+01 0. -1.
        -11    1    6    6    0    0  0.47124289166E+02 -0.54188097184E+02  0.27940184589E+02  0.77056488504E+02  0.00000000000E+00 0.  1.
         12    1    6    6    0    0 -0.31912686088E+02 -0.31769394392E+02 -0.15785981271E+01  0.45057806487E+02  0.00000000000E+00 0. -1.
         -5    1    3    3    0  503  0.20185008458E+02 -0.27704728568E+02 -0.10967915404E+03  0.11500692754E+03  0.47000000000E+01 0.  1.
         13    1    4    4    0    0  0.22513725376E+02  0.13749802276E+02 -0.76312032845E+02  0.80743118901E+02  0.00000000000E+00 0. -1.
        -14    1    4    4    0    0 -0.28890076849E+02  0.73188443854E+02 -0.24301623461E+02  0.82351404098E+02  0.00000000000E+00 0.  1.
</event>
<event>
12    1  0.1630640E-001  0.2044670E+03  0.7818608E-02  0.1146056E+00
         21   -1    0    0  503  502  0.00000000000E+00  0.00000000000E+00  0.57315474122E+02  0.57315474122E+02  0.00000000000E+00 0. -1.
         21   -1    0    0  501  503 -0.00000000000E+00 -0.00000000000E+00 -0.79990544849E+03  0.79990544849E+03  0.00000000000E+00 0. -1.
          6    2    1    2  501    0 -0.10768603106E+03 -0.25035909869E+02 -0.24368170893E+03  0.31809985470E+03  0.17199902390E+03 0.  0.
         24    2    3    3    0    0 -0.12902854685E+03 -0.58640577049E+02 -0.20861926599E+03  0.26484347910E+03  0.80826895911E+02 0.  0.
         -6    2    1    2    0  502  0.10768603106E+03  0.25035909869E+02 -0.49890826543E+03  0.53912106791E+03  0.17181091489E+03 0.  0.
        -24    2    5    5    0    0  0.13803976121E+03  0.43081575169E+02 -0.44128337114E+03  0.47137364425E+03  0.80938872348E+02 0.  0.
          5    1    3    3  501    0  0.21342515790E+02  0.33604667180E+02 -0.35062442944E+02  0.53256375597E+02  0.47000000000E+01 0. -1.
        -11    1    4    4    0    0 -0.53303122927E+02  0.12574944254E-01 -0.13143260525E+03  0.14183001373E+03  0.00000000000E+00 0.  1.
         12    1    4    4    0    0 -0.75725423926E+02 -0.58653151993E+02 -0.77186660741E+02  0.12301346538E+03  0.00000000000E+00 0. -1.
         -5    1    5    5    0  502 -0.30353730146E+02 -0.18045665300E+02 -0.57624894294E+02  0.67747423658E+02  0.47000000000E+01 0.  1.
         13    1    6    6    0    0  0.19709558940E+02  0.40918202937E+02 -0.15704387907E+03  0.16347949718E+03  0.00000000000E+00 0. -1.
        -14    1    6    6    0    0  0.11833020227E+03  0.21633722320E+01 -0.28423949207E+03  0.30789414707E+03  0.00000000000E+00 0.  1.
</event>
<event>
12    1  0.1630640E-001  0.2118732E+03  0.7818608E-02  0.1140143E+00
         21   -1    0    0  501  502  0.00000000000E+00  0.00000000000E+00  0.13537706436E+03  0.13537706436E+03  0.00000000000E+00 0. -1.
         21   -1    0    0  502  503 -0.00000000000E+00 -0.00000000000E+00 -0.36180340905E+03  0.36180340905E+03  0.00000000000E+00 0.  1.
         -6    2    1    2    0  503  0.52537758312E+02  0.11260647720E+03 -0.18547371780E+03  0.28138576323E+03  0.17128050970E+03 0.  0.
        -24    2    3    3    0    0 -0.20399557354E+02  0.13961278298E+02 -0.53458685607E+02  0.10110601948E+03  0.82179905556E+02 0.  0.
          6    2    1    2  501    0 -0.52537758312E+02 -0.11260647720E+03 -0.40952626895E+02  0.21579471018E+03  0.17160945351E+03 0.  0.
         24    2    5    5    0    0 -0.98160999010E+02 -0.96760745027E+02 -0.46781819502E+02  0.16692102803E+03  0.81705981778E+02 0.  0.
          5    1    5    5  501    0  0.45623240699E+02 -0.15845732169E+02  0.58291926073E+01  0.48873682144E+02  0.47000000000E+01 0. -1.
        -13    1    6    6    0    0 -0.62159174538E+02 -0.58362348384E+01 -0.18944075087E+02  0.65243410374E+02  0.00000000000E+00 0.  1.
         14    1    6    6    0    0 -0.36001824472E+02 -0.90924510189E+02 -0.27837744415E+02  0.10167761766E+03  0.00000000000E+00 0. -1.
         -5    1    3    3    0  503  0.72937315666E+02  0.98645198898E+02 -0.13201503219E+03  0.18027974375E+03  0.47000000000E+01 0.  1.
         11    1    4    4    0    0  0.19722820747E+02 -0.50215739183E+00  0.11916625385E+02  0.23048813003E+02  0.00000000000E+00 0. -1.
        -12    1    4    4    0    0 -0.40122378101E+02  0.14463435690E+02 -0.65375310992E+02  0.78057206482E+02  0.00000000000E+00 0.  1.
</event>
<event>
12    1  0.1630640E-001  0.2139299E+03  0.7818608E-02  0.1138561E+00
         21   -1    0    0  501  502  0.00000000000E+00  0.00000000000E+00  0.37770143606E+03  0.37770143606E+03  0.00000000000E+00 0. -1.
         21   -1    0    0  502  503 -0.00000000000E+00 -0.00000000000E+00 -0.17415135817E+03  0.17415135817E+03  0.00000000000E+00 0.  1.
         -6    2    1    2    0  503 -0.12509176896E+03 -0.49121693457E+01 -0.50769488226E+02  0.21952096912E+03  0.17303131185E+03 0.  0.
        -24    2    3    3    0    0 -0.36125826308E+02  0.12126756479E+02  0.34787882312E+02  0.94831684905E+02  0.79565810226E+02 0.  0.
          6    2    1    2  501    0  0.12509176896E+03  0.49121693457E+01  0.25431956611E+03  0.33233182511E+03  0.17347599317E+03 0.  0.
         24    2    5    5    0    0  0.14247124416E+03 -0.89309327297E+00  0.13431407492E+03  0.21084456179E+03  0.78206812272E+02 0.  0.
          5    1    5    5  501    0 -0.17379475209E+02  0.58052626187E+01  0.12000549119E+03  0.12148726332E+03  0.47000000000E+01 0. -1.
        -13    1    6    6    0    0  0.11505148963E+02 -0.11543684687E+02 -0.71261701474E+01  0.17787844439E+02  0.00000000000E+00 0.  1.
         14    1    6    6    0    0  0.13096609520E+03  0.10650591415E+02  0.14144024507E+03  0.19305671735E+03  0.00000000000E+00 0. -1.
         -5    1    3    3    0  503 -0.88965942647E+02 -0.17038925825E+02 -0.85557370539E+02  0.12468928421E+03  0.47000000000E+01 0.  1.
         13    1    4    4    0    0  0.15253215865E+02  0.24519582858E+02  0.30194223421E+02  0.41779919408E+02  0.00000000000E+00 0. -1.
        -14    1    4    4    0    0 -0.51379042173E+02 -0.12392826379E+02  0.45936588918E+01  0.53051765497E+02  0.00000000000E+00 0.  1.
</event>
<event>
12    1  0.1630640E-001  0.3122052E+03  0.7818608E-02  0.1079835E+00
         21   -1    0    0  503  502  0.00000000000E+00  0.00000000000E+00  0.17307593196E+04  0.17307593196E+04  0.00000000000E+00 0.  1.
         21   -1    0    0  501  503 -0.00000000000E+00 -0.00000000000E+00 -0.87902936455E+02  0.87902936455E+02  0.00000000000E+00 0. -1.
          6    2    1    2  501    0  0.25505493414E+03  0.17871805050E+02  0.27316673979E+03  0.41483991914E+03  0.17916380757E+03 0.  0.
         24    2    3    3    0    0  0.27114223981E+03 -0.43514521600E+01  0.25900847730E+03  0.38361139114E+03  0.80840947252E+02 0.  0.
         -6    2    1    2    0  502 -0.25505493414E+03 -0.17871805050E+02  0.13696896434E+04  0.14038223369E+04  0.17115786178E+03 0.  0.
        -24    2    5    5    0    0 -0.13431296714E+03  0.16334966647E+02  0.10098751626E+04  0.10227222498E+04  0.88352430338E+02 0.  0.
          5    1    3    3  501    0 -0.16087305671E+02  0.22223257210E+02  0.14158262489E+02  0.31228528007E+02  0.47000000000E+01 0. -1.
        -11    1    4    4    0    0  0.16559772754E+03  0.36849871801E+02  0.15300316003E+03  0.22845237446E+03  0.00000000000E+00 0.  1.
         12    1    4    4    0    0  0.10554451227E+03 -0.41201323961E+02  0.10600531727E+03  0.15515901668E+03  0.00000000000E+00 0. -1.
         -5    1    5    5    0  502 -0.12074196700E+03 -0.34206771696E+02  0.35981448076E+03  0.38110008710E+03  0.47000000000E+01 0.  1.
         13    1    6    6    0    0 -0.85461791481E+01 -0.20167090699E+02  0.60208851542E+02  0.64069138666E+02  0.00000000000E+00 0. -1.
        -14    1    6    6    0    0 -0.12576678799E+03  0.36502057346E+02  0.94966631109E+03  0.95865311118E+03  0.00000000000E+00 0.  1.
</event>
<event>
12    1  0.1630640E-001  0.1847638E+03  0.7818608E-02  0.1163624E+00
         21   -1    0    0  501  502  0.00000000000E+00  0.00000000000E+00  0.68677102856E+02  0.68677102856E+02  0.00000000000E+00 0. -1.
         21   -1    0    0  502  503 -0.00000000000E+00 -0.00000000000E+00 -0.59690144890E+03  0.59690144890E+03  0.00000000000E+00 0.  1.
         -6    2    1    2    0  503  0.25563682275E+02  0.58876561443E+02 -0.40382038832E+03  0.44408169619E+03  0.17325615581E+03 0.  0.
        -24    2    3    3    0    0 -0.28787759057E+02  0.76547043809E+02 -0.18246102591E+03  0.21541516508E+03  0.80146630517E+02 0.  0.
          6    2    1    2  501    0 -0.25563682275E+02 -0.58876561443E+02 -0.12440395773E+03  0.22149685557E+03  0.17165244243E+03 0.  0.
         24    2    5    5    0    0  0.17138915080E+02 -0.31378735878E+02 -0.14309494956E+03  0.16717296205E+03  0.78690959946E+02 0.  0.
          5    1    5    5  501    0 -0.42702597355E+02 -0.27497825566E+02  0.18690991829E+02  0.54323893521E+02  0.47000000000E+01 0. -1.
        -13    1    6    6    0    0 -0.26346975341E+02 -0.12607268730E+01 -0.83113421739E+02  0.87198586084E+02  0.00000000000E+00 0.  1.
         14    1    6    6    0    0  0.43485890421E+02 -0.30118009005E+02 -0.59981527817E+02  0.79974375967E+02  0.00000000000E+00 0. -1.
         -5    1    3    3    0  503  0.54351441332E+02 -0.17670482365E+02 -0.22135936241E+03  0.22866653111E+03  0.47000000000E+01 0.  1.
         13    1    4    4    0    0  0.25023466115E+02  0.61414465759E+01 -0.37002199379E+02  0.45089399878E+02  0.00000000000E+00 0. -1.
        -14    1    4    4    0    0 -0.53811225172E+02  0.70405597233E+02 -0.14545882653E+03  0.17032576521E+03  0.00000000000E+00 0.  1.
</event>
<event>
12    1  0.1630640E-001  0.2937477E+03  0.7818608E-02  0.1088868E+00
         21   -1    0    0  503  502  0.00000000000E+00  0.00000000000E+00  0.19250319603E+03  0.19250319603E+03  0.00000000000E+00 0. -1.
         21   -1    0    0  501  503 -0.00000000000E+00 -0.00000000000E+00 -0.45923799391E+03  0.45923799391E+03  0.00000000000E+00 0. -1.
          6    2    1    2  501    0 -0.21401721229E+03  0.96244977431E+02 -0.70994278644E+02  0.29875099818E+03  0.17072055670E+03 0.  0.
         24    2    3    3    0    0 -0.85941345053E+02  0.20266497671E+02  0.22938233519E+02  0.12262160258E+03  0.81934419780E+02 0.  0.
         -6    2    1    2    0  502  0.21401721229E+03 -0.96244977431E+02 -0.19574051923E+03  0.35299019175E+03  0.17669539260E+03 0.  0.
        -24    2    5    5    0    0  0.11940211453E+03  0.36797891125E+01 -0.59920163894E+02  0.15958327715E+03  0.87212329985E+02 0.  0.
          5    1    3    3  501    0 -0.12807586723E+03  0.75978479761E+02 -0.93932512163E+02  0.17612939560E+03  0.47000000000E+01 0. -1.
        -13    1    4    4    0    0 -0.58328384199E+02  0.23359820647E+02  0.52625910324E+02  0.81959551374E+02  0.00000000000E+00 0.  1.
         14    1    4    4    0    0 -0.27612960855E+02 -0.30933229762E+01 -0.29687676805E+02  0.40662051206E+02  0.00000000000E+00 0. -1.
         -5    1    5    5    0  502  0.94615097753E+02 -0.99924766544E+02 -0.13582035534E+03  0.19340691460E+03  0.47000000000E+01 0.  1.
         13    1    6    6    0    0  0.99155528396E+02 -0.83673402371E+01 -0.47821313596E+01  0.99622788429E+02  0.00000000000E+00 0. -1.
        -14    1    6    6    0    0  0.20246586139E+02  0.12047129350E+02 -0.55138032534E+02  0.59960488720E+02  0.00000000000E+00 0.  1.
</event>
<event>
12    1  0.1630640E-001  0.1991427E+03  0.7818608E-02  0.1150765E+00
         21   -1    0    0  503  502  0.00000000000E+00  0.00000000000E+00  0.62697121558E+02  0.62697121558E+02  0.00000000000E+00 0. -1.
         21   -1    0    0  501  503 -0.00000000000E+00 -0.00000000000E+00 -0.72617437715E+03  0.72617437715E+03  0.00000000000E+00 0. -1.
          6    2    1    2  501    0 -0.33947113687E+02 -0.94280761112E+02 -0.47774955635E+03  0.51759295259E+03  0.17209461795E+03 0.  0.
         24    2    3    3    0    0  0.37483589510E+01 -0.59231161932E+02 -0.14713219960E+03  0.18295979576E+03  0.91126406532E+02 0.  0.
         -6    2    1    2    0  502  0.33947113687E+02  0.94280761112E+02 -0.18572769924E+03  0.27127854612E+03  0.17045821446E+03 0.  0.
        -24    2    5    5    0    0  0.55019814788E+02  0.73025005451E+02 -0.47017863786E+02  0.12929835619E+03  0.78406338768E+02 0.  0.
          5    1    3    3  501    0 -0.37695472638E+02 -0.35049599180E+02 -0.33061735675E+03  0.33463315682E+03  0.47000000000E+01 0. -1.
        -11    1    4    4    0    0  0.46986225912E+02 -0.27984100020E+02 -0.84932477033E+02  0.10101653792E+03  0.00000000000E+00 0.  1.
         12    1    4    4    0    0 -0.43237866961E+02 -0.31247061912E+02 -0.62199722569E+02  0.81943257838E+02  0.00000000000E+00 0. -1.
         -5    1    5    5    0  502 -0.21072701100E+02  0.21255755661E+02 -0.13870983545E+03  0.14198018993E+03  0.47000000000E+01 0.  1.
         13    1    6    6    0    0 -0.28494432191E+01  0.61197634908E+02 -0.21087596604E+02  0.64791639704E+02  0.00000000000E+00 0. -1.
        -14    1    6    6    0    0  0.57869258007E+02  0.11827370543E+02 -0.25930267181E+02  0.64506716490E+02  0.00000000000E+00 0.  1.
</event>
<event>
12    1  0.1630640E-001  0.1909084E+03  0.7818608E-02  0.1158619E+00
         21   -1    0    0  501  502  0.00000000000E+00  0.00000000000E+00  0.19331674289E+03  0.19331674289E+03  0.00000000000E+00 0. -1.
         21   -1    0    0  502  503 -0.00000000000E+00 -0.00000000000E+00 -0.20347319193E+03  0.20347319193E+03  0.00000000000E+00 0.  1.
         -6    2    1    2    0  503  0.81001277588E+02 -0.97878071032E+01 -0.65907511790E+02  0.19790752855E+03  0.16782902493E+03 0.  0.
        -24    2    3    3    0    0  0.11832087261E+03  0.42285023546E+00 -0.70620728927E+02  0.15864795505E+03  0.78624923466E+02 0.  0.
          6    2    1    2  501    0 -0.81001277588E+02  0.97878071032E+01  0.55751062751E+02  0.19888240626E+03  0.17259496628E+03 0.  0.
         24    2    5    5    0    0 -0.10704347379E+03  0.29371223230E+02  0.37489729047E+01  0.13733556623E+03  0.80783840696E+02 0.  0.
          5    1    5    5  501    0  0.26042196202E+02 -0.19583416127E+02  0.52002089846E+02  0.61546840037E+02  0.47000000000E+01 0. -1.
        -13    1    6    6    0    0 -0.10185638925E+03  0.48920486334E+02 -0.91202048493E+01  0.11336276351E+03  0.00000000000E+00 0.  1.
         14    1    6    6    0    0 -0.51870845399E+01 -0.19549263105E+02  0.12869177754E+02  0.23972802715E+02  0.00000000000E+00 0. -1.
         -5    1    3    3    0  503 -0.37319595021E+02 -0.10210657339E+02  0.47132171376E+01  0.39259573502E+02  0.47000000000E+01 0.  1.
         11    1    4    4    0    0 -0.10468061097E+02  0.26391706206E+01  0.16958114650E+01  0.10928005363E+02  0.00000000000E+00 0. -1.
        -12    1    4    4    0    0  0.12878893371E+03 -0.22163203852E+01 -0.72316540392E+02  0.14771994969E+03  0.00000000000E+00 0.  1.
</event>
<event>
12    1  0.1630640E-001  0.1895459E+03  0.7818608E-02  0.1159420E+00
         21   -1    0    0  501  502  0.00000000000E+00  0.00000000000E+00  0.30682420989E+04  0.30682420989E+04  0.00000000000E+00 0.  1.
         21   -1    0    0  502  503 -0.00000000000E+00 -0.00000000000E+00 -0.12720460035E+02  0.12720460035E+02  0.00000000000E+00 0. -1.
         -6    2    1    2    0  503 -0.15169543633E+00 -0.73403495406E+02  0.10538404242E+04  0.10703269997E+04  0.17213991557E+03 0.  0.
        -24    2    3    3    0    0  0.25376893523E+01  0.11962988880E+02  0.26405751562E+03  0.27592546265E+03  0.79113440167E+02 0.  0.
          6    2    1    2  501    0  0.15169543633E+00  0.73403495406E+02  0.20016812147E+04  0.20106355592E+04  0.17475574563E+03 0.  0.
         24    2    5    5    0    0 -0.30774965550E+01  0.14617557358E+02  0.17592045264E+04  0.17610694387E+04  0.79635783038E+02 0.  0.
          5    1    5    5  501    0  0.32291919913E+01  0.58785938048E+02  0.24247668822E+03  0.24956612054E+03  0.47000000000E+01 0. -1.
        -11    1    6    6    0    0 -0.26821539691E+02  0.12792713973E+02  0.15811773207E+04  0.15814565337E+04  0.00000000000E+00 0.  1.
         12    1    6    6    0    0  0.23744043136E+02  0.18248433847E+01  0.17802720576E+03  0.17961290496E+03  0.00000000000E+00 0. -1.
         -5    1    3    3    0  503 -0.26893847886E+01 -0.85366484286E+02  0.78978290857E+03  0.79440153707E+03  0.47000000000E+01 0.  1.
         13    1    4    4    0    0  0.16574063006E+02 -0.29244771129E+02  0.15281295598E+03  0.15646646835E+03  0.00000000000E+00 0. -1.
        -14    1    4    4    0    0 -0.14036373654E+02  0.41207760009E+02  0.11124455964E+03  0.11945899430E+03  0.00000000000E+00 0.  1.
</event>
<event>
12    1  0.1630640E-001  0.2160919E+03  0.7818608E-02  0.1138634E+00
         21   -1    0    0  501  502  0.00000000000E+00  0.00000000000E+00  0.19542701434E+02  0.19542701434E+02  0.00000000000E+00 0. -1.
         21   -1    0    0  502  503 -0.00000000000E+00 -0.00000000000E+00 -0.35570930579E+04  0.35570930579E+04  0.00000000000E+00 0. -1.
         -6    2    1    2    0  503 -0.11440899036E+03  0.31803947199E+02 -0.28614848242E+04  0.28696325763E+04  0.18054034417E+03 0.  0.
        -24    2    3    3    0    0 -0.60504413080E+02  0.83805029657E+02 -0.22037446912E+04  0.22076250321E+04  0.80209422542E+02 0.  0.
          6    2    1    2  501    0  0.11440899036E+03 -0.31803947199E+02 -0.67606553228E+03  0.70700318302E+03  0.16937528960E+03 0.  0.
         24    2    5    5    0    0  0.12743967731E+03 -0.44454379997E+01 -0.64892320344E+03  0.66605098109E+03  0.79132497595E+02 0.  0.
          5    1    5    5  501    0 -0.13030686949E+02 -0.27358509199E+02 -0.27142328841E+02  0.40952201930E+02  0.47000000000E+01 0. -1.
        -11    1    6    6    0    0  0.82712935614E+02 -0.33925670294E+02 -0.49660040009E+03  0.50458333127E+03  0.00000000000E+00 0.  1.
         12    1    6    6    0    0  0.44726741694E+02  0.29480232294E+02 -0.15232280334E+03  0.16146764982E+03  0.00000000000E+00 0. -1.
         -5    1    3    3    0  503 -0.53904577278E+02 -0.52001082459E+02 -0.65774013300E+03  0.66200754421E+03  0.47000000000E+01 0.  1.
         11    1    4    4    0    0 -0.63710757374E+02  0.40118953216E+02 -0.89967131597E+03  0.90281618715E+03  0.00000000000E+00 0. -1.
        -12    1    4    4    0    0  0.32063442941E+01  0.43686076441E+02 -0.13040733752E+04  0.13048088450E+04  0.00000000000E+00 0.  1.
</event>
<event>
12    1  0.1630640E-001  0.1734988E+03  0.7818608E-02  0.1174756E+00
         21   -1    0    0  503  502  0.00000000000E+00  0.00000000000E+00  0.13700067289E+03  0.13700067289E+03  0.00000000000E+00 0. -1.
         21   -1    0    0  501  503 -0.00000000000E+00 -0.00000000000E+00 -0.30369762321E+03  0.30369762321E+03  0.00000000000E+00 0. -1.
          6    2    1    2  501    0  0.13451424602E+02 -0.12246347436E+02 -0.20059589305E+03  0.26391887958E+03  0.17053899508E+03 0.  0.
         24    2    3    3    0    0 -0.42295755655E+02 -0.36344148714E+02 -0.72368769719E+02  0.12195854255E+03  0.80788731750E+02 0.  0.
         -6    2    1    2    0  502 -0.13451424602E+02  0.12246347436E+02  0.33898942728E+02  0.17677941651E+03  0.17254248734E+03 0.  0.
        -24    2    5    5    0    0 -0.35267199656E+02  0.69948867471E+02  0.10911841472E+02  0.11077937346E+03  0.77565339340E+02 0.  0.
          5    1    3    3  501    0  0.55747180257E+02  0.24097801278E+02 -0.12822712333E+03  0.14196033703E+03  0.47000000000E+01 0. -1.
        -13    1    4    4    0    0  0.76516107029E+01 -0.22559652747E+02  0.90229566825E+01  0.25473492609E+02  0.00000000000E+00 0.  1.
         14    1    4    4    0    0 -0.49947366358E+02 -0.13784495967E+02 -0.81391726401E+02  0.96485049939E+02  0.00000000000E+00 0. -1.
         -5    1    5    5    0  502  0.21815775054E+02 -0.57702520035E+02  0.22987101256E+02  0.66000043059E+02  0.47000000000E+01 0.  1.
         11    1    6    6    0    0 -0.61394341187E+01 -0.16828335312E+02  0.67717182213E+01  0.19150500994E+02  0.00000000000E+00 0. -1.
        -12    1    6    6    0    0 -0.29127765537E+02  0.86777202783E+02  0.41401232509E+01  0.91628872461E+02  0.00000000000E+00 0.  1.
</event>
<event>
12    1  0.1630640E-001  0.2734653E+03  0.7818608E-02  0.1099358E+00
         21   -1    0    0  503  502  0.00000000000E+00  0.00000000000E+00  0.54136775996E+03  0.54136775996E+03  0.00000000000E+00 0. -1.
         21   -1    0    0  501  503 -0.00000000000E+00 -0.00000000000E+00 -0.15560412200E+03  0.15560412200E+03  0.00000000000E+00 0.  1.
          6    2    1    2  501    0 -0.82012026883E+02 -0.19586254394E+03  0.75681104961E+02  0.28374444219E+03  0.17232286603E+03 0.  0.
         24    2    3    3    0    0 -0.11370675480E+03 -0.12281151488E+03  0.27887080519E+02  0.19075322005E+03  0.87161960875E+02 0.  0.
         -6    2    1    2    0  502  0.82012026883E+02  0.19586254394E+03  0.31008253299E+03  0.41322743977E+03  0.17180695864E+03 0.  0.
        -24    2    5    5    0    0 -0.22829642061E+02  0.82166402881E+02  0.11591486084E+03  0.16494984725E+03  0.80620635228E+02 0.  0.
          5    1    3    3  501    0  0.31694727918E+02 -0.73051029058E+02  0.47794024442E+02  0.92991222148E+02  0.47000000000E+01 0. -1.
        -11    1    4    4    0    0 -0.89945729824E+02 -0.13215067592E+03  0.11189929074E+02  0.16024746480E+03  0.00000000000E+00 0.  1.
         12    1    4    4    0    0 -0.23761024977E+02  0.93391610448E+01  0.16697151446E+02  0.30505755250E+02  0.00000000000E+00 0. -1.
         -5    1    5    5    0  502  0.10484166894E+03  0.11369614106E+03  0.19416767215E+03  0.24827759252E+03  0.47000000000E+01 0.  1.
         11    1    6    6    0    0 -0.54183259477E+01  0.28242285910E+02  0.10285426738E+03  0.10679880752E+03  0.00000000000E+00 0. -1.
        -12    1    6    6    0    0 -0.17411316114E+02  0.53924116971E+02  0.13060593460E+02  0.58151039728E+02  0.00000000000E+00 0.  1.
</event>
<event>
12    1  0.1630640E-001  0.1795999E+03  0.7818608E-02  0.1168216E+00
         21   -1    0    0  503  502  0.00000000000E+00  0.00000000000E+00  0.16323656848E+03  0.16323656848E+03  0.00000000000E+00 0. -1.
         21   -1    0    0  501  503 -0.00000000000E+00 -0.00000000000E+00 -0.19751453768E+03  0.19751453768E+03  0.00000000000E+00 0. -1.
          6    2    1    2  501    0 -0.43700865855E+02 -0.22226882992E+02 -0.15120317551E+02  0.18013233879E+03  0.17267088773E+03 0.  0.
         24    2    3    3    0    0  0.33024560491E+02  0.15854738569E+02  0.12040161391E+02  0.90150215202E+02  0.81486817853E+02 0.  0.
         -6    2    1    2    0  502  0.43700865855E+02  0.22226882992E+02 -0.19157651653E+02  0.18061876737E+03  0.17277824952E+03 0.  0.
        -24    2    5    5    0    0 -0.13420118814E+02 -0.26468887303E+02  0.30535278533E+02  0.90476866768E+02  0.79830812354E+02 0.  0.
          5    1    3    3  501    0 -0.76725426346E+02 -0.38081621561E+02 -0.27160478942E+02  0.89982123586E+02  0.47000000000E+01 0. -1.
        -13    1    4    4    0    0  0.40866572284E+02 -0.22030549748E+02 -0.71333447847E+01  0.46971336582E+02  0.00000000000E+00 0.  1.
         14    1    4    4    0    0 -0.78420117932E+01  0.37885288317E+02  0.19173506176E+02  0.43178878620E+02  0.00000000000E+00 0. -1.
         -5    1    5    5    0  502  0.57120984670E+02  0.48695770295E+02 -0.49692930186E+02  0.90141900606E+02  0.47000000000E+01 0.  1.
         11    1    6    6    0    0  0.18717244257E+02  0.10035089585E+02  0.35730098848E+02  0.41565348781E+02  0.00000000000E+00 0. -1.
        -12    1    6    6    0    0 -0.32137363071E+02 -0.36503976888E+02 -0.51948203156E+01  0.48911517988E+02  0.00000000000E+00 0.  1.
</event>
<event>
12    1  0.1630640E-001  0.1980378E+03  0.7818608E-02  0.1151985E+00
         21   -1    0    0  501  502  0.00000000000E+00  0.00000000000E+00  0.53760149645E+03  0.53760149645E+03  0.00000000000E+00 0. -1.
         21   -1    0    0  502  503 -0.00000000000E+00 -0.00000000000E+00 -0.81972011119E+02  0.81972011119E+02  0.00000000000E+00 0. -1.
         -6    2    1    2    0  503 -0.93494449527E+02  0.20477275110E+02  0.12093620953E+03  0.23204424812E+03  0.17337368722E+03 0.  0.
        -24    2    3    3    0    0  0.12520989882E+02  0.28402592987E+01  0.87599832596E+02  0.11942212886E+03  0.80144069831E+02 0.  0.
          6    2    1    2  501    0  0.93494449527E+02 -0.20477275110E+02  0.33469327580E+03  0.38752925945E+03  0.17029036137E+03 0.  0.
         24    2    5    5    0    0 -0.87967079020E+01  0.11099805259E+02  0.10602073827E+03  0.13499448499E+03  0.82356094414E+02 0.  0.
          5    1    5    5  501    0  0.10229115743E+03 -0.31577080368E+02  0.22867253753E+03  0.25253477446E+03  0.47000000000E+01 0. -1.
        -13    1    6    6    0    0  0.49034911398E+01  0.37865061909E+02  0.95978263846E+02  0.10329392175E+03  0.00000000000E+00 0.  1.
         14    1    6    6    0    0 -0.13700199042E+02 -0.26765256651E+02  0.10042474425E+02  0.31700563243E+02  0.00000000000E+00 0. -1.
         -5    1    3    3    0  503 -0.10601543941E+03  0.17637015811E+02  0.33336376933E+02  0.11262211926E+03  0.47000000000E+01 0.  1.
         13    1    4    4    0    0 -0.47655766625E+01 -0.32819465440E+02  0.14340816360E+02  0.36131524276E+02  0.00000000000E+00 0. -1.
        -14    1    4    4    0    0  0.17286566544E+02  0.35659724738E+02  0.73259016236E+02  0.83290604579E+02  0.00000000000E+00 0.  1.
</event>
<event>
12    1  0.1630640E-001  0.2131255E+03  0.7818608E-02  0.1139231E+00
         21   -1    0    0  503  502  0.00000000000E+00  0.00000000000E+00  0.35942811945E+03  0.35942811945E+03  0.00000000000E+00 0. -1.
         21   -1    0    0  501  503 -0.00000000000E+00 -0.00000000000E+00 -0.35625099330E+03  0.35625099330E+03  0.00000000000E+00 0. -1.
          6    2    1    2  501    0  0.17555260667E+01  0.12748387292E+03 -0.28607862604E+03  0.35674004630E+03  0.17078425169E+03 0.  0.
         24    2    3    3    0    0 -0.32848072308E+02  0.10477014018E+02 -0.14987556309E+03  0.17381553070E+03  0.80996238313E+02 0.  0.
         -6    2    1    2    0  502 -0.17555260667E+01 -0.12748387292E+03  0.28925575219E+03  0.35893906646E+03  0.17003865304E+03 0.  0.
        -24    2    5    5    0    0  0.40417828358E+01 -0.87514853026E+02  0.70323055862E+02  0.13626273888E+03  0.77116900309E+02 0.  0.
          5    1    3    3  501    0  0.34603598374E+02  0.11700685891E+03 -0.13620306295E+03  0.18292451560E+03  0.47000000000E+01 0. -1.
        -13    1    4    4    0    0  0.20826149693E+02  0.24759300911E+02 -0.50606996448E+02  0.60065127837E+02  0.00000000000E+00 0.  1.
         14    1    4    4    0    0 -0.53674222001E+02 -0.14282286892E+02 -0.99268566647E+02  0.11375040286E+03  0.00000000000E+00 0. -1.
         -5    1    5    5    0  502 -0.57973089025E+01 -0.39969019899E+02  0.21893269632E+03  0.22267632757E+03  0.47000000000E+01 0.  1.
         11    1    6    6    0    0 -0.24050856874E+01 -0.95630531689E+02  0.77946586379E+02  0.12339632635E+03  0.00000000000E+00 0. -1.
        -12    1    6    6    0    0  0.64468685232E+01  0.81156786635E+01 -0.76235305168E+01  0.12866412533E+02  0.00000000000E+00 0.  1.
</event>
<event>
12    1  0.1630640E-001  0.2933123E+03  0.7818608E-02  0.1088674E+00
         21   -1    0    0  503  502  0.00000000000E+00  0.00000000000E+00  0.48408593257E+02  0.48408593257E+02  0.00000000000E+00 0.  1.
         21   -1    0    0  501  503 -0.00000000000E+00 -0.00000000000E+00 -0.18593245245E+04  0.18593245245E+04  0.00000000000E+00 0. -1.
          6    2    1    2  501    0  0.33191514185E+02  0.23486472634E+03 -0.11078281420E+04  0.11459164924E+04  0.17198342629E+03 0.  0.
         24    2    3    3    0    0  0.62813577742E+02  0.76448382398E+02 -0.39378648337E+03  0.41389819685E+03  0.80336928921E+02 0.  0.
         -6    2    1    2    0  502 -0.33191514185E+02 -0.23486472634E+03 -0.70308778927E+03  0.76181662544E+03  0.17253699630E+03 0.  0.
        -24    2    5    5    0    0 -0.94062972026E+00 -0.12814265270E+03 -0.22861170994E+03  0.27439549295E+03  0.81290518524E+02 0.  0.
          5    1    3    3  501    0 -0.29622063557E+02  0.15841634394E+03 -0.71404165866E+03  0.73201829552E+03  0.47000000000E+01 0. -1.
        -11    1    4    4    0    0 -0.82862884845E+01  0.20916381142E+02 -0.22537827646E+02  0.31845113470E+02  0.00000000000E+00 0.  1.
         12    1    4    4    0    0  0.71099866227E+02  0.55532001256E+02 -0.37124865572E+03  0.38205308338E+03  0.00000000000E+00 0. -1.
         -5    1    5    5    0  502 -0.32250884465E+02 -0.10672207364E+03 -0.47447607932E+03  0.48742113249E+03  0.47000000000E+01 0.  1.
         13    1    6    6    0    0 -0.38255253860E+02 -0.55815012935E+02 -0.12982693189E+03  0.14640291104E+03  0.00000000000E+00 0. -1.
        -14    1    6    6    0    0  0.37314624139E+02 -0.72327639765E+02 -0.98784778050E+02  0.12799258191E+03  0.00000000000E+00 0.  1.
</event>
<event>
12    1  0.1630640E-001  0.1889404E+03  0.7818608E-02  0.1160529E+00
         21   -1    0    0  501  502  0.00000000000E+00  0.00000000000E+00  0.15402449732E+03  0.15402449732E+03  0.00000000000E+00 0. -1.
         21   -1    0    0  502  503 -0.00000000000E+00 -0.00000000000E+00 -0.37329075959E+03  0.37329075959E+03  0.00000000000E+00 0.  1.
         -6    2    1    2    0  503 -0.53563002505E+02 -0.43727094193E+02 -0.27443949341E+03  0.33048394726E+03  0.17065037313E+03 0.  0.
        -24    2    3    3    0    0  0.26568764701E+02  0.11054855884E+02 -0.14100700002E+03  0.16541280363E+03  0.81549447893E+02 0.  0.
          6    2    1    2  501    0  0.53563002505E+02  0.43727094193E+02  0.55173231141E+02  0.19683130964E+03  0.17583351506E+03 0.  0.
         24    2    5    5    0    0  0.87199658681E+02  0.69444631549E+02  0.65544549431E+02  0.15298532226E+03  0.81744012274E+02 0.  0.
          5    1    5    5  501    0 -0.33636656176E+02 -0.25717537356E+02 -0.10371318290E+02  0.43845987381E+02  0.47000000000E+01 0. -1.
        -11    1    6    6    0    0  0.36161263531E+02  0.74857808111E+01 -0.14453870106E+02  0.39655872901E+02  0.00000000000E+00 0.  1.
         12    1    6    6    0    0  0.51038395150E+02  0.61958850738E+02  0.79998419536E+02  0.11332944936E+03  0.00000000000E+00 0. -1.
         -5    1    3    3    0  503 -0.80131767206E+02 -0.54781950077E+02 -0.13343249339E+03  0.16507114364E+03  0.47000000000E+01 0.  1.
         11    1    4    4    0    0  0.17631118572E+02 -0.25055923645E+02 -0.15160668311E+02  0.34183351437E+02  0.00000000000E+00 0. -1.
        -12    1    4    4    0    0  0.89376461288E+01  0.36110779529E+02 -0.12584633171E+03  0.13122945219E+03  0.00000000000E+00 0.  1.
</event>
<event>
12    1  0.1630640E-001  0.1956515E+03  0.7818608E-02  0.1157219E+00
         21   -1    0    0  501  502  0.00000000000E+00  0.00000000000E+00  0.17549594323E+04  0.17549594323E+04  0.00000000000E+00 0. -1.
         21   -1    0    0  502  503 -0.00000000000E+00 -0.00000000000E+00 -0.20954375387E+02  0.20954375387E+02  0.00000000000E+00 0. -1.
         -6    2    1    2    0  503 -0.47398294708E+02  0.17085720222E+02  0.64212905552E+03  0.66664706674E+03  0.17190133062E+03 0.  0.
        -24    2    3    3    0    0  0.28563567684E+02  0.72415172752E+00  0.47004672954E+03  0.47777588742E+03  0.80681279456E+02 0.  0.
          6    2    1    2  501    0  0.47398294708E+02 -0.17085720222E+02  0.10918760013E+04  0.11092667409E+04  0.18905284971E+03 0.  0.
         24    2    5    5    0    0 -0.42865977965E+02  0.24590828559E+02  0.58220071406E+03  0.58996378297E+03  0.81592848085E+02 0.  0.
          5    1    5    5  501    0  0.90264272672E+02 -0.41676548781E+02  0.50967528729E+03  0.51930295793E+03  0.47000000000E+01 0. -1.
        -11    1    6    6    0    0 -0.17714800377E+01  0.18565352516E+02  0.24860911145E+02  0.31078535335E+02  0.00000000000E+00 0.  1.
         12    1    6    6    0    0 -0.41094497927E+02  0.60254760426E+01  0.55733980291E+03  0.55888524764E+03  0.00000000000E+00 0. -1.
         -5    1    3    3    0  503 -0.75961862391E+02  0.16361568495E+02  0.17208232597E+03  0.18887117931E+03  0.47000000000E+01 0.  1.
         11    1    4    4    0    0 -0.11034088038E+02 -0.13241202947E+02  0.35309141456E+03  0.35351184929E+03  0.00000000000E+00 0. -1.
        -12    1    4    4    0    0  0.39597655722E+02  0.13965354674E+02  0.11695531499E+03  0.12426403813E+03  0.00000000000E+00 0.  1.
</event>
<event>
12    1  0.1630640E-001  0.1938485E+03  0.7818608E-02  0.1155132E+00
         21   -1    0    0  501  502  0.00000000000E+00  0.00000000000E+00  0.21427992349E+03  0.21427992349E+03  0.00000000000E+00 0.  1.
         21   -1    0    0  502  503 -0.00000000000E+00 -0.00000000000E+00 -0.23897799134E+03  0.23897799134E+03  0.00000000000E+00 0.  1.
         -6    2    1    2    0  503  0.84491741012E+02  0.23384240581E+02 -0.12963001383E+03  0.23283119560E+03  0.17239706538E+03 0.  0.
        -24    2    3    3    0    0  0.55712722715E+02 -0.45379063282E+02 -0.40367252277E+02  0.11644152916E+03  0.82255381593E+02 0.  0.
          6    2    1    2  501    0 -0.84491741012E+02 -0.23384240581E+02  0.10493194599E+03  0.22042671923E+03  0.17289172407E+03 0.  0.
         24    2    5    5    0    0 -0.10161213915E+03 -0.34498747098E+02  0.23453208138E+02  0.13629875117E+03  0.80697622186E+02 0.  0.
          5    1    5    5  501    0  0.17120398134E+02  0.11114506517E+02  0.81478737847E+02  0.84127968052E+02  0.47000000000E+01 0. -1.
        -11    1    6    6    0    0 -0.82302416583E+02  0.59036417706E+01  0.35652918996E+02  0.89886992354E+02  0.00000000000E+00 0.  1.
         12    1    6    6    0    0 -0.19309722563E+02 -0.40402388868E+02 -0.12199710858E+02  0.46411758820E+02  0.00000000000E+00 0. -1.
         -5    1    3    3    0  503  0.28779018297E+02  0.68763303863E+02 -0.89262761557E+02  0.11638966644E+03  0.47000000000E+01 0.  1.
         11    1    4    4    0    0  0.73725953029E+02 -0.42654614269E+02 -0.46719755677E+02  0.97147659977E+02  0.00000000000E+00 0. -1.
        -12    1    4    4    0    0 -0.18013230314E+02 -0.27244490122E+01  0.63525034006E+01  0.19293869187E+02  0.00000000000E+00 0.  1.
</event>
<event>
12    1  0.1630640E-001  0.2287030E+03  0.7818608E-02  0.1127557E+00
         21   -1    0    0  501  502  0.00000000000E+00  0.00000000000E+00  0.47363934535E+03  0.47363934535E+03  0.00000000000E+00 0. -1.
         21   -1    0    0  502  503 -0.00000000000E+00 -0.00000000000E+00 -0.17571894136E+03  0.17571894136E+03  0.00000000000E+00 0. -1.
         -6    2    1    2    0  503 -0.68709456252E+02  0.13389476692E+03 -0.48949320148E+02  0.23388270363E+03  0.17221000299E+03 0.  0.
        -24    2    3    3    0    0 -0.10492317675E+03  0.12090399241E+03 -0.13593146088E+02  0.18141992808E+03  0.84271989925E+02 0.  0.
          6    2    1    2  501    0  0.68709456252E+02 -0.13389476692E+03  0.34686972414E+03  0.41547558308E+03  0.17219917720E+03 0.  0.
         24    2    5    5    0    0  0.31277912423E+02 -0.11484274893E+03  0.12677176528E+03  0.19135663842E+03  0.79869379667E+02 0.  0.
          5    1    5    5  501    0  0.37431543829E+02 -0.19052017985E+02  0.22009795885E+03  0.22411894466E+03  0.47000000000E+01 0. -1.
        -13    1    6    6    0    0  0.69006681525E+01  0.62578965136E+01  0.38290681899E+02  0.39407573003E+02  0.00000000000E+00 0.  1.
         14    1    6    6    0    0  0.24377244271E+02 -0.12110064545E+03  0.88481083384E+02  0.15194906542E+03  0.00000000000E+00 0. -1.
         -5    1    3    3    0  503  0.36213720494E+02  0.12990774507E+02 -0.35356174060E+02  0.52462775550E+02  0.47000000000E+01 0.  1.
         13    1    4    4    0    0 -0.39669717993E+02  0.10684396501E+03 -0.45749833252E+01  0.11406248225E+03  0.00000000000E+00 0. -1.
        -14    1    4    4    0    0 -0.65253458753E+02  0.14060027402E+02 -0.90181627628E+01  0.67357445835E+02  0.00000000000E+00 0.  1.
</event>
<event>
12    1  0.1630640E-001  0.2433502E+03  0.7818608E-02  0.1117597E+00
         21   -1    0    0  501  502  0.00000000000E+00  0.00000000000E+00  0.30132473191E+02  0.30132473191E+02  0.00000000000E+00 0. -1.
         21   -1    0    0  502  503 -0.00000000000E+00 -0.00000000000E+00 -0.19662182228E+04  0.19662182228E+04  0.00000000000E+00 0.  1.
         -6    2    1    2    0  503 -0.73911833336E+02  0.15623434952E+03 -0.99762674377E+03  0.10268780024E+04  0.17131018920E+03 0.  0.
        -24    2    3    3    0    0  0.22562529988E+02  0.97857206928E+02 -0.55807839982E+03  0.57307184313E+03  0.82914029772E+02 0.  0.
          6    2    1    2  501    0  0.73911833336E+02 -0.15623434952E+03 -0.93845900579E+03  0.96947269351E+03  0.17117203870E+03 0.  0.
         24    2    5    5    0    0  0.57871219998E+02 -0.14978090471E+03 -0.93402319765E+03  0.95101423691E+03  0.79027511301E+02 0.  0.
          5    1    5    5  501    0  0.16040613338E+02 -0.64534448055E+01 -0.44358081441E+01  0.18458456598E+02  0.47000000000E+01 0. -1.
        -11    1    6    6    0    0  0.72777406721E+02 -0.82588318235E+02 -0.56258000454E+03  0.57324832555E+03  0.00000000000E+00 0.  1.
         12    1    6    6    0    0 -0.14906186722E+02 -0.67192586477E+02 -0.37144319311E+03  0.37776591136E+03  0.00000000000E+00 0. -1.
         -5    1    3    3    0  503 -0.96474363324E+02  0.58377142590E+02 -0.43954834395E+03  0.45380615931E+03  0.47000000000E+01 0.  1.
         11    1    4    4    0    0  0.22756729452E+01  0.10643695602E+03 -0.42197139704E+03  0.43519405352E+03  0.00000000000E+00 0. -1.
        -12    1    4    4    0    0  0.20286857042E+02 -0.85797490907E+01 -0.13610700278E+03  0.13787778961E+03  0.00000000000E+00 0.  1.
</event>
<event>
12    1  0.1630640E-001  0.2080248E+03  0.7818608E-02  0.1143500E+00
         21   -1    0    0  501  502  0.00000000000E+00  0.00000000000E+00  0.41792549341E+02  0.41792549341E+02  0.00000000000E+00 0.  1.
         21   -1    0    0  502  503 -0.00000000000E+00 -0.00000000000E+00 -0.11220860114E+04  0.11220860114E+04  0.00000000000E+00 0. -1.
         -6    2    1    2    0  503  0.43373459013E+02  0.10543598914E+03 -0.71206205625E+03  0.74182659153E+03  0.17400090571E+03 0.  0.
        -24    2    3    3    0    0  0.67965845969E+02  0.12160635430E+03 -0.68340822828E+03  0.70048172409E+03  0.64964433991E+02 0.  0.
          6    2    1    2  501    0 -0.43373459013E+02 -0.10543598914E+03 -0.36823140576E+03  0.42205196917E+03  0.17185892976E+03 0.  0.
         24    2    5    5    0    0  0.22140568759E+02 -0.45191000315E+02 -0.28418650124E+03  0.29954816315E+03  0.80216602165E+02 0.  0.
          5    1    5    5  501    0 -0.65514027772E+02 -0.60244988825E+02 -0.84044904516E+02  0.12250380602E+03  0.47000000000E+01 0. -1.
        -11    1    6    6    0    0 -0.27696537134E+02 -0.19879600386E+02 -0.15637772220E+03  0.16005089403E+03  0.00000000000E+00 0.  1.
         12    1    6    6    0    0  0.49837105893E+02 -0.25311399929E+02 -0.12780877905E+03  0.13949726912E+03  0.00000000000E+00 0. -1.
         -5    1    3    3    0  503 -0.24592386955E+02 -0.16170365162E+02 -0.28653827974E+02  0.41344867435E+02  0.47000000000E+01 0.  1.
         13    1    4    4    0    0  0.57502822524E+02  0.12742363736E+03 -0.59142344352E+03  0.60772119224E+03  0.00000000000E+00 0. -1.
        -14    1    4    4    0    0  0.10463023444E+02 -0.58172830597E+01 -0.91984784764E+02  0.92760531855E+02  0.00000000000E+00 0.  1.
</event>
<event>
12    1  0.1630640E-001  0.1789049E+03  0.7818608E-02  0.1168956E+00
         21   -1    0    0  503  502  0.00000000000E+00  0.00000000000E+00  0.51559428143E+03  0.51559428143E+03  0.00000000000E+00 0.  1.
         21   -1    0    0  501  503 -0.00000000000E+00 -0.00000000000E+00 -0.63227238751E+02  0.63227238751E+02  0.00000000000E+00 0.  1.
          6    2    1    2  501    0  0.42359124794E+02 -0.22869811283E+02  0.26751126596E+03  0.32182177730E+03  0.17230686349E+03 0.  0.
         24    2    3    3    0    0 -0.31518646100E+02  0.24754163689E+02  0.14697876079E+03  0.17256983316E+03  0.81064156835E+02 0.  0.
         -6    2    1    2    0  502 -0.42359124794E+02  0.22869811283E+02  0.18485577672E+03  0.25699974289E+03  0.17192988668E+03 0.  0.
        -24    2    5    5    0    0 -0.17464852459E+02  0.75395107415E+02  0.15663829269E+03  0.19221588738E+03  0.80137065908E+02 0.  0.
          5    1    3    3  501    0  0.73877770894E+02 -0.47623974973E+02  0.12053250517E+03  0.14925194413E+03  0.47000000000E+01 0. -1.
        -13    1    4    4    0    0 -0.42430830470E+02 -0.11584484005E+02  0.41488602237E+02  0.60463871523E+02  0.00000000000E+00 0.  1.
         14    1    4    4    0    0  0.10912184370E+02  0.36338647695E+02  0.10549015855E+03  0.11210596164E+03  0.00000000000E+00 0. -1.
         -5    1    5    5    0  502 -0.24894272335E+02 -0.52525296131E+02  0.28217484033E+02  0.64783855504E+02  0.47000000000E+01 0.  1.
         11    1    6    6    0    0 -0.48138878032E+02  0.31167992963E+02  0.74552693500E+02  0.94057958046E+02  0.00000000000E+00 0. -1.
        -12    1    6    6    0    0  0.30674025573E+02  0.44227114452E+02  0.82085599188E+02  0.98157929336E+02  0.00000000000E+00 0.  1.
</event>
<event>
12    1  0.1630640E-001  0.2009198E+03  0.7818608E-02  0.1149351E+00
         21   -1    0    0  501  502  0.00000000000E+00  0.00000000000E+00  0.93756330567E+02  0.93756330567E+02  0.00000000000E+00 0. -1.
         21   -1    0    0  502  503 -0.00000000000E+00 -0.00000000000E+00 -0.46759991942E+03  0.46759991942E+03  0.00000000000E+00 0. -1.
         -6    2    1    2    0  503  0.58761107383E+02 -0.85115898363E+02 -0.27075289212E+03  0.33715856299E+03  0.17225325574E+03 0.  0.
        -24    2    3    3    0    0  0.88960760980E+01 -0.38632678575E+02 -0.24985320732E+03  0.26570159768E+03  0.81234781826E+02 0.  0.
          6    2    1    2  501    0 -0.58761107383E+02  0.85115898363E+02 -0.10309069674E+03  0.22419768700E+03  0.17011562893E+03 0.  0.
         24    2    5    5    0    0  0.26358296175E+02  0.60998292091E+02 -0.62271112527E+02  0.12665128650E+03  0.88018779257E+02 0.  0.
          5    1    5    5  501    0 -0.85119403558E+02  0.24117606272E+02 -0.40819584210E+02  0.97546400495E+02  0.47000000000E+01 0. -1.
        -13    1    6    6    0    0 -0.51589238935E+00  0.40355146477E+02 -0.79110612161E+02  0.88810432656E+02  0.00000000000E+00 0.  1.
         14    1    6    6    0    0  0.26874188564E+02  0.20643145614E+02  0.16839499633E+02  0.37840853846E+02  0.00000000000E+00 0. -1.
         -5    1    3    3    0  503  0.49865031285E+02 -0.46483219789E+02 -0.20899684800E+02  0.71456965313E+02  0.47000000000E+01 0.  1.
         13    1    4    4    0    0 -0.41086430192E+00 -0.61719128390E+02 -0.20841397943E+03  0.21736100487E+03  0.00000000000E+00 0. -1.
        -14    1    4    4    0    0  0.93069404000E+01  0.23086449815E+02 -0.41439227889E+02  0.48340592805E+02  0.00000000000E+00 0.  1.
</event>
<event>
12    1  0.1630640E-001  0.1859881E+03  0.7818608E-02  0.1162135E+00
         21   -1    0    0  501  502  0.00000000000E+00  0.00000000000E+00  0.16379493736E+03  0.16379493736E+03  0.00000000000E+00 0. -1.
         21   -1    0    0  502  503 -0.00000000000E+00 -0.00000000000E+00 -0.21391240154E+03  0.21391240154E+03  0.00000000000E+00 0.  1.
         -6    2    1    2    0  503 -0.70103332999E+02 -0.13221706012E+02 -0.46466141486E+02  0.19168340800E+03  0.17173856815E+03 0.  0.
        -24    2    3    3    0    0 -0.26303991616E+02 -0.73032548177E+02 -0.34541232500E+02  0.11645035276E+03  0.79636265908E+02 0.  0.
          6    2    1    2  501    0  0.70103332999E+02  0.13221706012E+02 -0.36513226916E+01  0.18602393090E+03  0.17176227730E+03 0.  0.
         24    2    5    5    0    0 -0.52642820494E+01 -0.44823700919E+02 -0.68109147453E+01  0.90726398475E+02  0.78409272353E+02 0.  0.
          5    1    5    5  501    0  0.75367615048E+02  0.58045406931E+02  0.31595920537E+01  0.95297532423E+02  0.47000000000E+01 0. -1.
        -11    1    6    6    0    0 -0.20356124315E+02 -0.42409330231E+02 -0.35018130509E+02  0.58644629354E+02  0.00000000000E+00 0.  1.
         12    1    6    6    0    0  0.15091842265E+02 -0.24143706884E+01  0.28207215763E+02  0.32081769121E+02  0.00000000000E+00 0. -1.
         -5    1    3    3    0  503 -0.43799341383E+02  0.59810842165E+02 -0.11924908986E+02  0.75233055238E+02  0.47000000000E+01 0.  1.
         13    1    4    4    0    0 -0.15813757276E+02 -0.29085175873E+02 -0.57059157130E+02  0.65967945148E+02  0.00000000000E+00 0. -1.
        -14    1    4    4    0    0 -0.10490234340E+02 -0.43947372305E+02  0.22517924629E+02  0.50482407615E+02  0.00000000000E+00 0.  1.
</event>
<event>
12    1  0.1630640E-001  0.1889386E+03  0.7818608E-02  0.1164518E+00
         21   -1    0    0  501  502  0.00000000000E+00  0.00000000000E+00  0.21523731701E+02  0.21523731701E+02  0.00000000000E+00 0. -1.
         21   -1    0    0  502  503 -0.00000000000E+00 -0.00000000000E+00 -0.14975746694E+04  0.14975746694E+04  0.00000000000E+00 0. -1.
         -6    2    1    2    0  503 -0.47746987256E+01  0.65503495939E+01 -0.86601489633E+03  0.88638568954E+03  0.18876462891E+03 0.  0.
        -24    2    3    3    0    0 -0.58814681341E+02 -0.13661726333E+02 -0.75095187446E+03  0.75758182028E+03  0.79722563652E+02 0.  0.
          6    2    1    2  501    0  0.47746987256E+01 -0.65503495939E+01 -0.61003604136E+03  0.63271271156E+03  0.16767736512E+03 0.  0.
         24    2    5    5    0    0 -0.56449355182E+02 -0.15047534657E+02 -0.45749974081E+03  0.46806156544E+03  0.79766272330E+02 0.  0.
          5    1    5    5  501    0  0.61224053907E+02  0.84971850633E+01 -0.15253630056E+03  0.16465114612E+03  0.47000000000E+01 0. -1.
        -13    1    6    6    0    0 -0.58058649092E+02  0.20501790597E+02 -0.24596972154E+03  0.25355913327E+03  0.00000000000E+00 0.  1.
         14    1    6    6    0    0  0.16092939100E+01 -0.35549325255E+02 -0.21153001927E+03  0.21450243217E+03  0.00000000000E+00 0. -1.
         -5    1    3    3    0  503  0.54039982616E+02  0.20212075927E+02 -0.11506302187E+03  0.12880386926E+03  0.47000000000E+01 0.  1.
         11    1    4    4    0    0 -0.47618528322E+02  0.23412771045E+02 -0.27606817312E+03  0.28112153652E+03  0.00000000000E+00 0. -1.
        -12    1    4    4    0    0 -0.11196153020E+02 -0.37074497378E+02 -0.47488370134E+03  0.47646028376E+03  0.00000000000E+00 0.  1.
</event>
<event>
12    1  0.1630640E-001  0.2075482E+03  0.7818608E-02  0.1143566E+00
         21   -1    0    0  501  502  0.00000000000E+00  0.00000000000E+00  0.67745147341E+03  0.67745147341E+03  0.00000000000E+00 0. -1.
         21   -1    0    0  502  503 -0.00000000000E+00 -0.00000000000E+00 -0.64616776403E+02  0.64616776403E+02  0.00000000000E+00 0. -1.
         -6    2    1    2    0  503 -0.10423622708E+03  0.51693001950E+02  0.25820698777E+03  0.33128100217E+03  0.17186883481E+03 0.  0.
        -24    2    3    3    0    0 -0.14151286626E+03  0.48267662433E+02  0.16492665100E+03  0.23065997054E+03  0.60395059750E+02 0.  0.
          6    2    1    2  501    0  0.10423622708E+03 -0.51693001950E+02  0.35462770923E+03  0.41078724764E+03  0.17160417589E+03 0.  0.
         24    2    5    5    0    0  0.85157841168E+01  0.10483602784E+01  0.23840312532E+03  0.25118054854E+03  0.78625696600E+02 0.  0.
          5    1    5    5  501    0  0.95720442965E+02 -0.52741362228E+02  0.11622458391E+03  0.15960669910E+03  0.47000000000E+01 0. -1.
        -11    1    6    6    0    0  0.11683052374E+02 -0.22978781260E+02  0.21794753115E+03  0.21946672740E+03  0.00000000000E+00 0.  1.
         12    1    6    6    0    0 -0.31672682575E+01  0.24027141539E+02  0.20455594171E+02  0.31713821145E+02  0.00000000000E+00 0. -1.
         -5    1    3    3    0  503  0.37276639180E+02  0.34253395172E+01  0.93280336768E+02  0.10062103163E+03  0.47000000000E+01 0.  1.
         11    1    4    4    0    0 -0.10800821010E+02  0.13501394658E+02 -0.95419857747E-01  0.17290300667E+02  0.00000000000E+00 0. -1.
        -12    1    4    4    0    0 -0.13071204525E+03  0.34766267775E+02  0.16502207086E+03  0.21336966987E+03  0.00000000000E+00 0.  1.
</event>
<event>
12    1  0.1630640E-001  0.1999603E+03  0.7818608E-02  0.1150609E+00
         21   -1    0    0  501  502  0.00000000000E+00  0.00000000000E+00  0.15317025768E+04  0.15317025768E+04  0.00000000000E+00 0.  1.
         21   -1    0    0  502  503 -0.00000000000E+00 -0.00000000000E+00 -0.34382886242E+02  0.34382886242E+02  0.00000000000E+00 0.  1.
         -6    2    1    2    0  503  0.10940070224E+03 -0.71350830663E+01  0.35831497852E+03  0.41033370056E+03  0.16722648990E+03 0.  0.
        -24    2    3    3    0    0  0.14176452433E+03  0.80045161719E+01  0.28785723537E+03  0.33119453191E+03  0.81650336013E+02 0.  0.
          6    2    1    2  501    0 -0.10940070224E+03  0.71350830663E+01  0.11390047120E+04  0.11557517625E+04  0.16251455127E+03 0.  0.
         24    2    5    5    0    0 -0.70973413064E+02  0.62760779014E+02  0.87720708026E+03  0.88532438849E+03  0.73012810115E+02 0.  0.
          5    1    5    5  501    0 -0.38427289171E+02 -0.55625695948E+02  0.26179763175E+03  0.27042737397E+03  0.47000000000E+01 0. -1.
        -13    1    6    6    0    0 -0.75975954777E+02  0.35103321267E+02  0.76845247687E+03  0.77299663522E+03  0.00000000000E+00 0.  1.
         14    1    6    6    0    0  0.50025417136E+01  0.27657457747E+02  0.10875460340E+03  0.11232775326E+03  0.00000000000E+00 0. -1.
         -5    1    3    3    0  503 -0.32363822095E+02 -0.15139599238E+02  0.70457743143E+02  0.79139168650E+02  0.47000000000E+01 0.  1.
         13    1    4    4    0    0  0.77219792487E+02  0.38736051545E+02  0.20046689570E+03  0.21828961110E+03  0.00000000000E+00 0. -1.
        -14    1    4    4    0    0  0.64544731843E+02 -0.30731535373E+02  0.87390339670E+02  0.11290492081E+03  0.00000000000E+00 0.  1.
</event>
<event>
12    1  0.1630640E-001  0.1790712E+03  0.7818608E-02  0.1168812E+00
         21   -1    0    0  501  502  0.00000000000E+00  0.00000000000E+00  0.10675677516E+03  0.10675677516E+03  0.00000000000E+00 0.  1.
         21   -1    0    0  502  503 -0.00000000000E+00 -0.00000000000E+00 -0.47815713534E+03  0.47815713534E+03  0.00000000000E+00 0. -1.
         -6    2    1    2    0  503 -0.97047419730E+00  0.46293517505E+02 -0.36454106703E+03  0.40614859947E+03  0.17298110799E+03 0.  0.
        -24    2    3    3    0    0  0.34339327704E+02 -0.29692546617E+02 -0.23091859055E+03  0.24835848485E+03  0.79358079527E+02 0.  0.
          6    2    1    2  501    0  0.97047419730E+00 -0.46293517505E+02 -0.68592931572E+01  0.17876531103E+03  0.17252812798E+03 0.  0.
         24    2    5    5    0    0  0.41680101337E+02 -0.75093785394E+02 -0.18561687246E+02  0.12732830879E+03  0.92150173813E+02 0.  0.
          5    1    5    5  501    0 -0.40709627139E+02  0.28800267889E+02  0.11702394089E+02  0.51437002243E+02  0.47000000000E+01 0. -1.
        -13    1    6    6    0    0  0.15389237693E+02  0.57605975625E+01  0.26441150906E+02  0.31131135255E+02  0.00000000000E+00 0.  1.
         14    1    6    6    0    0  0.26290863644E+02 -0.80854382957E+02 -0.45002838152E+02  0.96197173535E+02  0.00000000000E+00 0. -1.
         -5    1    3    3    0  503 -0.35309801901E+02  0.75986064122E+02 -0.13362247648E+03  0.15779011462E+03  0.47000000000E+01 0.  1.
         11    1    4    4    0    0 -0.19083534013E+02 -0.30472282996E+02 -0.11950109786E+03  0.12479284311E+03  0.00000000000E+00 0. -1.
        -12    1    4    4    0    0  0.53422861717E+02  0.77973637918E+00 -0.11141749269E+03  0.12356564174E+03  0.00000000000E+00 0.  1.
</event>
<event>
12    1  0.1630640E-001  0.1850891E+03  0.7818608E-02  0.1162974E+00
         21   -1    0    0  503  502  0.00000000000E+00  0.00000000000E+00  0.16421353858E+03  0.16421353858E+03  0.00000000000E+00 0. -1.
         21   -1    0    0  501  503 -0.00000000000E+00 -0.00000000000E+00 -0.20972836477E+03  0.20972836477E+03  0.00000000000E+00 0. -1.
          6    2    1    2  501    0 -0.39028957096E+02  0.51527094988E+02 -0.36583039178E+02  0.18866983022E+03  0.17343495920E+03 0.  0.
         24    2    3    3    0    0 -0.41093487401E+02  0.22596475823E+02  0.44437570431E+02  0.10248588629E+03  0.79557424522E+02 0.  0.
         -6    2    1    2    0  502  0.39028957096E+02 -0.51527094988E+02 -0.89317870119E+01  0.18527207313E+03  0.17340029773E+03 0.  0.
        -24    2    5    5    0    0 -0.28375676261E+02  0.13504575083E+02 -0.25240462568E+02  0.90085069771E+02  0.80564795621E+02 0.  0.
          5    1    3    3  501    0  0.20645303045E+01  0.28930619165E+02 -0.81020609609E+02  0.86183943934E+02  0.47000000000E+01 0. -1.
        -13    1    4    4    0    0  0.83197353733E+01 -0.18584919002E+02 -0.54553214072E+01  0.21080269036E+02  0.00000000000E+00 0.  1.
         14    1    4    4    0    0 -0.49413222774E+02  0.41181394825E+02  0.49892891838E+02  0.81405617254E+02  0.00000000000E+00 0. -1.
         -5    1    5    5    0  502  0.67404633357E+02 -0.65031670071E+02  0.16308675556E+02  0.95187003360E+02  0.47000000000E+01 0.  1.
         11    1    6    6    0    0 -0.44561092666E+02 -0.18696093206E+02 -0.45734563197E+01  0.48540203785E+02  0.00000000000E+00 0. -1.
        -12    1    6    6    0    0  0.16185416405E+02  0.32200668289E+02 -0.20667006249E+02  0.41544865986E+02  0.00000000000E+00 0.  1.
</event>
<event>
12    1  0.1630640E-001  0.3381428E+03  0.7818608E-02  0.1067739E+00
         21   -1    0    0  501  502  0.00000000000E+00  0.00000000000E+00  0.47815730340E+03  0.47815730340E+03  0.00000000000E+00 0. -1.
         21   -1    0    0  502  503 -0.00000000000E+00 -0.00000000000E+00 -0.27901080966E+03  0.27901080966E+03  0.00000000000E+00 0. -1.
         -6    2    1    2    0  503 -0.29116854301E+03 -0.94676978383E+00 -0.45491963361E+02  0.33980909899E+03  0.16917650018E+03 0.  0.
        -24    2    3    3    0    0 -0.22574177512E+03  0.48720558216E+02  0.34522390515E+01  0.24407441156E+03  0.78913614778E+02 0.  0.
          6    2    1    2  501    0  0.29116854301E+03  0.94676978383E+00  0.24463845711E+03  0.41735901407E+03  0.17193183278E+03 0.  0.
         24    2    5    5    0    0  0.30918435995E+03  0.80017890097E+00  0.23476373845E+03  0.39628316966E+03  0.79565877990E+02 0.  0.
          5    1    5    5  501    0 -0.18015816945E+02  0.14659088286E+00  0.98747186519E+01  0.21075844408E+02  0.47000000000E+01 0. -1.
        -13    1    6    6    0    0  0.82075806157E+02  0.34293921228E+02  0.53684557298E+02  0.10389678860E+03  0.00000000000E+00 0.  1.
         14    1    6    6    0    0  0.22710855380E+03 -0.33493742327E+02  0.18107918116E+03  0.29238638106E+03  0.00000000000E+00 0. -1.
         -5    1    3    3    0  503 -0.65426767890E+02 -0.49667328000E+02 -0.48944202413E+02  0.95734687429E+02  0.47000000000E+01 0.  1.
         13    1    4    4    0    0 -0.21747018555E+03  0.34700997030E+02 -0.13420192284E+02  0.22062987640E+03  0.00000000000E+00 0. -1.
        -14    1    4    4    0    0 -0.82715895688E+01  0.14019561186E+02  0.16872431336E+02  0.23444535163E+02  0.00000000000E+00 0.  1.
</event>
<event>
12    1  0.1630640E-001  0.2477643E+03  0.7818608E-02  0.1114841E+00
         21   -1    0    0  503  502  0.00000000000E+00  0.00000000000E+00  0.59118718200E+03  0.59118718200E+03  0.00000000000E+00 0. -1.
         21   -1    0    0  501  503 -0.00000000000E+00 -0.00000000000E+00 -0.20761525067E+03  0.20761525067E+03  0.00000000000E+00 0. -1.
          6    2    1    2  501    0  0.38335669976E+02  0.17331172531E+03 -0.90863199966E+02  0.26390009494E+03  0.17285994701E+03 0.  0.
         24    2    3    3    0    0  0.49100718723E+02  0.19782070716E+03 -0.69839816386E+02  0.22953951981E+03  0.79163618179E+02 0.  0.
         -6    2    1    2    0  502 -0.38335669976E+02 -0.17331172531E+03  0.47443513129E+03  0.53490233774E+03  0.17182909937E+03 0.  0.
        -24    2    5    5    0    0 -0.69012043557E+02 -0.79561865088E+02  0.16679936470E+03  0.21180493590E+03  0.77113878616E+02 0.  0.
          5    1    3    3  501    0 -0.10765048747E+02 -0.24508981851E+02 -0.21023383579E+02  0.34360575126E+02  0.47000000000E+01 0. -1.
        -11    1    4    4    0    0  0.20811045273E+01  0.33142181140E+02  0.17236336504E+02  0.37414254809E+02  0.00000000000E+00 0.  1.
         12    1    4    4    0    0  0.47019614196E+02  0.16467852602E+03 -0.87076152891E+02  0.19212526500E+03  0.00000000000E+00 0. -1.
         -5    1    5    5    0  502  0.30676373580E+02 -0.93749860220E+02  0.30763576659E+03  0.32309740183E+03  0.47000000000E+01 0.  1.
         13    1    6    6    0    0 -0.86606036544E+01 -0.32700467465E+02  0.11403905948E+03  0.11895055155E+03  0.00000000000E+00 0. -1.
        -14    1    6    6    0    0 -0.60351439902E+02 -0.46861397623E+02  0.52760305224E+02  0.92854384349E+02  0.00000000000E+00 0.  1.
</event>
<event>
12    1  0.1630640E-001  0.1736805E+03  0.7818608E-02  0.1175093E+00
         21   -1    0    0  503  502  0.00000000000E+00  0.00000000000E+00  0.58687919113E+02  0.58687919113E+02  0.00000000000E+00 0.  1.
         21   -1    0    0  501  503 -0.00000000000E+00 -0.00000000000E+00 -0.65305672921E+03  0.65305672921E+03  0.00000000000E+00 0.  1.
          6    2    1    2  501    0  0.21397120148E+02 -0.27667726089E+02 -0.46555532053E+03  0.49550909299E+03  0.16602459136E+03 0.  0.
         24    2    3    3    0    0  0.18456569301E+02 -0.75673227597E+02 -0.22670843023E+03  0.25182260994E+03  0.77141637343E+02 0.  0.
         -6    2    1    2    0  502 -0.21397120148E+02  0.27667726089E+02 -0.12881348956E+03  0.21623555534E+03  0.17012219279E+03 0.  0.
        -24    2    5    5    0    0  0.53788287954E+02  0.24228191032E+02 -0.62073398251E+02  0.11553299439E+03  0.77553728862E+02 0.  0.
          5    1    3    3  501    0  0.29405508469E+01  0.48005501508E+02 -0.23884689030E+03  0.24368648305E+03  0.47000000000E+01 0. -1.
        -11    1    4    4    0    0  0.28008510522E+02 -0.32725405130E+02 -0.36098577349E+02  0.56200854880E+02  0.00000000000E+00 0.  1.
         12    1    4    4    0    0 -0.95519412207E+01 -0.42947822467E+02 -0.19060985288E+03  0.19562175506E+03  0.00000000000E+00 0. -1.
         -5    1    5    5    0  502 -0.75185408102E+02  0.34395350565E+01 -0.66740091312E+02  0.10070256095E+03  0.47000000000E+01 0.  1.
         11    1    6    6    0    0  0.17647669435E+02  0.33749353335E+02 -0.67759601106E+02  0.77729162025E+02  0.00000000000E+00 0. -1.
        -12    1    6    6    0    0  0.36140618519E+02 -0.95211623026E+01  0.56862028553E+01  0.37803832365E+02  0.00000000000E+00 0.  1.
</event>
<event>
12    1  0.1630640E-001  0.1844808E+03  0.7818608E-02  0.1163748E+00
         21   -1    0    0  501  502  0.00000000000E+00  0.00000000000E+00  0.36885775727E+03  0.36885775727E+03  0.00000000000E+00 0.  1.
         21   -1    0    0  502  503 -0.00000000000E+00 -0.00000000000E+00 -0.14409782060E+03  0.14409782060E+03  0.00000000000E+00 0. -1.
         -6    2    1    2    0  503  0.27929484157E+02 -0.62925768350E+02 -0.41935131672E+02  0.18918699291E+03  0.17115330733E+03 0.  0.
        -24    2    3    3    0    0 -0.27950466505E+02 -0.50766713749E+01 -0.61931646167E+02  0.10617471973E+03  0.81428134833E+02 0.  0.
          6    2    1    2  501    0 -0.27929484157E+02  0.62925768350E+02  0.26669506834E+03  0.32376858496E+03  0.17017675730E+03 0.  0.
         24    2    5    5    0    0 -0.41295759232E+02  0.97803549146E+02  0.24991451124E+03  0.28255215621E+03  0.78151033877E+02 0.  0.
          5    1    5    5  501    0  0.13366275074E+02 -0.34877780796E+02  0.16780557101E+02  0.41216428754E+02  0.47000000000E+01 0. -1.
        -13    1    6    6    0    0  0.17812544698E+01 -0.12896174595E+02  0.26294964797E+02  0.29341256966E+02  0.00000000000E+00 0.  1.
         14    1    6    6    0    0 -0.43077013701E+02  0.11069972374E+03  0.22361954644E+03  0.25321089924E+03  0.00000000000E+00 0. -1.
         -5    1    3    3    0  503  0.55879950663E+02 -0.57849096975E+02  0.19996514495E+02  0.83012273182E+02  0.47000000000E+01 0.  1.
         11    1    4    4    0    0 -0.28447175731E+02  0.35551077004E+02 -0.30457728310E+02  0.54779504352E+02  0.00000000000E+00 0. -1.
        -12    1    4    4    0    0  0.49670922598E+00 -0.40627748378E+02 -0.31473917857E+02  0.51395215377E+02  0.00000000000E+00 0.  1.
</event>
<event>
12    1  0.1630640E-001  0.2312497E+03  0.7818608E-02  0.1126071E+00
         21   -1    0    0  501  502  0.00000000000E+00  0.00000000000E+00  0.27073861380E+02  0.27073861380E+02  0.00000000000E+00 0. -1.
         21   -1    0    0  502  503 -0.00000000000E+00 -0.00000000000E+00 -0.20873862059E+04  0.20873862059E+04  0.00000000000E+00 0. -1.
         -6    2    1    2    0  503  0.82967364050E+01  0.15207714732E+03 -0.12947742474E+04  0.13152630094E+04  0.17401188868E+03 0.  0.
        -24    2    3    3    0    0 -0.33572380632E+02  0.12290920388E+03 -0.11807102319E+04  0.11902170917E+04  0.79412193677E+02 0.  0.
          6    2    1    2  501    0 -0.82967364050E+01 -0.15207714732E+03 -0.76553809712E+03  0.79919705795E+03  0.17167138587E+03 0.  0.
         24    2    5    5    0    0 -0.26008280956E+02 -0.40319673876E+02 -0.17058619078E+03  0.19356243829E+03  0.77875941413E+02 0.  0.
          5    1    5    5  501    0  0.17711544551E+02 -0.11175747344E+03 -0.59495190634E+03  0.60563461966E+03  0.47000000000E+01 0. -1.
        -13    1    6    6    0    0 -0.53258572028E+01 -0.59662831928E+02 -0.89692175429E+02  0.10785501658E+03  0.00000000000E+00 0.  1.
         14    1    6    6    0    0 -0.20682423753E+02  0.19343158053E+02 -0.80894015351E+02  0.85707421706E+02  0.00000000000E+00 0. -1.
         -5    1    3    3    0  503  0.41869117037E+02  0.29167943439E+02 -0.11406401554E+03  0.12504591768E+03  0.47000000000E+01 0.  1.
         11    1    4    4    0    0  0.60862998450E+01  0.10266574754E+03 -0.92014638166E+03  0.92587615935E+03  0.00000000000E+00 0. -1.
        -12    1    4    4    0    0 -0.39658680477E+02  0.20243456333E+02 -0.26056385022E+03  0.26434093232E+03  0.00000000000E+00 0.  1.
</event>
<event>
12    1  0.1630640E-001  0.2100282E+03  0.7818608E-02  0.1141580E+00
         21   -1    0    0  501  502  0.00000000000E+00  0.00000000000E+00  0.71548379898E+03  0.71548379898E+03  0.00000000000E+00 0. -1.
         21   -1    0    0  502  503 -0.00000000000E+00 -0.00000000000E+00 -0.72926492593E+02  0.72926492593E+02  0.00000000000E+00 0.  1.
         -6    2    1    2    0  503 -0.11743339535E+03  0.29920576725E+02  0.16603465682E+03  0.26772998304E+03  0.17154006324E+03 0.  0.
        -24    2    3    3    0    0 -0.20072922704E+02  0.67588532829E+02  0.87026728743E+02  0.13672510049E+03  0.78415365801E+02 0.  0.
          6    2    1    2  501    0  0.11743339535E+03 -0.29920576725E+02  0.47652264957E+03  0.52068030854E+03  0.17131346966E+03 0.  0.
         24    2    5    5    0    0  0.34317840181E+01  0.55430881518E+01  0.28154712117E+03  0.29200677358E+03  0.77179475324E+02 0.  0.
          5    1    5    5  501    0  0.11400161133E+03 -0.35463664877E+02  0.19497552841E+03  0.22867353496E+03  0.47000000000E+01 0. -1.
        -11    1    6    6    0    0 -0.13009396048E+02 -0.14087997002E+02  0.25273049576E+03  0.25345693823E+03  0.00000000000E+00 0.  1.
         12    1    6    6    0    0  0.16441180067E+02  0.19631085153E+02  0.28816625402E+02  0.38549835354E+02  0.00000000000E+00 0. -1.
         -5    1    3    3    0  503 -0.97360472649E+02 -0.37667956104E+02  0.79007928073E+02  0.13100488254E+03  0.47000000000E+01 0.  1.
         11    1    4    4    0    0 -0.16171975148E+02  0.77648461924E+02  0.94668866451E+02  0.12350307970E+03  0.00000000000E+00 0. -1.
        -12    1    4    4    0    0 -0.39009475562E+01 -0.10059929095E+02 -0.76421377083E+01  0.13222020798E+02  0.00000000000E+00 0.  1.
</event>
<event>
12    1  0.1630640E-001  0.1837886E+03  0.7818608E-02  0.1164546E+00
         21   -1    0    0  501  502  0.00000000000E+00  0.00000000000E+00  0.37138682872E+02  0.37138682872E+02  0.00000000000E+00 0.  1.
         21   -1    0    0  502  503 -0.00000000000E+00 -0.00000000000E+00 -0.13954088544E+04  0.13954088544E+04  0.00000000000E+00 0.  1.
         -6    2    1    2    0  503  0.57065045993E+02 -0.24318896123E+02 -0.11032303445E+04  0.11181853826E+04  0.17138707265E+03 0.  0.
        -24    2    3    3    0    0  0.74796724098E+02  0.59261955403E+01 -0.10379696326E+04  0.10439544693E+04  0.82645665210E+02 0.  0.
          6    2    1    2  501    0 -0.57065045993E+02  0.24318896123E+02 -0.25503982702E+03  0.31436215465E+03  0.17300411189E+03 0.  0.
         24    2    5    5    0    0  0.53441841975E+01  0.68348580469E+02 -0.12018914803E+03  0.15931274079E+03  0.78962201821E+02 0.  0.
          5    1    5    5  501    0 -0.62409230190E+02 -0.44029684346E+02 -0.13485067899E+03  0.15504941386E+03  0.47000000000E+01 0. -1.
        -13    1    6    6    0    0  0.39372491945E+02  0.17168571912E+02 -0.53787330602E+02  0.68833348871E+02  0.00000000000E+00 0.  1.
         14    1    6    6    0    0 -0.34028307748E+02  0.51180008557E+02 -0.66401817431E+02  0.90479391920E+02  0.00000000000E+00 0. -1.
         -5    1    3    3    0  503 -0.17731678105E+02 -0.30245091663E+02 -0.65260711932E+02  0.74230913372E+02  0.47000000000E+01 0.  1.
         11    1    4    4    0    0  0.54084920118E+02  0.23993405286E+02 -0.31782954151E+03  0.32329008574E+03  0.00000000000E+00 0. -1.
        -12    1    4    4    0    0  0.20711803979E+02 -0.18067209746E+02 -0.72014009109E+03  0.72066438353E+03  0.00000000000E+00 0.  1.
</event>
<event>
12    1  0.1630640E-001  0.5669964E+03  0.7818608E-02  0.9976355E-01
         21   -1    0    0  503  502  0.00000000000E+00  0.00000000000E+00  0.68036555700E+03  0.68036555700E+03  0.00000000000E+00 0.  1.
         21   -1    0    0  501  503 -0.00000000000E+00 -0.00000000000E+00 -0.47365980833E+03  0.47365980833E+03  0.00000000000E+00 0. -1.
          6    2    1    2  501    0 -0.51611025620E+03 -0.15938605368E+03  0.74886520083E+02  0.57192034957E+03  0.17236932643E+03 0.  0.
         24    2    3    3    0    0 -0.40420708520E+03 -0.85394578456E+02  0.10134098238E+03  0.43510300176E+03  0.91482379038E+02 0.  0.
         -6    2    1    2    0  502  0.51611025620E+03  0.15938605368E+03  0.13181922858E+03  0.58210501577E+03  0.17232594028E+03 0.  0.
        -24    2    5    5    0    0  0.36680541131E+03  0.61854278883E+02  0.46406090893E+02  0.38431250354E+03  0.84678294284E+02 0.  0.
          5    1    3    3  501    0 -0.11190317100E+03 -0.73991475226E+02 -0.26454462293E+02  0.13681734781E+03  0.47000000000E+01 0. -1.
        -11    1    4    4    0    0 -0.23686429907E+03 -0.91201628540E+02  0.81007320743E+02  0.26642938884E+03  0.00000000000E+00 0.  1.
         12    1    4    4    0    0 -0.16734278613E+03  0.58070500841E+01  0.20333661633E+02  0.16867361292E+03  0.00000000000E+00 0. -1.
         -5    1    5    5    0  502  0.14930484489E+03  0.97531774799E+02  0.85413137691E+02  0.19779251223E+03  0.47000000000E+01 0.  1.
         13    1    6    6    0    0  0.12823599639E+03  0.57309515617E+02  0.38188774149E+02  0.14555835195E+03  0.00000000000E+00 0. -1.
        -14    1    6    6    0    0  0.23856941492E+03  0.45447632651E+01  0.82173167438E+01  0.23875415159E+03  0.00000000000E+00 0.  1.
</event>
<event>
12    1  0.1630640E-001  0.1862248E+03  0.7818608E-02  0.1162017E+00
         21   -1    0    0  501  502  0.00000000000E+00  0.00000000000E+00  0.18042720906E+03  0.18042720906E+03  0.00000000000E+00 0. -1.
         21   -1    0    0  502  503 -0.00000000000E+00 -0.00000000000E+00 -0.52361740640E+03  0.52361740640E+03  0.00000000000E+00 0. -1.
         -6    2    1    2    0  503  0.53969189964E+02 -0.36556889283E+02 -0.45177348349E+03  0.48847562841E+03  0.17395424556E+03 0.  0.
        -24    2    3    3    0    0  0.63569289299E+02 -0.72779584084E+02 -0.42335252893E+03  0.44120950752E+03  0.78105975271E+02 0.  0.
          6    2    1    2  501    0 -0.53969189964E+02  0.36556889283E+02  0.10858328615E+03  0.21556898705E+03  0.17444362564E+03 0.  0.
         24    2    5    5    0    0 -0.67251804198E+02 -0.29951182773E+02  0.32344796216E+02  0.11342130554E+03  0.79989550507E+02 0.  0.
          5    1    5    5  501    0  0.13282614235E+02  0.66508072056E+02  0.76238489936E+02  0.10214768151E+03  0.47000000000E+01 0. -1.
        -11    1    6    6    0    0 -0.22206569126E+02  0.15935926406E+02 -0.17157902055E+02  0.32271954786E+02  0.00000000000E+00 0.  1.
         12    1    6    6    0    0 -0.45045235072E+02 -0.45887109179E+02  0.49502698271E+02  0.81149350753E+02  0.00000000000E+00 0. -1.
         -5    1    3    3    0  503 -0.96000993353E+01  0.36222694802E+02 -0.28420954559E+02  0.47266120890E+02  0.47000000000E+01 0.  1.
         11    1    4    4    0    0  0.39412891121E+02  0.34415874670E+01 -0.20250135180E+03  0.20632987663E+03  0.00000000000E+00 0. -1.
        -12    1    4    4    0    0  0.24156398178E+02 -0.76221171551E+02 -0.22085117713E+03  0.23487963089E+03  0.00000000000E+00 0.  1.
</event>
<event>
12    1  0.1630640E-001  0.1985032E+03  0.7818608E-02  0.1151032E+00
         21   -1    0    0  503  502  0.00000000000E+00  0.00000000000E+00  0.19393547213E+03  0.19393547213E+03  0.00000000000E+00 0. -1.
         21   -1    0    0  501  503 -0.00000000000E+00 -0.00000000000E+00 -0.27533707997E+03  0.27533707997E+03  0.00000000000E+00 0. -1.
          6    2    1    2  501    0  0.25657902676E+02 -0.94620222392E+02 -0.16090615443E+03  0.25543967811E+03  0.17247412607E+03 0.  0.
         24    2    3    3    0    0 -0.11230248584E+02 -0.12440061748E+03 -0.13712317360E+03  0.20219188180E+03  0.80480806480E+02 0.  0.
         -6    2    1    2    0  502 -0.25657902676E+02  0.94620222392E+02  0.79504546594E+02  0.21383287399E+03  0.17260420220E+03 0.  0.
        -24    2    5    5    0    0 -0.95464352636E+01  0.11154150550E+03  0.84017910500E+01  0.13884220091E+03  0.81694092718E+02 0.  0.
          5    1    3    3  501    0  0.36888151260E+02  0.29780395090E+02 -0.23782980823E+02  0.53247796311E+02  0.47000000000E+01 0. -1.
        -11    1    4    4    0    0 -0.13426210290E+02 -0.92661095990E+02 -0.43366765026E+02  0.10318438904E+03  0.00000000000E+00 0.  1.
         12    1    4    4    0    0  0.21959617057E+01 -0.31739521492E+02 -0.93756408577E+02  0.99007492755E+02  0.00000000000E+00 0. -1.
         -5    1    5    5    0  502 -0.16111467412E+02 -0.16921283106E+02  0.71102755544E+02  0.74990673087E+02  0.47000000000E+01 0.  1.
         13    1    6    6    0    0 -0.10431077998E+02  0.67423099558E+01  0.29436190971E+02  0.31949264007E+02  0.00000000000E+00 0. -1.
        -14    1    6    6    0    0  0.88464273413E+00  0.10479919554E+03 -0.21034399921E+02  0.10689293690E+03  0.00000000000E+00 0.  1.
</event>
<event>
12    1  0.1630640E-001  0.2199332E+03  0.7818608E-02  0.1134599E+00
         21   -1    0    0  501  502  0.00000000000E+00  0.00000000000E+00  0.20386838532E+02  0.20386838532E+02  0.00000000000E+00 0. -1.
         21   -1    0    0  502  503 -0.00000000000E+00 -0.00000000000E+00 -0.23504614098E+04  0.23504614098E+04  0.00000000000E+00 0.  1.
         -6    2    1    2    0  503 -0.10166264573E+03 -0.92711791169E+02 -0.12530980900E+04  0.12716444642E+04  0.16701511987E+03 0.  0.
        -24    2    3    3    0    0 -0.10517105897E+03 -0.10025390611E+03 -0.73457646267E+03  0.75303482244E+03  0.79668481596E+02 0.  0.
          6    2    1    2  501    0  0.10166264573E+03  0.92711791169E+02 -0.10769764813E+04  0.10992037842E+04  0.17158044240E+03 0.  0.
         24    2    5    5    0    0  0.35130139360E+02 -0.13423820362E+01 -0.54889706813E+03  0.55868299968E+03  0.97993744974E+02 0.  0.
          5    1    5    5  501    0  0.66532506375E+02  0.94054173205E+02 -0.52807941313E+03  0.54052078450E+03  0.47000000000E+01 0. -1.
        -11    1    6    6    0    0  0.67691281672E+01  0.18555700569E+02 -0.48966271416E+03  0.49006092352E+03  0.00000000000E+00 0.  1.
         12    1    6    6    0    0  0.28361011192E+02 -0.19898082606E+02 -0.59234353964E+02  0.68622076162E+02  0.00000000000E+00 0. -1.
         -5    1    3    3    0  503  0.35084132321E+01  0.75421149369E+01 -0.51852162737E+03  0.51860964175E+03  0.47000000000E+01 0.  1.
         11    1    4    4    0    0 -0.10860926599E+03 -0.58578041643E+02 -0.57277594988E+03  0.58591778295E+03  0.00000000000E+00 0. -1.
        -12    1    4    4    0    0  0.34382070215E+01 -0.41675864463E+02 -0.16180051279E+03  0.16711703949E+03  0.00000000000E+00 0.  1.
</event>
<event>
12    1  0.1630640E-001  0.2501727E+03  0.7818608E-02  0.1113199E+00
         21   -1    0    0  503  502  0.00000000000E+00  0.00000000000E+00  0.71372014422E+03  0.71372014422E+03  0.00000000000E+00 0. -1.
         21   -1    0    0  501  503 -0.00000000000E+00 -0.00000000000E+00 -0.16756225815E+03  0.16756225815E+03  0.00000000000E+00 0. -1.
          6    2    1    2  501    0 -0.17501005544E+03  0.45356865966E+02 -0.31165679727E+02  0.25208540874E+03  0.17288721442E+03 0.  0.
         24    2    3    3    0    0 -0.19798413248E+03  0.39159332614E+02 -0.66822357411E+01  0.21762170805E+03  0.81138064397E+02 0.  0.
         -6    2    1    2    0  502  0.17501005544E+03 -0.45356865966E+02  0.57732356580E+03  0.62919699363E+03  0.17291787752E+03 0.  0.
        -24    2    5    5    0    0  0.64207933693E+02  0.34938263981E+02  0.31868109320E+03  0.33654970300E+03  0.79779210259E+02 0.  0.
          5    1    3    3  501    0  0.22974077045E+02  0.61975333519E+01 -0.24483443986E+02  0.34463700688E+02  0.47000000000E+01 0. -1.
        -13    1    4    4    0    0 -0.12343907042E+03  0.24376949592E+02  0.35457721414E+02  0.13072371547E+03  0.00000000000E+00 0.  1.
         14    1    4    4    0    0 -0.74545062059E+02  0.14782383022E+02 -0.42139957156E+02  0.86897992579E+02  0.00000000000E+00 0. -1.
         -5    1    5    5    0  502  0.11080212174E+03 -0.80295129947E+02  0.25864247261E+03  0.29264729063E+03  0.47000000000E+01 0.  1.
         13    1    6    6    0    0  0.66537387510E+02  0.10861394890E+02  0.29533342037E+03  0.30293072314E+03  0.00000000000E+00 0. -1.
        -14    1    6    6    0    0 -0.23294538172E+01  0.24076869091E+02  0.23347672825E+02  0.33618979857E+02  0.00000000000E+00 0.  1.
</event>
<event>
12    1  0.1630640E-001  0.2133824E+03  0.7818608E-02  0.1139074E+00
         21   -1    0    0  501  502  0.00000000000E+00  0.00000000000E+00  0.34137044686E+02  0.34137044686E+02  0.00000000000E+00 0. -1.
         21   -1    0    0  502  503 -0.00000000000E+00 -0.00000000000E+00 -0.16827248948E+04  0.16827248948E+04  0.00000000000E+00 0.  1.
         -6    2    1    2    0  503 -0.88330092654E+02 -0.89239980864E+02 -0.12167921305E+04  0.12352193247E+04  0.17151592294E+03 0.  0.
        -24    2    3    3    0    0 -0.40088822313E+02 -0.12051464125E+03 -0.75866751212E+03  0.77347742655E+03  0.80994092405E+02 0.  0.
          6    2    1    2  501    0  0.88330092654E+02  0.89239980864E+02 -0.43179571966E+03  0.48164261483E+03  0.17252850619E+03 0.  0.
         24    2    5    5    0    0  0.10736533534E+03  0.10032487485E+03 -0.26340991635E+03  0.31175711193E+03  0.78837282167E+02 0.  0.
          5    1    5    5  501    0 -0.19035242690E+02 -0.11084893984E+02 -0.16838580331E+03  0.16988550290E+03  0.47000000000E+01 0. -1.
        -11    1    6    6    0    0 -0.27360432249E+01  0.41627295642E+02 -0.73884381654E+02  0.84848214638E+02  0.00000000000E+00 0.  1.
         12    1    6    6    0    0  0.11010137857E+03  0.58697579207E+02 -0.18952553469E+03  0.22690889729E+03  0.00000000000E+00 0. -1.
         -5    1    3    3    0  503 -0.48241270341E+02  0.31274660387E+02 -0.45812461834E+03  0.46174189811E+03  0.47000000000E+01 0.  1.
         13    1    4    4    0    0 -0.56195862678E+02 -0.10842409424E+03 -0.52829809743E+03  0.54222932320E+03  0.00000000000E+00 0. -1.
        -14    1    4    4    0    0  0.16107040366E+02 -0.12090547015E+02 -0.23036941470E+03  0.23124810335E+03  0.00000000000E+00 0.  1.
</event>
<event>
12    1  0.1630640E-001  0.3385349E+03  0.7818608E-02  0.1067538E+00
         21   -1    0    0  503  502  0.00000000000E+00  0.00000000000E+00  0.14504659988E+03  0.14504659988E+03  0.00000000000E+00 0. -1.
         21   -1    0    0  501  503 -0.00000000000E+00 -0.00000000000E+00 -0.15553625047E+04  0.15553625047E+04  0.00000000000E+00 0.  1.
          6    2    1    2  501    0 -0.15887825654E+03 -0.24619730642E+03 -0.13019224936E+04  0.13449446162E+04  0.16738705818E+03 0.  0.
         24    2    3    3    0    0 -0.11970450858E+03 -0.19946905690E+03 -0.73971698966E+03  0.77942252956E+03  0.78747576203E+02 0.  0.
         -6    2    1    2    0  502  0.15887825654E+03  0.24619730642E+03 -0.10839341120E+03  0.35546448835E+03  0.16955959659E+03 0.  0.
        -24    2    5    5    0    0  0.16765182849E+03  0.24595361558E+03 -0.12787910396E+03  0.33358259692E+03  0.79523374731E+02 0.  0.
          5    1    3    3  501    0 -0.39173747961E+02 -0.46728249518E+02 -0.56220550393E+03  0.56552208664E+03  0.47000000000E+01 0. -1.
        -13    1    4    4    0    0 -0.11871722376E+03 -0.13630341639E+03 -0.58555128916E+03  0.61281539861E+03  0.00000000000E+00 0.  1.
         14    1    4    4    0    0 -0.98728482042E+00 -0.63165640513E+02 -0.15416570050E+03  0.16660713095E+03  0.00000000000E+00 0. -1.
         -5    1    5    5    0  502 -0.87735719571E+01  0.24369084329E+00  0.19485692756E+02  0.21881891424E+02  0.47000000000E+01 0.  1.
         11    1    6    6    0    0  0.46911494252E+02  0.29512762360E+02 -0.16477492635E+01  0.55447330979E+02  0.00000000000E+00 0. -1.
        -12    1    6    6    0    0  0.12074033424E+03  0.21644085322E+03 -0.12623135470E+03  0.27813526595E+03  0.00000000000E+00 0.  1.
</event>
<event>
12    1  0.1630640E-001  0.2485165E+03  0.7818608E-02  0.1114606E+00
         21   -1    0    0  501  502  0.00000000000E+00  0.00000000000E+00  0.10163160640E+04  0.10163160640E+04  0.00000000000E+00 0. -1.
         21   -1    0    0  502  503 -0.00000000000E+00 -0.00000000000E+00 -0.20274649860E+03  0.20274649860E+03  0.00000000000E+00 0.  1.
         -6    2    1    2    0  503  0.33477085457E+02 -0.17292049690E+03 -0.10481761709E+03  0.26764496421E+03  0.17211879768E+03 0.  0.
        -24    2    3    3    0    0  0.47194069542E+02 -0.68925567279E+02  0.59560364150E+01  0.11501471377E+03  0.78834611614E+02 0.  0.
          6    2    1    2  501    0 -0.33477085457E+02  0.17292049690E+03  0.91838718245E+03  0.95141759835E+03  0.17532317603E+03 0.  0.
         24    2    5    5    0    0  0.33766871381E+02  0.14036454282E+03  0.55473868216E+03  0.58014416590E+03  0.89385911973E+02 0.  0.
          5    1    5    5  501    0 -0.67243956839E+02  0.32555954088E+02  0.36364850029E+03  0.37127343245E+03  0.47000000000E+01 0. -1.
        -11    1    6    6    0    0  0.31744436633E+02  0.18233919914E+02  0.23562658227E+03  0.23845349937E+03  0.00000000000E+00 0.  1.
         12    1    6    6    0    0  0.20224347480E+01  0.12213062290E+03  0.31911209989E+03  0.34169066653E+03  0.00000000000E+00 0. -1.
         -5    1    3    3    0  503 -0.13716984085E+02 -0.10399492962E+03 -0.11077365350E+03  0.15263025044E+03  0.47000000000E+01 0.  1.
         13    1    4    4    0    0 -0.13112298266E+02 -0.49715486613E+02  0.56194371542E+01  0.51721756050E+02  0.00000000000E+00 0. -1.
        -14    1    4    4    0    0  0.60306367808E+02 -0.19210080666E+02  0.33659926075E+00  0.63292957716E+02  0.00000000000E+00 0.  1.
</event>
<event>
12    1  0.1630640E-001  0.1744867E+03  0.7818608E-02  0.1174142E+00
         21   -1    0    0  501  502  0.00000000000E+00  0.00000000000E+00  0.15225864126E+03  0.15225864126E+03  0.00000000000E+00 0.  1.
         21   -1    0    0  502  503 -0.00000000000E+00 -0.00000000000E+00 -0.23203867520E+03  0.23203867520E+03  0.00000000000E+00 0.  1.
         -6    2    1    2    0  503 -0.15290656282E+01  0.30792697718E+02 -0.11531364933E+03  0.20622922440E+03  0.16817469191E+03 0.  0.
        -24    2    3    3    0    0 -0.17373953711E+02  0.75001422934E+02 -0.42606659362E+02  0.11954665260E+03  0.80925935378E+02 0.  0.
          6    2    1    2  501    0  0.15290656282E+01 -0.30792697718E+02  0.35533615380E+02  0.17806809206E+03  0.17174131510E+03 0.  0.
         24    2    5    5    0    0 -0.42406727517E+02  0.41050587273E+02  0.21885267371E+02  0.92627007557E+02  0.67950837721E+02 0.  0.
          5    1    5    5  501    0  0.43935793145E+02 -0.71843284991E+02  0.13648348009E+02  0.85441084503E+02  0.47000000000E+01 0. -1.
        -11    1    6    6    0    0 -0.62060434149E+01  0.24086786842E+02  0.41278402917E+02  0.48193306824E+02  0.00000000000E+00 0.  1.
         12    1    6    6    0    0 -0.36200684102E+02  0.16963800431E+02 -0.19393135546E+02  0.44433700733E+02  0.00000000000E+00 0. -1.
         -5    1    3    3    0  503  0.15844888083E+02 -0.44208725216E+02 -0.72706989963E+02  0.86682571795E+02  0.47000000000E+01 0.  1.
         11    1    4    4    0    0 -0.41520783961E+02  0.17109500986E+02 -0.22588955085E+01  0.44964576432E+02  0.00000000000E+00 0. -1.
        -12    1    4    4    0    0  0.24146830250E+02  0.57891921948E+02 -0.40347763854E+02  0.74582076171E+02  0.00000000000E+00 0.  1.
</event>
<event>
12    1  0.1630640E-001  0.1939591E+03  0.7818608E-02  0.1156599E+00
         21   -1    0    0  501  502  0.00000000000E+00  0.00000000000E+00  0.20619231303E+04  0.20619231303E+04  0.00000000000E+00 0. -1.
         21   -1    0    0  502  503 -0.00000000000E+00 -0.00000000000E+00 -0.22745336544E+02  0.22745336544E+02  0.00000000000E+00 0. -1.
         -6    2    1    2    0  503  0.65421463041E+02  0.60608610409E+02  0.50639792126E+03  0.53966547283E+03  0.16384931010E+03 0.  0.
        -24    2    3    3    0    0  0.29716505448E+02  0.95984991174E+02  0.28533766218E+03  0.31291437480E+03  0.80010219771E+02 0.  0.
          6    2    1    2  501    0 -0.65421463041E+02 -0.60608610409E+02  0.15327798725E+04  0.15450029940E+04  0.17224036264E+03 0.  0.
         24    2    5    5    0    0 -0.12522139730E+02  0.34673866622E+02  0.66829426768E+03  0.67366233746E+03  0.76450217088E+02 0.  0.
          5    1    5    5  501    0 -0.52899323311E+02 -0.95282477031E+02  0.86448560482E+03  0.87134065657E+03  0.47000000000E+01 0. -1.
        -13    1    6    6    0    0 -0.30797272260E+02  0.50640846791E+02  0.52402360443E+03  0.52736486928E+03  0.00000000000E+00 0.  1.
         14    1    6    6    0    0  0.18275132529E+02 -0.15966980169E+02  0.14427066324E+03  0.14629746818E+03  0.00000000000E+00 0. -1.
         -5    1    3    3    0  503  0.35704957593E+02 -0.35376380765E+02  0.22106025908E+03  0.22675109803E+03  0.47000000000E+01 0.  1.
         11    1    4    4    0    0  0.45222513655E+02  0.89349908521E+02  0.27606583201E+03  0.29366788298E+03  0.00000000000E+00 0. -1.
        -12    1    4    4    0    0 -0.15506008208E+02  0.66350826522E+01  0.92718301766E+01  0.19246491814E+02  0.00000000000E+00 0.  1.
</event>
<event>
12    1  0.1630640E-001  0.1781936E+03  0.7818608E-02  0.1169770E+00
         21   -1    0    0  501  502  0.00000000000E+00  0.00000000000E+00  0.65268327810E+02  0.65268327810E+02  0.00000000000E+00 0. -1.
         21   -1    0    0  502  503 -0.00000000000E+00 -0.00000000000E+00 -0.10645544218E+04  0.10645544218E+04  0.00000000000E+00 0. -1.
         -6    2    1    2    0  503 -0.12213783448E+02  0.40017883343E+02 -0.91728209642E+03  0.93442998406E+03  0.17321184490E+03 0.  0.
        -24    2    3    3    0    0 -0.74319922901E+02  0.76959866943E+01 -0.57990192833E+03  0.58982971509E+03  0.77654150986E+02 0.  0.
          6    2    1    2  501    0  0.12213783448E+02 -0.40017883343E+02 -0.82003997560E+02  0.19539276553E+03  0.17234578531E+03 0.  0.
         24    2    5    5    0    0 -0.17684865393E+02 -0.80914440703E+02 -0.86492122292E+02  0.14431742050E+03  0.80540235063E+02 0.  0.
          5    1    5    5  501    0  0.29898648841E+02  0.40896557360E+02  0.44881247318E+01  0.51075345031E+02  0.47000000000E+01 0. -1.
        -11    1    6    6    0    0 -0.26204016648E+02  0.65509594796E+01 -0.14150653368E+02  0.30492729451E+02  0.00000000000E+00 0.  1.
         12    1    6    6    0    0  0.85191512552E+01 -0.87465400183E+02 -0.72341468924E+02  0.11382469105E+03  0.00000000000E+00 0. -1.
         -5    1    3    3    0  503  0.62106139453E+02  0.32321896649E+02 -0.33738016809E+03  0.34460026898E+03  0.47000000000E+01 0.  1.
         13    1    4    4    0    0 -0.15895720924E+02 -0.32852666326E+02 -0.21166298540E+03  0.21478638462E+03  0.00000000000E+00 0. -1.
        -14    1    4    4    0    0 -0.58424201977E+02  0.40548653020E+02 -0.36823894293E+03  0.37504333047E+03  0.00000000000E+00 0.  1.
</event>
<event>
12    1  0.1630640E-001  0.1809797E+03  0.7818608E-02  0.1167298E+00
         21   -1    0    0  501  502  0.00000000000E+00  0.00000000000E+00  0.54377788447E+02  0.54377788447E+02  0.00000000000E+00 0.  1.
         21   -1    0    0  502  503 -0.00000000000E+00 -0.00000000000E+00 -0.10664674174E+04  0.10664674174E+04  0.00000000000E+00 0.  1.
         -6    2    1    2    0  503 -0.40629927005E+02  0.39007277365E+02 -0.87958299428E+03  0.89800885714E+03  0.17199216561E+03 0.  0.
        -24    2    3    3    0    0 -0.37737972301E+02  0.10612486535E+02 -0.85597358335E+03  0.86067091622E+03  0.80789053737E+02 0.  0.
          6    2    1    2  501    0  0.40629927005E+02 -0.39007277365E+02 -0.13250663464E+03  0.22283634867E+03  0.17007548739E+03 0.  0.
         24    2    5    5    0    0 -0.11187650967E+02 -0.37141571577E+02 -0.10253971169E+02  0.89959164884E+02  0.80516132225E+02 0.  0.
          5    1    5    5  501    0  0.51817577972E+02 -0.18657057875E+01 -0.12225266348E+03  0.13287718379E+03  0.47000000000E+01 0. -1.
        -11    1    6    6    0    0  0.17680754320E+02 -0.51656175660E+02 -0.16525253063E+02  0.57044312126E+02  0.00000000000E+00 0.  1.
         12    1    6    6    0    0 -0.28868405287E+02  0.14514604083E+02  0.62712818937E+01  0.32914852758E+02  0.00000000000E+00 0. -1.
         -5    1    3    3    0  503 -0.28919547037E+01  0.28394790829E+02 -0.23609410925E+02  0.37337940924E+02  0.47000000000E+01 0.  1.
         11    1    4    4    0    0  0.13694469389E+02  0.26271838335E+02 -0.16739057932E+03  0.16999221754E+03  0.00000000000E+00 0. -1.
        -12    1    4    4    0    0 -0.51432441690E+02 -0.15659351799E+02 -0.68858300403E+03  0.69067869867E+03  0.00000000000E+00 0.  1.
</event>
<event>
12    1  0.1630640E-001  0.1989270E+03  0.7818608E-02  0.1151311E+00
         21   -1    0    0  503  502  0.00000000000E+00  0.00000000000E+00  0.57184492844E+03  0.57184492844E+03  0.00000000000E+00 0.  1.
         21   -1    0    0  501  503 -0.00000000000E+00 -0.00000000000E+00 -0.81420101463E+02  0.81420101463E+02  0.00000000000E+00 0. -1.
          6    2    1    2  501    0  0.56019784898E+00 -0.99608776450E+02  0.11162598833E+03  0.22540932947E+03  0.16860243881E+03 0.  0.
         24    2    3    3    0    0  0.59857349558E+01 -0.53771799190E+02 -0.93583334480E+01  0.95834019113E+02  0.78545180650E+02 0.  0.
         -6    2    1    2    0  502 -0.56019784898E+00  0.99608776450E+02  0.37879883864E+03  0.42785570043E+03  0.17219093492E+03 0.  0.
        -24    2    5    5    0    0 -0.24760298445E+02  0.44132311044E+02  0.10573961907E+03  0.14812956565E+03  0.90558091426E+02 0.  0.
          5    1    3    3  501    0 -0.54255371068E+01 -0.45836977260E+02  0.12098432178E+03  0.12957531035E+03  0.47000000000E+01 0. -1.
        -13    1    4    4    0    0  0.26684296748E+02 -0.25581199012E+02 -0.36206801120E+02  0.51743423574E+02  0.00000000000E+00 0.  1.
         14    1    4    4    0    0 -0.20698561792E+02 -0.28190600178E+02  0.26848467672E+02  0.44090595539E+02  0.00000000000E+00 0. -1.
         -5    1    5    5    0  502  0.24200100596E+02  0.55476465406E+02  0.27305921958E+03  0.27972613478E+03  0.47000000000E+01 0.  1.
         11    1    6    6    0    0  0.24071101729E+02  0.33473295874E+02  0.13791680229E+02  0.43475164389E+02  0.00000000000E+00 0. -1.
        -12    1    6    6    0    0 -0.48831400174E+02  0.10659015170E+02  0.91947938838E+02  0.10465440126E+03  0.00000000000E+00 0.  1.
</event>
<event>
12    1  0.1630640E-001  0.1752540E+03  0.7818608E-02  0.1173128E+00
         21   -1    0    0  503  502  0.00000000000E+00  0.00000000000E+00  0.28672755050E+03  0.28672755050E+03  0.00000000000E+00 0. -1.
         21   -1    0    0  501  503 -0.00000000000E+00 -0.00000000000E+00 -0.11220074119E+04  0.11220074119E+04  0.00000000000E+00 0. -1.
          6    2    1    2  501    0 -0.13909152427E+02 -0.30110926637E+02 -0.10883475586E+04  0.11023676136E+04  0.17208664891E+03 0.  0.
         24    2    3    3    0    0  0.45174593577E-01 -0.11886627987E+02 -0.23888381956E+03  0.25258082723E+03  0.81180669330E+02 0.  0.
         -6    2    1    2    0  502  0.13909152427E+02  0.30110926637E+02  0.25306769721E+03  0.30636734881E+03  0.16946256408E+03 0.  0.
        -24    2    5    5    0    0  0.51047604970E+02  0.69535927739E+02  0.10776513493E+03  0.15122702531E+03  0.61767189186E+02 0.  0.
          5    1    3    3  501    0 -0.13954327020E+02 -0.18224298650E+02 -0.84946373903E+03  0.84978678634E+03  0.47000000000E+01 0. -1.
        -11    1    4    4    0    0 -0.18563247144E+02  0.28074237854E+02 -0.14512352084E+03  0.14897514315E+03  0.00000000000E+00 0.  1.
         12    1    4    4    0    0  0.18608421738E+02 -0.39960865842E+02 -0.93760298722E+02  0.10360568409E+03  0.00000000000E+00 0. -1.
         -5    1    5    5    0  502 -0.37138452543E+02 -0.39425001102E+02  0.14530256229E+03  0.15514032350E+03  0.47000000000E+01 0.  1.
         11    1    6    6    0    0  0.49957842527E+02  0.23928309820E+02  0.81631848194E+02  0.98651450473E+02  0.00000000000E+00 0. -1.
        -12    1    6    6    0    0  0.10897624430E+01  0.45607617919E+02  0.26133286731E+02  0.52575574841E+02  0.00000000000E+00 0.  1.
</event>
<event>
12    1  0.1630640E-001  0.2922241E+03  0.7818608E-02  0.1089445E+00
         21   -1    0    0  501  502  0.00000000000E+00  0.00000000000E+00  0.16531206218E+04  0.16531206218E+04  0.00000000000E+00 0. -1.
         21   -1    0    0  502  503 -0.00000000000E+00 -0.00000000000E+00 -0.60933702541E+02  0.60933702541E+02  0.00000000000E+00 0.  1.
         -6    2    1    2    0  503  0.23034169984E+03  0.44962346006E+02  0.45782089747E+03  0.54313434998E+03  0.17411501005E+03 0.  0.
        -24    2    3    3    0    0  0.66142807667E+02 -0.32628813899E+02  0.20128669318E+03  0.22878812007E+03  0.79925969074E+02 0.  0.
          6    2    1    2  501    0 -0.23034169984E+03 -0.44962346006E+02  0.11343660218E+04  0.11709199744E+04  0.17084614052E+03 0.  0.
         24    2    5    5    0    0 -0.15603346495E+03  0.14987814678E+02  0.91407728923E+03  0.93078469743E+03  0.79068233213E+02 0.  0.
          5    1    5    5  501    0 -0.74308234894E+02 -0.59950160684E+02  0.22028873260E+03  0.24013527698E+03  0.47000000000E+01 0. -1.
        -13    1    6    6    0    0 -0.39954685657E+02  0.39082774847E+02  0.24592837727E+03  0.25219953795E+03  0.00000000000E+00 0.  1.
         14    1    6    6    0    0 -0.11607877929E+03 -0.24094960168E+02  0.66814891196E+03  0.67858515948E+03  0.00000000000E+00 0. -1.
         -5    1    3    3    0  503  0.16419889217E+03  0.77591159905E+02  0.25653420429E+03  0.31434622991E+03  0.47000000000E+01 0.  1.
         13    1    4    4    0    0  0.39271676988E+02 -0.52276075789E+02  0.81629131819E+02  0.10458665247E+03  0.00000000000E+00 0. -1.
        -14    1    4    4    0    0  0.26871130679E+02  0.19647261890E+02  0.11965756136E+03  0.12420146760E+03  0.00000000000E+00 0.  1.
</event>
<event>
12    1  0.1630640E-001  0.1744508E+03  0.7818608E-02  0.1173725E+00
         21   -1    0    0  501  502  0.00000000000E+00  0.00000000000E+00  0.10670976927E+03  0.10670976927E+03  0.00000000000E+00 0. -1.
         21   -1    0    0  502  503 -0.00000000000E+00 -0.00000000000E+00 -0.33150123622E+03  0.33150123622E+03  0.00000000000E+00 0. -1.
         -6    2    1    2    0  503 -0.11615331557E+02 -0.96298740017E+01 -0.19723573521E+03  0.26331546017E+03  0.17379714014E+03 0.  0.
        -24    2    3    3    0    0  0.62548188917E+01 -0.72832061920E+02 -0.13594326963E+03  0.17335594054E+03  0.78918170033E+02 0.  0.
          6    2    1    2  501    0  0.11615331557E+02  0.96298740017E+01 -0.27555731742E+02  0.17489554532E+03  0.17205081522E+03 0.  0.
         24    2    5    5    0    0 -0.56484725600E+02 -0.18080742564E+02 -0.19177101590E+02  0.10074847863E+03  0.79152114580E+02 0.  0.
          5    1    5    5  501    0  0.68100057157E+02  0.27710616566E+02 -0.83786301524E+01  0.74147066688E+02  0.47000000000E+01 0. -1.
        -13    1    6    6    0    0 -0.74621324141E+02 -0.13159130884E+02 -0.26934965723E+02  0.80417641850E+02  0.00000000000E+00 0.  1.
         14    1    6    6    0    0  0.18136598541E+02 -0.49216116808E+01  0.77578641330E+01  0.20330836778E+02  0.00000000000E+00 0. -1.
         -5    1    3    3    0  503 -0.17870150449E+02  0.63202187918E+02 -0.61292465580E+02  0.89959519627E+02  0.47000000000E+01 0.  1.
         13    1    4    4    0    0 -0.28900813974E+02 -0.14407401830E+02 -0.75966202910E+02  0.82545104400E+02  0.00000000000E+00 0. -1.
        -14    1    4    4    0    0  0.35155632865E+02 -0.58424660090E+02 -0.59977066716E+02  0.90810836141E+02  0.00000000000E+00 0.  1.
</event>
<event>
12    1  0.1630640E-001  0.2250826E+03  0.7818608E-02  0.1130194E+00
         21   -1    0    0  503  502  0.00000000000E+00  0.00000000000E+00  0.50300739715E+03  0.50300739715E+03  0.00000000000E+00 0.  1.
         21   -1    0    0  501  503 -0.00000000000E+00 -0.00000000000E+00 -0.10885308311E+03  0.10885308311E+03  0.00000000000E+00 0.  1.
          6    2    1    2  501    0 -0.22762498070E+02  0.14244285311E+03  0.11297838078E+03  0.25184573113E+03  0.17278327477E+03 0.  0.
         24    2    3    3    0    0 -0.71339760468E+02  0.12702507126E+03  0.53997772978E+02  0.17375437107E+03  0.77782336214E+02 0.  0.
         -6    2    1    2    0  502  0.22762498070E+02 -0.14244285311E+03  0.28117593326E+03  0.36001474914E+03  0.17246047789E+03 0.  0.
        -24    2    5    5    0    0 -0.18776363059E+02 -0.11566372614E+03  0.10297628713E+03  0.17502879695E+03  0.79374521713E+02 0.  0.
          5    1    3    3  501    0  0.48577262398E+02  0.15417781858E+02  0.58980607799E+02  0.78091360059E+02  0.47000000000E+01 0. -1.
        -11    1    4    4    0    0 -0.82099758025E+01  0.70097564663E+02  0.53805835714E+02  0.88747620989E+02  0.00000000000E+00 0.  1.
         12    1    4    4    0    0 -0.63129784666E+02  0.56927506592E+02  0.19193726424E+00  0.85006750077E+02  0.00000000000E+00 0. -1.
         -5    1    5    5    0  502  0.41538861129E+02 -0.26779126970E+02  0.17819964613E+03  0.18498595219E+03  0.47000000000E+01 0.  1.
         11    1    6    6    0    0  0.77700831231E+01 -0.65155807788E+02  0.10624826522E+02  0.66472102561E+02  0.00000000000E+00 0. -1.
        -12    1    6    6    0    0 -0.26546446182E+02 -0.50507918355E+02  0.92351460605E+02  0.10855669439E+03  0.00000000000E+00 0.  1.
</event>
<event>
12    1  0.1630640E-001  0.1982237E+03  0.7818608E-02  0.1151721E+00
         21   -1    0    0  501  502  0.00000000000E+00  0.00000000000E+00  0.31005003946E+03  0.31005003946E+03  0.00000000000E+00 0.  1.
         21   -1    0    0  502  503 -0.00000000000E+00 -0.00000000000E+00 -0.13557033981E+03  0.13557033981E+03  0.00000000000E+00 0. -1.
         -6    2    1    2    0  503 -0.94279670239E+02 -0.28529336089E+02  0.14804857906E+03  0.24564225517E+03  0.16946727273E+03 0.  0.
        -24    2    3    3    0    0 -0.12645513927E+03  0.29427557027E+01  0.10065131652E+03  0.18011101174E+03  0.79433789872E+02 0.  0.
          6    2    1    2  501    0  0.94279670239E+02  0.28529336089E+02  0.26431120586E+02  0.19997812410E+03  0.17201763499E+03 0.  0.
         24    2    5    5    0    0  0.12416813235E+03 -0.82102743112E+01  0.27472791448E+02  0.15237251290E+03  0.83531399625E+02 0.  0.
          5    1    5    5  501    0 -0.29888462109E+02  0.36739610400E+02 -0.10416708618E+01  0.47605611200E+02  0.47000000000E+01 0. -1.
        -13    1    6    6    0    0  0.78492401998E+02  0.11369697679E+02  0.54087467391E+02  0.95998861064E+02  0.00000000000E+00 0.  1.
         14    1    6    6    0    0  0.45675730350E+02 -0.19579971990E+02 -0.26614675943E+02  0.56373651839E+02  0.00000000000E+00 0. -1.
         -5    1    3    3    0  503  0.32175469035E+02 -0.31472091791E+02  0.47397262538E+02  0.65531243430E+02  0.47000000000E+01 0.  1.
         11    1    4    4    0    0 -0.33223665714E+01 -0.34794343590E+01 -0.12105939624E+02  0.13026832204E+02  0.00000000000E+00 0. -1.
        -12    1    4    4    0    0 -0.12313277270E+03  0.64221900617E+01  0.11275725615E+03  0.16708417954E+03  0.00000000000E+00 0.  1.
</event>
<event>
12    1  0.1630640E-001  0.1948374E+03  0.7818608E-02  0.1154295E+00
         21   -1    0    0  503  502  0.00000000000E+00  0.00000000000E+00  0.17991368760E+04  0.17991368760E+04  0.00000000000E+00 0. -1.
         21   -1    0    0  501  503 -0.00000000000E+00 -0.00000000000E+00 -0.32229801020E+02  0.32229801020E+02  0.00000000000E+00 0.  1.
          6    2    1    2  501    0  0.90129188541E+02  0.44887348642E+01  0.34470491520E+03  0.39595844293E+03  0.17267944463E+03 0.  0.
         24    2    3    3    0    0  0.95518845005E+02 -0.52938796111E+02  0.23035226727E+03  0.26779609355E+03  0.82013503754E+02 0.  0.
         -6    2    1    2    0  502 -0.90129188541E+02 -0.44887348642E+01  0.14222021598E+04  0.14354082341E+04  0.17203021782E+03 0.  0.
        -24    2    5    5    0    0  0.13465362105E+02 -0.27371383234E+02  0.75882337744E+03  0.76358314868E+03  0.79471996390E+02 0.  0.
          5    1    3    3  501    0 -0.53896564647E+01  0.57427530975E+02  0.11435264792E+03  0.12816234938E+03  0.47000000000E+01 0. -1.
        -11    1    4    4    0    0  0.25781357430E+02  0.15841772078E+02  0.21512408776E+02  0.37127131115E+02  0.00000000000E+00 0.  1.
         12    1    4    4    0    0  0.69737487576E+02 -0.68780568189E+02  0.20883985850E+03  0.23066896243E+03  0.00000000000E+00 0. -1.
         -5    1    5    5    0  502 -0.10359455065E+03  0.22882648370E+02  0.66337878233E+03  0.67182508539E+03  0.47000000000E+01 0.  1.
         11    1    6    6    0    0 -0.19622869560E+01  0.27733600315E+02  0.23120710671E+03  0.23287277503E+03  0.00000000000E+00 0. -1.
        -12    1    6    6    0    0  0.15427649061E+02 -0.55104983549E+02  0.52761627073E+03  0.53071037366E+03  0.00000000000E+00 0.  1.
</event>
<event>
12    1  0.1630640E-001  0.2224239E+03  0.7818608E-02  0.1132162E+00
         21   -1    0    0  501  502  0.00000000000E+00  0.00000000000E+00  0.39348395204E+03  0.39348395204E+03  0.00000000000E+00 0.  1.
         21   -1    0    0  502  503 -0.00000000000E+00 -0.00000000000E+00 -0.12550650588E+03  0.12550650588E+03  0.00000000000E+00 0.  1.
         -6    2    1    2    0  503 -0.13087570950E+03  0.50360101750E+02  0.13311195563E+03  0.25887301041E+03  0.17213904728E+03 0.  0.
        -24    2    3    3    0    0 -0.13599293380E+02  0.60360222494E+02  0.78563123646E+02  0.12905997075E+03  0.81584400551E+02 0.  0.
          6    2    1    2  501    0  0.13087570950E+03 -0.50360101750E+02  0.13486549053E+03  0.26011744752E+03  0.17264934052E+03 0.  0.
         24    2    5    5    0    0  0.64572530054E+02 -0.58613509186E+02  0.15046567997E+03  0.19134473309E+03  0.79798063480E+02 0.  0.
          5    1    5    5  501    0  0.66303179451E+02  0.82534074365E+01 -0.15600189443E+02  0.68772714431E+02  0.47000000000E+01 0. -1.
        -13    1    6    6    0    0  0.58164515165E+02  0.34412419945E+00  0.63848927515E+02  0.86370798252E+02  0.00000000000E+00 0.  1.
         14    1    6    6    0    0  0.64080148895E+01 -0.58957633386E+02  0.86616752455E+02  0.10497393484E+03  0.00000000000E+00 0. -1.
         -5    1    3    3    0  503 -0.11727641613E+03 -0.10000120744E+02  0.54548831987E+02  0.12981303966E+03  0.47000000000E+01 0.  1.
         11    1    4    4    0    0 -0.90380617420E+01 -0.19931795377E+02  0.14671430134E+02  0.26347938993E+02  0.00000000000E+00 0. -1.
        -12    1    4    4    0    0 -0.45612316375E+01  0.80292017872E+02  0.63891693512E+02  0.10271203176E+03  0.00000000000E+00 0.  1.
</event>
<event>
12    1  0.1630640E-001  0.2025280E+03  0.7818608E-02  0.1147651E+00
         21   -1    0    0  503  502  0.00000000000E+00  0.00000000000E+00  0.27236739416E+04  0.27236739416E+04  0.00000000000E+00 0.  1.
         21   -1    0    0  501  503 -0.00000000000E+00 -0.00000000000E+00 -0.41695904764E+02  0.41695904764E+02  0.00000000000E+00 0.  1.
          6    2    1    2  501    0 -0.87252013676E+02 -0.61320954545E+02  0.23581458349E+03  0.31084737628E+03  0.17217549243E+03 0.  0.
         24    2    3    3    0    0  0.17497802389E+02 -0.97452700182E+01  0.90573320468E+02  0.12443468979E+03  0.82941679907E+02 0.  0.
         -6    2    1    2    0  502  0.87252013676E+02  0.61320954545E+02  0.24461634534E+04  0.24545224701E+04  0.17202250528E+03 0.  0.
        -24    2    5    5    0    0 -0.70517586157E+01 -0.70346175725E+01  0.88425126452E+03  0.88826659657E+03  0.83773710926E+02 0.  0.
          5    1    3    3  501    0 -0.10474981606E+03 -0.51575684527E+02  0.14524126302E+03  0.18641268649E+03  0.47000000000E+01 0. -1.
        -13    1    4    4    0    0 -0.13309549345E+02  0.29480722744E+02  0.52589361845E+02  0.61740570912E+02  0.00000000000E+00 0.  1.
         14    1    4    4    0    0  0.30807351733E+02 -0.39225992762E+02  0.37983958624E+02  0.62694118876E+02  0.00000000000E+00 0. -1.
         -5    1    5    5    0  502  0.94303772291E+02  0.68355572118E+02  0.15619121889E+04  0.15662558735E+04  0.47000000000E+01 0.  1.
         11    1    6    6    0    0 -0.91935514461E+01 -0.26949542682E+02  0.82913265214E+03  0.82962145229E+03  0.00000000000E+00 0. -1.
        -12    1    6    6    0    0  0.21417928305E+01  0.19914925109E+02  0.55118612372E+02  0.58645144287E+02  0.00000000000E+00 0.  1.
</event>
<event>
12    1  0.1630640E-001  0.1735937E+03  0.7818608E-02  0.1174497E+00
         21   -1    0    0  501  502  0.00000000000E+00  0.00000000000E+00  0.41835372015E+02  0.41835372015E+02  0.00000000000E+00 0. -1.
         21   -1    0    0  502  503 -0.00000000000E+00 -0.00000000000E+00 -0.11001141481E+04  0.11001141481E+04  0.00000000000E+00 0. -1.
         -6    2    1    2    0  503  0.11675416442E+02 -0.12260019991E+02 -0.86574707489E+03  0.88271363571E+03  0.17140227988E+03 0.  0.
        -24    2    3    3    0    0 -0.46684433033E+02  0.69897713009E+01 -0.31452869585E+03  0.32806039459E+03  0.80417838779E+02 0.  0.
          6    2    1    2  501    0 -0.11675416442E+02  0.12260019991E+02 -0.19253170115E+03  0.25923588436E+03  0.17276621299E+03 0.  0.
         24    2    5    5    0    0 -0.61260292277E+02 -0.24630319867E+02 -0.15742895195E+03  0.18800492137E+03  0.78755948865E+02 0.  0.
          5    1    5    5  501    0  0.49584875834E+02  0.36890339859E+02 -0.35102749197E+02  0.71230962984E+02  0.47000000000E+01 0. -1.
        -11    1    6    6    0    0 -0.25979166996E+02 -0.49259321634E+02 -0.11397320858E+03  0.12685144918E+03  0.00000000000E+00 0.  1.
         12    1    6    6    0    0 -0.35281125281E+02  0.24629001767E+02 -0.43455743372E+02  0.61153472192E+02  0.00000000000E+00 0. -1.
         -5    1    3    3    0  503  0.58359849475E+02 -0.19249791292E+02 -0.55121837904E+03  0.55465324112E+03  0.47000000000E+01 0.  1.
         11    1    4    4    0    0  0.11615594889E+02 -0.24214620845E+02 -0.10246690621E+03  0.10592797919E+03  0.00000000000E+00 0. -1.
        -12    1    4    4    0    0 -0.58300027922E+02  0.31204392145E+02 -0.21206178964E+03  0.22213241540E+03  0.00000000000E+00 0.  1.
</event>
<event>
12    1  0.1630640E-001  0.1997264E+03  0.7818608E-02  0.1150205E+00
         21   -1    0    0  501  502  0.00000000000E+00  0.00000000000E+00  0.65801241469E+03  0.65801241469E+03  0.00000000000E+00 0.  1.
         21   -1    0    0  502  503 -0.00000000000E+00 -0.00000000000E+00 -0.27370512622E+03  0.27370512622E+03  0.00000000000E+00 0. -1.
         -6    2    1    2    0  503 -0.53162979609E+02 -0.83177821139E+02 -0.21909404161E+03  0.29646728503E+03  0.17362545808E+03 0.  0.
        -24    2    3    3    0    0  0.27326551589E+02 -0.30406298840E+02 -0.62871134056E+02  0.11291597056E+03  0.84415362817E+02 0.  0.
          6    2    1    2  501    0  0.53162979609E+02  0.83177821139E+02  0.60340133009E+03  0.63525025588E+03  0.17235100844E+03 0.  0.
         24    2    5    5    0    0 -0.10201616016E+02 -0.10718876740E+02  0.19140717382E+03  0.20794130833E+03  0.79899400710E+02 0.  0.
          5    1    5    5  501    0  0.63364595625E+02  0.93896697879E+02  0.41199415627E+03  0.42730894754E+03  0.47000000000E+01 0. -1.
        -11    1    6    6    0    0 -0.77142014244E+01 -0.29093601056E+02  0.18628994086E+03  0.18870582554E+03  0.00000000000E+00 0.  1.
         12    1    6    6    0    0 -0.24874145915E+01  0.18374724316E+02  0.51172329529E+01  0.19235482790E+02  0.00000000000E+00 0. -1.
         -5    1    3    3    0  503 -0.80489531197E+02 -0.52771522299E+02 -0.15622290756E+03  0.18355131447E+03  0.47000000000E+01 0.  1.
         13    1    4    4    0    0  0.81874234269E+01 -0.53150880397E+02 -0.13761557882E+02  0.55510633798E+02  0.00000000000E+00 0. -1.
        -14    1    4    4    0    0  0.19139128162E+02  0.22744581556E+02 -0.49109576174E+02  0.57405336764E+02  0.00000000000E+00 0.  1.
</event>
<event>
12    1  0.1630640E-001  0.1915866E+03  0.7818608E-02  0.1157173E+00
         21   -1    0    0  503  502  0.00000000000E+00  0.00000000000E+00  0.22233507190E+03  0.22233507190E+03  0.00000000000E+00 0. -1.
         21   -1    0    0  501  503 -0.00000000000E+00 -0.00000000000E+00 -0.49889387033E+03  0.49889387033E+03  0.00000000000E+00 0. -1.
          6    2    1    2  501    0 -0.66963118325E+02 -0.47045689628E+02 -0.43341115093E+03  0.47362425758E+03  0.17256116447E+03 0.  0.
         24    2    3    3    0    0  0.19001945182E+01 -0.75654714222E+02 -0.31348025199E+03  0.33232265579E+03  0.80257290299E+02 0.  0.
         -6    2    1    2    0  502  0.66963118325E+02  0.47045689628E+02  0.15685235250E+03  0.24760468466E+03  0.17322835579E+03 0.  0.
        -24    2    5    5    0    0  0.10611211049E+03  0.55911312826E+02  0.11034686493E+03  0.18599224081E+03  0.89614887982E+02 0.  0.
          5    1    3    3  501    0 -0.68863312844E+02  0.28609024594E+02 -0.11993089895E+03  0.14130160178E+03  0.47000000000E+01 0. -1.
        -13    1    4    4    0    0 -0.11211076702E+02 -0.67680584671E+02 -0.11992958608E+03  0.13816459532E+03  0.00000000000E+00 0.  1.
         14    1    4    4    0    0  0.13111271220E+02 -0.79741295509E+01 -0.19355066591E+03  0.19415806048E+03  0.00000000000E+00 0. -1.
         -5    1    5    5    0  502 -0.39148992166E+02 -0.88656231978E+01  0.46505487579E+02  0.61612443850E+02  0.47000000000E+01 0.  1.
         13    1    6    6    0    0  0.90371246731E+02  0.69523972183E+01  0.97217614776E+02  0.13291562243E+03  0.00000000000E+00 0. -1.
        -14    1    6    6    0    0  0.15740863760E+02  0.48958915607E+02  0.13129250149E+02  0.53076618382E+02  0.00000000000E+00 0.  1.
</event>
<event>
12    1  0.1630640E-001  0.1855002E+03  0.7818608E-02  0.1162792E+00
         21   -1    0    0  503  502  0.00000000000E+00  0.00000000000E+00  0.16526860283E+03  0.16526860283E+03  0.00000000000E+00 0.  1.
         21   -1    0    0  501  503 -0.00000000000E+00 -0.00000000000E+00 -0.29820704241E+03  0.29820704241E+03  0.00000000000E+00 0.  1.
          6    2    1    2  501    0  0.60648559140E+02 -0.24973749200E+02  0.61656273290E+02  0.19463100322E+03  0.17256243944E+03 0.  0.
         24    2    3    3    0    0  0.14498733768E+01 -0.73056782723E+02  0.30218451458E+02  0.11200601215E+03  0.79327147395E+02 0.  0.
         -6    2    1    2    0  502 -0.60648559140E+02  0.24973749200E+02 -0.19459471287E+03  0.26884464202E+03  0.17351773221E+03 0.  0.
        -24    2    5    5    0    0 -0.94714179654E+01  0.33095127942E+02 -0.19866848568E+03  0.21665515844E+03  0.79279853837E+02 0.  0.
          5    1    3    3  501    0  0.59198685763E+02  0.48083033523E+02  0.31437821832E+02  0.82624991077E+02  0.47000000000E+01 0. -1.
        -11    1    4    4    0    0  0.34781722194E+02 -0.33864922968E+02 -0.62462259801E+01  0.48945035963E+02  0.00000000000E+00 0.  1.
         12    1    4    4    0    0 -0.33331848817E+02 -0.39191859755E+02  0.36464677438E+02  0.63060976184E+02  0.00000000000E+00 0. -1.
         -5    1    5    5    0  502 -0.51177141175E+02 -0.81213787414E+01  0.40737728114E+01  0.52189483580E+02  0.47000000000E+01 0.  1.
         13    1    6    6    0    0 -0.23287280347E+02 -0.19350069633E+02 -0.94222587427E+02  0.98967765470E+02  0.00000000000E+00 0. -1.
        -14    1    6    6    0    0  0.13815862382E+02  0.52445197575E+02 -0.10444589825E+03  0.11768739297E+03  0.00000000000E+00 0.  1.
</event>
<event>
12    1  0.1630640E-001  0.3224577E+03  0.7818608E-02  0.1074880E+00
         21   -1    0    0  501  502  0.00000000000E+00  0.00000000000E+00  0.16365657055E+04  0.16365657055E+04  0.00000000000E+00 0. -1.
         21   -1    0    0  502  503 -0.00000000000E+00 -0.00000000000E+00 -0.65252611049E+02  0.65252611049E+02  0.00000000000E+00 0.  1.
         -6    2    1    2    0  503 -0.16666722212E+03  0.21571099093E+03  0.62856884007E+03  0.70645435852E+03  0.17224917833E+03 0.  0.
        -24    2    3    3    0    0 -0.15215840194E+03  0.17133998800E+03  0.60913853332E+03  0.65567130442E+03  0.79658872017E+02 0.  0.
          6    2    1    2  501    0  0.16666722212E+03 -0.21571099093E+03  0.94274425441E+03  0.99536395805E+03  0.16635349479E+03 0.  0.
         24    2    5    5    0    0  0.82350519729E+02 -0.69307753352E+02  0.26008465099E+03  0.29209342802E+03  0.78034429807E+02 0.  0.
          5    1    5    5  501    0  0.84316702390E+02 -0.14640323758E+03  0.68265960342E+03  0.70327053003E+03  0.47000000000E+01 0. -1.
        -11    1    6    6    0    0  0.30582752782E+02 -0.68795535237E+02  0.10972071230E+03  0.13306676950E+03  0.00000000000E+00 0.  1.
         12    1    6    6    0    0  0.51767766947E+02 -0.51221811534E+00  0.15036393869E+03  0.15902665852E+03  0.00000000000E+00 0. -1.
         -5    1    3    3    0  503 -0.14508820174E+02  0.44371002934E+02  0.19430306749E+02  0.50783054108E+02  0.47000000000E+01 0.  1.
         11    1    4    4    0    0 -0.14172266610E+03  0.17343751806E+03  0.60329160433E+03  0.64352672564E+03  0.00000000000E+00 0. -1.
        -12    1    4    4    0    0 -0.10435735849E+02 -0.20975300617E+01  0.58469289884E+01  0.12144578777E+02  0.00000000000E+00 0.  1.
</event>
<event>
12    1  0.1630640E-001  0.2253619E+03  0.7818608E-02  0.1130185E+00
         21   -1    0    0  501  502  0.00000000000E+00  0.00000000000E+00  0.10989966281E+04  0.10989966281E+04  0.00000000000E+00 0. -1.
         21   -1    0    0  502  503 -0.00000000000E+00 -0.00000000000E+00 -0.46911483575E+02  0.46911483575E+02  0.00000000000E+00 0. -1.
         -6    2    1    2    0  503 -0.11570785085E+03 -0.88197458589E+02  0.44228786406E+03  0.49579987751E+03  0.17038739797E+03 0.  0.
        -24    2    3    3    0    0 -0.86354605655E+02 -0.13012048392E+03  0.33056460470E+03  0.37282292951E+03  0.73044648216E+02 0.  0.
          6    2    1    2  501    0  0.11570785085E+03  0.88197458589E+02  0.60979728046E+03  0.65010823416E+03  0.17210721782E+03 0.  0.
         24    2    5    5    0    0 -0.13061367187E+01  0.56234411776E+02  0.18663002846E+03  0.20987361170E+03  0.77795567395E+02 0.  0.
          5    1    5    5  501    0  0.11701398757E+03  0.31963046814E+02  0.42316725200E+03  0.44023462246E+03  0.47000000000E+01 0. -1.
        -11    1    6    6    0    0  0.34153704335E+02  0.25025626795E+02  0.51186267116E+02  0.66428845072E+02  0.00000000000E+00 0.  1.
         12    1    6    6    0    0 -0.35459841054E+02  0.31208784980E+02  0.13544376134E+03  0.14344476663E+03  0.00000000000E+00 0. -1.
         -5    1    3    3    0  503 -0.29353245196E+02  0.41923025331E+02  0.11172325937E+03  0.12297694800E+03  0.47000000000E+01 0.  1.
         13    1    4    4    0    0 -0.77039302202E+02 -0.50322219734E+02  0.17208970757E+03  0.19514673283E+03  0.00000000000E+00 0. -1.
        -14    1    4    4    0    0 -0.93153034526E+01 -0.79798264186E+02  0.15847489712E+03  0.17767619667E+03  0.00000000000E+00 0.  1.
</event>
<event>
12    1  0.1630640E-001  0.1777361E+03  0.7818608E-02  0.1170171E+00
         21   -1    0    0  501  502  0.00000000000E+00  0.00000000000E+00  0.14263321908E+03  0.14263321908E+03  0.00000000000E+00 0.  1.
         21   -1    0    0  502  503 -0.00000000000E+00 -0.00000000000E+00 -0.22177936080E+03  0.22177936080E+03  0.00000000000E+00 0.  1.
         -6    2    1    2    0  503 -0.22451015055E+02  0.33110624779E+02 -0.52349928830E+02  0.18466792530E+03  0.17251482845E+03 0.  0.
        -24    2    3    3    0    0  0.10077403830E+02  0.50683855714E+02 -0.92284798300E+02  0.13004375226E+03  0.75660334431E+02 0.  0.
          6    2    1    2  501    0  0.22451015055E+02 -0.33110624779E+02 -0.26796212886E+02  0.17974465459E+03  0.17317546673E+03 0.  0.
         24    2    5    5    0    0 -0.10812401544E+02  0.12517602549E+02 -0.72533906021E+02  0.10692696040E+03  0.76802401901E+02 0.  0.
          5    1    5    5  501    0  0.33263416599E+02 -0.45628227328E+02  0.45737693135E+02  0.72817694184E+02  0.47000000000E+01 0. -1.
        -13    1    6    6    0    0  0.22200051151E+02  0.13890089319E+02  0.11097334871E+01  0.26210844337E+02  0.00000000000E+00 0.  1.
         14    1    6    6    0    0 -0.33012452696E+02 -0.13724867699E+01 -0.73643639508E+02  0.80716116067E+02  0.00000000000E+00 0. -1.
         -5    1    3    3    0  503 -0.32528418885E+02 -0.17573230935E+02  0.39934869470E+02  0.54624173039E+02  0.47000000000E+01 0.  1.
         11    1    4    4    0    0 -0.41048571998E+01  0.18939239873E+02 -0.93269237323E+02  0.95261195092E+02  0.00000000000E+00 0. -1.
        -12    1    4    4    0    0  0.14182261030E+02  0.31744615841E+02  0.98443902291E+00  0.34782557166E+02  0.00000000000E+00 0.  1.
</event>
<event>
12    1  0.1630640E-001  0.1840847E+03  0.7818608E-02  0.1164085E+00
         21   -1    0    0  503  502  0.00000000000E+00  0.00000000000E+00  0.23701027781E+02  0.23701027781E+02  0.00000000000E+00 0. -1.
         21   -1    0    0  501  503 -0.00000000000E+00 -0.00000000000E+00 -0.19067199531E+04  0.19067199531E+04  0.00000000000E+00 0.  1.
          6    2    1    2  501    0 -0.99663082931E+01  0.62956110739E+02 -0.14286502367E+04  0.14404612688E+04  0.17269733355E+03 0.  0.
         24    2    3    3    0    0 -0.14634339973E+02 -0.28182786383E+02 -0.85004040455E+03  0.85468015191E+03  0.83072494510E+02 0.  0.
         -6    2    1    2    0  502  0.99663082931E+01 -0.62956110739E+02 -0.45436868864E+03  0.48995971207E+03  0.17189187023E+03 0.  0.
        -24    2    5    5    0    0 -0.51502464395E+01 -0.44689824978E+02 -0.10239478132E+03  0.13715680837E+03  0.79395172056E+02 0.  0.
          5    1    3    3  501    0  0.46680316802E+01  0.91138897122E+02 -0.57860983215E+03  0.58578111693E+03  0.47000000000E+01 0. -1.
        -13    1    4    4    0    0 -0.32216591779E+02  0.19812210370E+02 -0.36122416539E+03  0.36319874742E+03  0.00000000000E+00 0.  1.
         14    1    4    4    0    0  0.17582251805E+02 -0.47994996752E+02 -0.48881623916E+03  0.49148140449E+03  0.00000000000E+00 0. -1.
         -5    1    5    5    0  502  0.15116554733E+02 -0.18266285761E+02 -0.35197390732E+03  0.35280290370E+03  0.47000000000E+01 0.  1.
         11    1    6    6    0    0  0.23660281511E+02  0.80142139708E+01 -0.99006795305E+01  0.26871174182E+02  0.00000000000E+00 0. -1.
        -12    1    6    6    0    0 -0.28810527951E+02 -0.52704038949E+02 -0.92494101793E+02  0.11028563419E+03  0.00000000000E+00 0.  1.
</event>
<event>
12    1  0.1630640E-001  0.1891242E+03  0.7818608E-02  0.1159496E+00
         21   -1    0    0  503  502  0.00000000000E+00  0.00000000000E+00  0.80358398954E+03  0.80358398954E+03  0.00000000000E+00 0.  1.
         21   -1    0    0  501  503 -0.00000000000E+00 -0.00000000000E+00 -0.56220253285E+02  0.56220253285E+02  0.00000000000E+00 0.  1.
          6    2    1    2  501    0  0.75208497570E+02 -0.19498882366E+02  0.17456425475E+03  0.25659016509E+03  0.17125801956E+03 0.  0.
         24    2    3    3    0    0 -0.53296169449E+01 -0.28878705954E+02  0.28203501107E+02  0.89204594660E+02  0.79370257398E+02 0.  0.
         -6    2    1    2    0  502 -0.75208497570E+02  0.19498882366E+02  0.57279948151E+03  0.60321407774E+03  0.17242810980E+03 0.  0.
        -24    2    5    5    0    0 -0.10211386661E+03  0.57013336430E+01  0.26763865935E+03  0.29652288352E+03  0.76391239752E+02 0.  0.
          5    1    3    3  501    0  0.80538114515E+02  0.93798235879E+01  0.14636075364E+03  0.16738557043E+03  0.47000000000E+01 0. -1.
        -13    1    4    4    0    0  0.34615520791E+02 -0.15645468966E+02 -0.97236540617E+00  0.37999479908E+02  0.00000000000E+00 0.  1.
         14    1    4    4    0    0 -0.39945137736E+02 -0.13233236989E+02  0.29175866513E+02  0.51205114752E+02  0.00000000000E+00 0. -1.
         -5    1    5    5    0  502  0.26905369042E+02  0.13797548723E+02  0.30516082216E+03  0.30669119422E+03  0.47000000000E+01 0.  1.
         13    1    6    6    0    0 -0.97706760615E+01 -0.12018475103E+02  0.31346345304E+01  0.15803030979E+02  0.00000000000E+00 0. -1.
        -14    1    6    6    0    0 -0.92343190550E+02  0.17719808746E+02  0.26450402482E+03  0.28071985254E+03  0.00000000000E+00 0.  1.
</event>
<event>
12    1  0.1630640E-001  0.1751987E+03  0.7818608E-02  0.1172783E+00
         21   -1    0    0  501  502  0.00000000000E+00  0.00000000000E+00  0.12821379840E+03  0.12821379840E+03  0.00000000000E+00 0.  1.
         21   -1    0    0  502  503 -0.00000000000E+00 -0.00000000000E+00 -0.61415083395E+03  0.61415083395E+03  0.00000000000E+00 0.  1.
         -6    2    1    2    0  503 -0.32902018973E+02  0.16377102166E+02 -0.53370914398E+03  0.56172951221E+03  0.17130044425E+03 0.  0.
        -24    2    3    3    0    0  0.40561059482E+02  0.37996274509E+02 -0.26058616128E+03  0.27803519400E+03  0.79432394083E+02 0.  0.
          6    2    1    2  501    0  0.32902018973E+02 -0.16377102166E+02  0.47772108422E+02  0.18063512014E+03  0.17028247108E+03 0.  0.
         24    2    5    5    0    0  0.11574542145E+02 -0.32723939353E+02  0.94043445587E+02  0.12692099726E+03  0.77845639922E+02 0.  0.
          5    1    5    5  501    0  0.21327476827E+02  0.16346837188E+02 -0.46271337164E+02  0.53714122881E+02  0.47000000000E+01 0. -1.
        -13    1    6    6    0    0  0.17299211134E+02  0.22816039290E+02  0.40198485496E+02  0.49353344273E+02  0.00000000000E+00 0.  1.
         14    1    6    6    0    0 -0.57246689883E+01 -0.55539978643E+02  0.53844960090E+02  0.77567652987E+02  0.00000000000E+00 0. -1.
         -5    1    3    3    0  503 -0.73463078455E+02 -0.21619172343E+02 -0.27312298270E+03  0.28369431821E+03  0.47000000000E+01 0.  1.
         11    1    4    4    0    0  0.43441935839E+02  0.15524083889E+02 -0.57638290597E+02  0.73826631462E+02  0.00000000000E+00 0. -1.
        -12    1    4    4    0    0 -0.28808763564E+01  0.22472190620E+02 -0.20294787068E+03  0.20420856254E+03  0.00000000000E+00 0.  1.
</event>
<event>
12    1  0.1630640E-001  0.3071606E+03  0.7818608E-02  0.1081888E+00
         21   -1    0    0  501  502  0.00000000000E+00  0.00000000000E+00  0.41544831957E+03  0.41544831957E+03  0.00000000000E+00 0. -1.
         21   -1    0    0  502  503 -0.00000000000E+00 -0.00000000000E+00 -0.78403488276E+03  0.78403488276E+03  0.00000000000E+00 0. -1.
         -6    2    1    2    0  503  0.13350323427E+03 -0.21632982328E+03 -0.69012195037E+03  0.75481185321E+03  0.16985558971E+03 0.  0.
        -24    2    3    3    0    0  0.76359492233E+02 -0.71063337612E+02 -0.44593564312E+03  0.46495533394E+03  0.80275119105E+02 0.  0.
          6    2    1    2  501    0 -0.13350323427E+03  0.21632982328E+03  0.32153538719E+03  0.44467134912E+03  0.17241199934E+03 0.  0.
         24    2    5    5    0    0 -0.15622467324E+03  0.21808649839E+03  0.31002756389E+03  0.41871234887E+03  0.85059222999E+02 0.  0.
          5    1    5    5  501    0  0.22721438979E+02 -0.17566751108E+01  0.11507823296E+02  0.25959000245E+02  0.47000000000E+01 0. -1.
        -13    1    6    6    0    0 -0.21024467600E+02  0.95714513721E+02  0.12618179720E+03  0.15976589849E+03  0.00000000000E+00 0.  1.
         14    1    6    6    0    0 -0.13520020564E+03  0.12237198467E+03  0.18384576669E+03  0.25894645039E+03  0.00000000000E+00 0. -1.
         -5    1    3    3    0  503  0.57143742033E+02 -0.14526648567E+03 -0.24418630725E+03  0.28985651927E+03  0.47000000000E+01 0.  1.
         11    1    4    4    0    0  0.67371307497E+01 -0.18726980217E+01 -0.20047045051E+03  0.20059236640E+03  0.00000000000E+00 0. -1.
        -12    1    4    4    0    0  0.69622361483E+02 -0.69190639590E+02 -0.24546519261E+03  0.26436296754E+03  0.00000000000E+00 0.  1.
</event>
<event>
12    1  0.1630640E-001  0.3025385E+03  0.7818608E-02  0.1084105E+00
         21   -1    0    0  501  502  0.00000000000E+00  0.00000000000E+00  0.43015463930E+03  0.43015463930E+03  0.00000000000E+00 0.  1.
         21   -1    0    0  502  503 -0.00000000000E+00 -0.00000000000E+00 -0.22513110987E+03  0.22513110987E+03  0.00000000000E+00 0. -1.
         -6    2    1    2    0  503  0.17162045702E+03 -0.18005835142E+03  0.23748274277E+02  0.30346910031E+03  0.17220604846E+03 0.  0.
        -24    2    3    3    0    0  0.90920285660E+02 -0.16511811506E+03 -0.27444355939E+02  0.20662642527E+03  0.80067450821E+02 0.  0.
          6    2    1    2  501    0 -0.17162045702E+03  0.18005835142E+03  0.18127525515E+03  0.35181664886E+03  0.17041022592E+03 0.  0.
         24    2    5    5    0    0 -0.13448309813E+03  0.11714820600E+03  0.19247512017E+03  0.27775993547E+03  0.91074167659E+02 0.  0.
          5    1    5    5  501    0 -0.37137358890E+02  0.62910145418E+02 -0.11199865016E+02  0.74056713390E+02  0.47000000000E+01 0. -1.
        -13    1    6    6    0    0 -0.86427556807E+02  0.12095442911E+03  0.12166858723E+03  0.19210138369E+03  0.00000000000E+00 0.  1.
         14    1    6    6    0    0 -0.48055541323E+02 -0.38062231059E+01  0.70806532935E+02  0.85658551777E+02  0.00000000000E+00 0. -1.
         -5    1    3    3    0  503  0.80700171361E+02 -0.14940236357E+02  0.51192630216E+02  0.96842675038E+02  0.47000000000E+01 0.  1.
         13    1    4    4    0    0  0.31348281625E+02 -0.53623631873E+02 -0.48071091676E+02  0.78543227022E+02  0.00000000000E+00 0. -1.
        -14    1    4    4    0    0  0.59572004035E+02 -0.11149448319E+03  0.20626735737E+02  0.12808319825E+03  0.00000000000E+00 0.  1.
</event>
<event>
12    1  0.1630640E-001  0.2151282E+03  0.7818608E-02  0.1137798E+00
         21   -1    0    0  501  502  0.00000000000E+00  0.00000000000E+00  0.37361839229E+03  0.37361839229E+03  0.00000000000E+00 0. -1.
         21   -1    0    0  502  503 -0.00000000000E+00 -0.00000000000E+00 -0.13444461217E+03  0.13444461217E+03  0.00000000000E+00 0. -1.
         -6    2    1    2    0  503 -0.11612382798E+03 -0.53747143398E+02  0.19279993534E+03  0.28799333262E+03  0.17144925116E+03 0.  0.
        -24    2    3    3    0    0 -0.79486324603E+02  0.87012259431E+01  0.40853717003E+02  0.11961326031E+03  0.79022267219E+02 0.  0.
          6    2    1    2  501    0  0.11612382798E+03  0.53747143398E+02  0.46373844783E+02  0.22006967184E+03  0.17293532934E+03 0.  0.
         24    2    5    5    0    0 -0.69876727583E+01  0.33276320557E+02  0.37530833805E+02  0.94866696457E+02  0.80218361553E+02 0.  0.
          5    1    5    5  501    0  0.12311150073E+03  0.20470822842E+02  0.88430109779E+01  0.12520297538E+03  0.47000000000E+01 0. -1.
        -13    1    6    6    0    0  0.35619595889E+01  0.84688411617E+01 -0.25074216884E+02  0.26704403740E+02  0.00000000000E+00 0.  1.
         14    1    6    6    0    0 -0.10549632347E+02  0.24807479395E+02  0.62605050690E+02  0.68162292717E+02  0.00000000000E+00 0. -1.
         -5    1    3    3    0  503 -0.36637503372E+02 -0.62448369341E+02  0.15194621834E+03  0.16838007232E+03  0.47000000000E+01 0.  1.
         11    1    4    4    0    0 -0.72247528322E+02 -0.21377938148E+02  0.45961754002E+02  0.88256469559E+02  0.00000000000E+00 0. -1.
        -12    1    4    4    0    0 -0.72387962814E+01  0.30079164091E+02 -0.51080369990E+01  0.31356790748E+02  0.00000000000E+00 0.  1.
</event>
<event>
12    1  0.1630640E-001  0.1810595E+03  0.7818608E-02  0.1167173E+00
         21   -1    0    0  501  502  0.00000000000E+00  0.00000000000E+00  0.22566743014E+04  0.22566743014E+04  0.00000000000E+00 0.  1.
         21   -1    0    0  502  503 -0.00000000000E+00 -0.00000000000E+00 -0.40629319935E+02  0.40629319935E+02  0.00000000000E+00 0.  1.
         -6    2    1    2    0  503  0.17558325725E+02  0.50728914559E+02  0.18682480826E+03  0.26016540833E+03  0.17291851589E+03 0.  0.
        -24    2    3    3    0    0 -0.49587722981E+02  0.29326360451E+02  0.60612785525E+02  0.11553406366E+03  0.79719711552E+02 0.  0.
          6    2    1    2  501    0 -0.17558325725E+02 -0.50728914559E+02  0.20292201732E+04  0.20371382130E+04  0.17121877797E+03 0.  0.
         24    2    5    5    0    0  0.25982575198E+02 -0.86098491847E+02  0.13298703544E+04  0.13355264428E+04  0.83592316187E+02 0.  0.
          5    1    5    5  501    0 -0.43540900923E+02  0.35369577288E+02  0.69934981879E+03  0.70161177021E+03  0.47000000000E+01 0. -1.
        -11    1    6    6    0    0  0.27410319938E+02 -0.39208358996E+02  0.10934911952E+04  0.10945371693E+04  0.00000000000E+00 0.  1.
         12    1    6    6    0    0 -0.14277447399E+01 -0.46890132851E+02  0.23637915923E+03  0.24098927348E+03  0.00000000000E+00 0. -1.
         -5    1    3    3    0  503  0.67146048706E+02  0.21402554108E+02  0.12621202273E+03  0.14463134467E+03  0.47000000000E+01 0.  1.
         11    1    4    4    0    0 -0.40294905179E+02 -0.18293729801E+02  0.48239404058E+02  0.65462814157E+02  0.00000000000E+00 0. -1.
        -12    1    4    4    0    0 -0.92928178029E+01  0.47620090252E+02  0.12373381466E+02  0.50071249508E+02  0.00000000000E+00 0.  1.
</event>
<event>
12    1  0.1630640E-001  0.1828584E+03  0.7818608E-02  0.1165296E+00
         21   -1    0    0  501  502  0.00000000000E+00  0.00000000000E+00  0.98102144666E+03  0.98102144666E+03  0.00000000000E+00 0.  1.
         21   -1    0    0  502  503 -0.00000000000E+00 -0.00000000000E+00 -0.36714218731E+02  0.36714218731E+02  0.00000000000E+00 0.  1.
         -6    2    1    2    0  503 -0.25006321895E+02  0.54312321311E+02  0.33250999365E+03  0.37947341987E+03  0.17280635443E+03 0.  0.
        -24    2    3    3    0    0 -0.51769666104E+02 -0.24013453794E+02  0.20084996571E+03  0.22388532072E+03  0.80790988472E+02 0.  0.
          6    2    1    2  501    0  0.25006321895E+02 -0.54312321311E+02  0.61179723428E+03  0.63826224552E+03  0.17177803644E+03 0.  0.
         24    2    5    5    0    0  0.66539689037E+02 -0.77822940094E+02  0.49765696959E+03  0.51445651139E+03  0.80740959258E+02 0.  0.
          5    1    5    5  501    0 -0.41533367142E+02  0.23510618783E+02  0.11414026469E+03  0.12380573414E+03  0.47000000000E+01 0. -1.
        -13    1    6    6    0    0  0.32447154501E+02 -0.56847038951E+02  0.43639443627E+03  0.44127599944E+03  0.00000000000E+00 0.  1.
         14    1    6    6    0    0  0.34092534536E+02 -0.20975901143E+02  0.61262533319E+02  0.73180511945E+02  0.00000000000E+00 0. -1.
         -5    1    3    3    0  503  0.26763344209E+02  0.78325775105E+02  0.13166002794E+03  0.15558809915E+03  0.47000000000E+01 0.  1.
         11    1    4    4    0    0 -0.52992662701E+02 -0.48555829697E+01  0.54101515550E+02  0.75886579650E+02  0.00000000000E+00 0. -1.
        -12    1    4    4    0    0  0.12229965971E+01 -0.19157870824E+02  0.14674845016E+03  0.14799874108E+03  0.00000000000E+00 0.  1.
</event>
<event>
12    1  0.1630640E-001  0.1854481E+03  0.7818608E-02  0.1162796E+00
         21   -1    0    0  501  502  0.00000000000E+00  0.00000000000E+00  0.33767800964E+02  0.33767800964E+02  0.00000000000E+00 0. -1.
         21   -1    0    0  502  503 -0.00000000000E+00 -0.00000000000E+00 -0.14972154554E+04  0.14972154554E+04  0.00000000000E+00 0. -1.
         -6    2    1    2    0  503 -0.70711181129E+01 -0.65805075411E+02 -0.11653936335E+04  0.11799459195E+04  0.17248113917E+03 0.  0.
        -24    2    3    3    0    0  0.34175852280E+01 -0.10813332504E+03 -0.70928977280E+03  0.72173798054E+03  0.78161594678E+02 0.  0.
          6    2    1    2  501    0  0.70711181129E+01  0.65805075411E+02 -0.29805402096E+03  0.35103733685E+03  0.17323597719E+03 0.  0.
         24    2    5    5    0    0  0.33293842574E+02  0.80939391416E+02 -0.29767640283E+03  0.32039567576E+03  0.79890445027E+02 0.  0.
          5    1    5    5  501    0 -0.26222724461E+02 -0.15134316005E+02 -0.37761813145E+00  0.30641661093E+02  0.47000000000E+01 0. -1.
        -11    1    6    6    0    0  0.40626469294E+02  0.85116046119E+01 -0.15166722276E+03  0.15724472608E+03  0.00000000000E+00 0.  1.
         12    1    6    6    0    0 -0.73326267203E+01  0.72427786804E+02 -0.14600918007E+03  0.16315094968E+03  0.00000000000E+00 0. -1.
         -5    1    3    3    0  503 -0.10488703341E+02  0.42328249632E+02 -0.45610386070E+03  0.45820793900E+03  0.47000000000E+01 0.  1.
         13    1    4    4    0    0  0.39890066889E+02 -0.52486651530E+02 -0.39733162641E+03  0.40276356261E+03  0.00000000000E+00 0. -1.
        -14    1    4    4    0    0 -0.36472481661E+02 -0.55646673514E+02 -0.31195814640E+03  0.31897441793E+03  0.00000000000E+00 0.  1.
</event>
<event>
12    1  0.1630640E-001  0.2315034E+03  0.7818608E-02  0.1126878E+00
         21   -1    0    0  501  502  0.00000000000E+00  0.00000000000E+00  0.18860093993E+03  0.18860093993E+03  0.00000000000E+00 0. -1.
         21   -1    0    0  502  503 -0.00000000000E+00 -0.00000000000E+00 -0.27684734606E+03  0.27684734606E+03  0.00000000000E+00 0. -1.
         -6    2    1    2    0  503 -0.85129771133E+02  0.11967073881E+03 -0.60829833832E+02  0.23232705892E+03  0.16943267089E+03 0.  0.
        -24    2    3    3    0    0 -0.75819263157E+02  0.63895842598E+02  0.24159927117E+02  0.13013667742E+03  0.80750314947E+02 0.  0.
          6    2    1    2  501    0  0.85129771133E+02 -0.11967073881E+03 -0.27416572301E+02  0.23312122706E+03  0.17895718597E+03 0.  0.
         24    2    5    5    0    0  0.24350851540E+02 -0.11340182126E+01  0.28679928164E+02  0.88504704626E+02  0.80101775845E+02 0.  0.
          5    1    5    5  501    0  0.60778919593E+02 -0.11853672060E+03 -0.56096500465E+02  0.14461652244E+03  0.47000000000E+01 0. -1.
        -13    1    6    6    0    0  0.20767204022E+02  0.35693884529E+02 -0.63054855645E+00  0.41300456984E+02  0.00000000000E+00 0.  1.
         14    1    6    6    0    0  0.35836475179E+01 -0.36827902741E+02  0.29310476720E+02  0.47204247642E+02  0.00000000000E+00 0. -1.
         -5    1    3    3    0  503 -0.93105079765E+01  0.55774896212E+02 -0.84989760950E+02  0.10219038151E+03  0.47000000000E+01 0.  1.
         11    1    4    4    0    0 -0.69781042391E+02  0.47620073801E+02 -0.16363601765E+02  0.86051337983E+02  0.00000000000E+00 0. -1.
        -12    1    4    4    0    0 -0.60382207661E+01  0.16275768796E+02  0.40523528883E+02  0.44085339434E+02  0.00000000000E+00 0.  1.
</event>
<event>
12    1  0.1630640E-001  0.1818453E+03  0.7818608E-02  0.1166260E+00
         21   -1    0    0  503  502  0.00000000000E+00  0.00000000000E+00  0.17908358385E+03  0.17908358385E+03  0.00000000000E+00 0. -1.
         21   -1    0    0  501  503 -0.00000000000E+00 -0.00000000000E+00 -0.23168732787E+03  0.23168732787E+03  0.00000000000E+00 0.  1.
          6    2    1    2  501    0  0.20887634888E+02 -0.57035129936E+02 -0.11985848585E+03  0.21779299062E+03  0.17140137337E+03 0.  0.
         24    2    3    3    0    0 -0.84812596390E+01  0.27677852329E+02 -0.89007587564E+02  0.12285780612E+03  0.79584512357E+02 0.  0.
         -6    2    1    2    0  502 -0.20887634888E+02  0.57035129936E+02  0.67254741829E+02  0.19297792110E+03  0.17037599126E+03 0.  0.
        -24    2    5    5    0    0  0.11493645148E+02 -0.26393607729E+02  0.57210887015E+02  0.10280103612E+03  0.80412940670E+02 0.  0.
          5    1    3    3  501    0  0.29368894527E+02 -0.84712982265E+02 -0.30850898290E+02  0.94935184496E+02  0.47000000000E+01 0. -1.
        -11    1    4    4    0    0 -0.39357948347E+02 -0.49895318312E+01 -0.44089268540E+02  0.59311104579E+02  0.00000000000E+00 0.  1.
         12    1    4    4    0    0  0.30876688707E+02  0.32667384160E+02 -0.44918319024E+02  0.63546701546E+02  0.00000000000E+00 0. -1.
         -5    1    5    5    0  502 -0.32381280036E+02  0.83428737665E+02  0.10043854813E+02  0.90176884980E+02  0.47000000000E+01 0.  1.
         11    1    6    6    0    0 -0.31133299667E+01 -0.36716167047E+02 -0.57992118484E+01  0.37301482600E+02  0.00000000000E+00 0. -1.
        -12    1    6    6    0    0  0.14606975115E+02  0.10322559318E+02  0.63010098864E+02  0.65499553523E+02  0.00000000000E+00 0.  1.
</event>
<event>
12    1  0.1630640E-001  0.3508676E+03  0.7818608E-02  0.1062491E+00
         21   -1    0    0  501  502  0.00000000000E+00  0.00000000000E+00  0.10464070042E+04  0.10464070042E+04  0.00000000000E+00 0. -1.
         21   -1    0    0  502  503 -0.00000000000E+00 -0.00000000000E+00 -0.11981876680E+03  0.11981876680E+03  0.00000000000E+00 0.  1.
         -6    2    1    2    0  503  0.18722825430E+02 -0.30558395176E+03  0.37363629258E+03  0.51255450254E+03  0.17139411651E+03 0.  0.
        -24    2    3    3    0    0  0.22071017841E+02 -0.17666835544E+03  0.31228040055E+03  0.36966616553E+03  0.86227534612E+02 0.  0.
          6    2    1    2  501    0 -0.18722825430E+02  0.30558395176E+03  0.55295194477E+03  0.65367126842E+03  0.16672785660E+03 0.  0.
         24    2    5    5    0    0  0.27977152193E+02  0.21208787560E+03  0.46112351193E+03  0.51447013608E+03  0.79250486685E+02 0.  0.
          5    1    5    5  501    0 -0.46699977624E+02  0.93496076157E+02  0.91828432841E+02  0.13920113234E+03  0.47000000000E+01 0. -1.
        -13    1    6    6    0    0 -0.27430329281E+02  0.88750808047E+02  0.19181413421E+03  0.21312388645E+03  0.00000000000E+00 0.  1.
         14    1    6    6    0    0  0.55407481474E+02  0.12333706756E+03  0.26930937772E+03  0.30134624963E+03  0.00000000000E+00 0. -1.
         -5    1    3    3    0  503 -0.33481924103E+01 -0.12891559632E+03  0.61355892031E+02  0.14288833701E+03  0.47000000000E+01 0.  1.
         11    1    4    4    0    0 -0.24357822628E+02 -0.71208803838E+02  0.17460428332E+03  0.19013325070E+03  0.00000000000E+00 0. -1.
        -12    1    4    4    0    0  0.46428840468E+02 -0.10545955160E+03  0.13767611723E+03  0.17953291483E+03  0.00000000000E+00 0.  1.
</event>
<event>
12    1  0.1630640E-001  0.1729955E+03  0.7818608E-02  0.1175777E+00
         21   -1    0    0  503  502  0.00000000000E+00  0.00000000000E+00  0.10987626350E+03  0.10987626350E+03  0.00000000000E+00 0.  1.
         21   -1    0    0  501  503 -0.00000000000E+00 -0.00000000000E+00 -0.60375795907E+03  0.60375795907E+03  0.00000000000E+00 0.  1.
          6    2    1    2  501    0 -0.18520041198E+02 -0.51260916783E+01 -0.51247948201E+03  0.53964188123E+03  0.16795496941E+03 0.  0.
         24    2    3    3    0    0 -0.70671507905E+02 -0.76451909372E+01 -0.41693608321E+03  0.43066136739E+03  0.81120927682E+02 0.  0.
         -6    2    1    2    0  502  0.18520041198E+02  0.51260916783E+01  0.18597786435E+02  0.17399234134E+03  0.17192495003E+03 0.  0.
        -24    2    5    5    0    0  0.38368454365E+02  0.55310142386E+02  0.44523890852E+02  0.11393693908E+03  0.80423249680E+02 0.  0.
          5    1    3    3  501    0  0.52151466707E+02  0.25190992589E+01 -0.95543398800E+02  0.10898051383E+03  0.47000000000E+01 0. -1.
        -11    1    4    4    0    0 -0.59008008555E+02  0.18723359167E+02 -0.37304525209E+03  0.37814715305E+03  0.00000000000E+00 0.  1.
         12    1    4    4    0    0 -0.11663499350E+02 -0.26368550104E+02 -0.43890831117E+02  0.52514214341E+02  0.00000000000E+00 0. -1.
         -5    1    5    5    0  502 -0.19848413167E+02 -0.50184050708E+02 -0.25926104417E+02  0.60055402263E+02  0.47000000000E+01 0.  1.
         11    1    6    6    0    0  0.25134586427E+02 -0.80177145478E+01 -0.11094376610E+02  0.28620209185E+02  0.00000000000E+00 0. -1.
        -12    1    6    6    0    0  0.13233867938E+02  0.63327856934E+02  0.55618267462E+02  0.85316729895E+02  0.00000000000E+00 0.  1.
</event>
<event>
12    1  0.1630640E-001  0.3289867E+03  0.7818608E-02  0.1071707E+00
         21   -1    0    0  503  502  0.00000000000E+00  0.00000000000E+00  0.51030402588E+03  0.51030402588E+03  0.00000000000E+00 0.  1.
         21   -1    0    0  501  503 -0.00000000000E+00 -0.00000000000E+00 -0.27000844263E+03  0.27000844263E+03  0.00000000000E+00 0.  1.
          6    2    1    2  501    0  0.26305114276E+03  0.95592467742E+02 -0.61481605157E+02  0.33468228788E+03  0.17291160299E+03 0.  0.
         24    2    3    3    0    0  0.10779466022E+03  0.52862659242E+02  0.32899517325E+02  0.14797316066E+03  0.79997053205E+02 0.  0.
         -6    2    1    2    0  502 -0.26305114276E+03 -0.95592467742E+02  0.30177718840E+03  0.44563018063E+03  0.17083021646E+03 0.  0.
        -24    2    5    5    0    0 -0.26726396847E+03 -0.50296828021E+02  0.26503201911E+03  0.38696383300E+03  0.74426051522E+02 0.  0.
          5    1    3    3  501    0  0.15525648254E+03  0.42729808500E+02 -0.94381122482E+02  0.18670912722E+03  0.47000000000E+01 0. -1.
        -13    1    4    4    0    0  0.58943227093E+02  0.68621840443E+02  0.76937142485E+01  0.90787963105E+02  0.00000000000E+00 0.  1.
         14    1    4    4    0    0  0.48851433129E+02 -0.15759181200E+02  0.25205803076E+02  0.57185197557E+02  0.00000000000E+00 0. -1.
         -5    1    5    5    0  502  0.42128257100E+01 -0.45295639721E+02  0.36745169291E+02  0.58666347632E+02  0.47000000000E+01 0.  1.
         13    1    6    6    0    0 -0.32064834779E+02 -0.54122654788E+01  0.40300719420E+01  0.32767174533E+02  0.00000000000E+00 0. -1.
        -14    1    6    6    0    0 -0.23519913369E+03 -0.44884562542E+02  0.26100194717E+03  0.35419665847E+03  0.00000000000E+00 0.  1.
</event>
<event>
12    1  0.1630640E-001  0.1936181E+03  0.7818608E-02  0.1155694E+00
         21   -1    0    0  503  502  0.00000000000E+00  0.00000000000E+00  0.12747349938E+03  0.12747349938E+03  0.00000000000E+00 0.  1.
         21   -1    0    0  501  503 -0.00000000000E+00 -0.00000000000E+00 -0.33383257612E+03  0.33383257612E+03  0.00000000000E+00 0.  1.
          6    2    1    2  501    0 -0.20280985381E+02 -0.84913945002E+02 -0.18631683410E+03  0.26870414161E+03  0.17281856563E+03 0.  0.
         24    2    3    3    0    0 -0.39284460856E+02 -0.11171009868E+03 -0.10264508634E+03  0.17869182409E+03  0.85862327223E+02 0.  0.
         -6    2    1    2    0  502  0.20280985381E+02  0.84913945002E+02 -0.20042242651E+02  0.19260193390E+03  0.17050547506E+03 0.  0.
        -24    2    5    5    0    0  0.60646803428E+02  0.51179474763E+02 -0.59579039712E+02  0.12662722609E+03  0.78660148806E+02 0.  0.
          5    1    3    3  501    0  0.19003475475E+02  0.26796153675E+02 -0.83671747757E+02  0.90012317516E+02  0.47000000000E+01 0. -1.
        -13    1    4    4    0    0 -0.31846990408E+02 -0.71994116865E+02 -0.11230308513E+03  0.13714724420E+03  0.00000000000E+00 0.  1.
         14    1    4    4    0    0 -0.74374704481E+01 -0.39715981812E+02  0.96579987902E+01  0.41544579894E+02  0.00000000000E+00 0. -1.
         -5    1    5    5    0  502 -0.40365818047E+02  0.33734470239E+02  0.39536797060E+02  0.65974707811E+02  0.47000000000E+01 0.  1.
         11    1    6    6    0    0 -0.51519525102E+01 -0.16142752281E+02 -0.14273545188E+02  0.22155476932E+02  0.00000000000E+00 0. -1.
        -12    1    6    6    0    0  0.65798755939E+02  0.67322227044E+02 -0.45305494523E+02  0.10447174915E+03  0.00000000000E+00 0.  1.
</event>
<event>
12    1  0.1630640E-001  0.1875860E+03  0.7818608E-02  0.1160685E+00
         21   -1    0    0  503  502  0.00000000000E+00  0.00000000000E+00  0.10234439993E+03  0.10234439993E+03  0.00000000000E+00 0.  1.
         21   -1    0    0  501  503 -0.00000000000E+00 -0.00000000000E+00 -0.48533592353E+03  0.48533592353E+03  0.00000000000E+00 0.  1.
          6    2    1    2  501    0 -0.71571895812E+02  0.18461315153E+02 -0.35024386349E+03  0.39725733521E+03  0.17227672517E+03 0.  0.
         24    2    3    3    0    0 -0.30893739978E+02  0.72417266738E+02 -0.20243980249E+03  0.23467170386E+03  0.88827086337E+02 0.  0.
         -6    2    1    2    0  502  0.71571895812E+02 -0.18461315153E+02 -0.32747660115E+02  0.19042298826E+03  0.17240982799E+03 0.  0.
        -24    2    5    5    0    0  0.80832441784E+02 -0.69515355531E+02 -0.16017665564E+02  0.13570319780E+03  0.82416770035E+02 0.  0.
          5    1    3    3  501    0 -0.40678155834E+02 -0.53955951585E+02 -0.14780406100E+03  0.16258563135E+03  0.47000000000E+01 0. -1.
        -13    1    4    4    0    0 -0.21760298284E+02  0.25761040750E+02 -0.82079039068E+01  0.34706072790E+02  0.00000000000E+00 0.  1.
         14    1    4    4    0    0 -0.91334416938E+01  0.46656225988E+02 -0.19423189859E+03  0.19996563107E+03  0.00000000000E+00 0. -1.
         -5    1    5    5    0  502 -0.92605459720E+01  0.51054040378E+02 -0.16729994551E+02  0.54719790463E+02  0.47000000000E+01 0.  1.
         11    1    6    6    0    0  0.29750501299E+02  0.12096685014E+02  0.13736588425E+02  0.34930158566E+02  0.00000000000E+00 0. -1.
        -12    1    6    6    0    0  0.51081940485E+02 -0.81612040544E+02 -0.29754253989E+02  0.10077303923E+03  0.00000000000E+00 0.  1.
</event>
<event>
12    1  0.1630640E-001  0.1785994E+03  0.7818608E-02  0.1169232E+00
         21   -1    0    0  503  502  0.00000000000E+00  0.00000000000E+00  0.70595888753E+02  0.70595888753E+02  0.00000000000E+00 0. -1.
         21   -1    0    0  501  503 -0.00000000000E+00 -0.00000000000E+00 -0.54966731844E+03  0.54966731844E+03  0.00000000000E+00 0.  1.
          6    2    1    2  501    0  0.19664053265E+02  0.43111635426E+02 -0.37098172959E+03  0.41173435846E+03  0.17219886800E+03 0.  0.
         24    2    3    3    0    0  0.57890777814E+02  0.63825398658E+02 -0.17429921903E+03  0.21024876985E+03  0.79995648610E+02 0.  0.
         -6    2    1    2    0  502 -0.19664053265E+02 -0.43111635426E+02 -0.10808970010E+03  0.20852884874E+03  0.17191744935E+03 0.  0.
        -24    2    5    5    0    0 -0.16774395422E+02 -0.89696311705E+02 -0.43566188334E+02  0.12875507011E+03  0.79706001269E+02 0.  0.
          5    1    3    3  501    0 -0.38226724549E+02 -0.20713763232E+02 -0.19668251056E+03  0.20148558861E+03  0.47000000000E+01 0. -1.
        -13    1    4    4    0    0 -0.14886699274E+02 -0.28085626445E+00 -0.52401489184E+02  0.54475763090E+02  0.00000000000E+00 0.  1.
         14    1    4    4    0    0  0.72777477088E+02  0.64106254923E+02 -0.12189772985E+03  0.15577300676E+03  0.00000000000E+00 0. -1.
         -5    1    5    5    0  502 -0.28896578431E+01  0.46584676279E+02 -0.64523511762E+02  0.79773778628E+02  0.47000000000E+01 0.  1.
         11    1    6    6    0    0 -0.46192236239E+02 -0.55260068044E+02 -0.42131720630E+02  0.83441474653E+02  0.00000000000E+00 0. -1.
        -12    1    6    6    0    0  0.29417840817E+02 -0.34436243661E+02 -0.14344677043E+01  0.45313595459E+02  0.00000000000E+00 0.  1.
</event>
<event>
12    1  0.1630640E-001  0.1766372E+03  0.7818608E-02  0.1171198E+00
         21   -1    0    0  501  502  0.00000000000E+00  0.00000000000E+00  0.23572399660E+03  0.23572399660E+03  0.00000000000E+00 0.  1.
         21   -1    0    0  502  503 -0.00000000000E+00 -0.00000000000E+00 -0.15749004168E+03  0.15749004168E+03  0.00000000000E+00 0.  1.
         -6    2    1    2    0  503 -0.15295458342E+02 -0.38078999306E+02 -0.39926838135E+02  0.18069889825E+03  0.17138838406E+03 0.  0.
        -24    2    3    3    0    0 -0.47614229696E+02  0.28425953185E+02 -0.32500425080E+02  0.10623646948E+03  0.84585815198E+02 0.  0.
          6    2    1    2  501    0  0.15295458342E+02  0.38078999306E+02  0.11816079305E+03  0.21251514003E+03  0.17180439603E+03 0.  0.
         24    2    5    5    0    0  0.87764221991E+01  0.30381347472E+02  0.15329062847E+03  0.17566480743E+03  0.79749958826E+02 0.  0.
          5    1    5    5  501    0  0.65190361428E+01  0.76976518336E+01 -0.35129835423E+02  0.36850332601E+02  0.47000000000E+01 0. -1.
        -11    1    6    6    0    0  0.15293919150E+02  0.52204518429E+02  0.66396226423E+02  0.85835159408E+02  0.00000000000E+00 0.  1.
         12    1    6    6    0    0 -0.65174969512E+01 -0.21823170957E+02  0.86894402046E+02  0.89829648024E+02  0.00000000000E+00 0. -1.
         -5    1    3    3    0  503  0.32318771355E+02 -0.66504952490E+02 -0.74264130548E+01  0.74462428771E+02  0.47000000000E+01 0.  1.
         11    1    4    4    0    0 -0.84451480241E+01  0.32945090352E+02 -0.52089563222E+02  0.62209501686E+02  0.00000000000E+00 0. -1.
        -12    1    4    4    0    0 -0.39169081672E+02 -0.45191371668E+01  0.19589138142E+02  0.44026967792E+02  0.00000000000E+00 0.  1.
</event>
<event>
12    1  0.1630640E-001  0.2786616E+03  0.7818608E-02  0.1096679E+00
         21   -1    0    0  503  502  0.00000000000E+00  0.00000000000E+00  0.52343287003E+03  0.52343287003E+03  0.00000000000E+00 0. -1.
         21   -1    0    0  501  503 -0.00000000000E+00 -0.00000000000E+00 -0.17780480204E+03  0.17780480204E+03  0.00000000000E+00 0. -1.
          6    2    1    2  501    0  0.18248499728E+03 -0.12002997903E+03  0.28218984882E+02  0.28008677119E+03  0.17304426656E+03 0.  0.
         24    2    3    3    0    0  0.20073402242E+03 -0.13365638804E+03  0.18673783745E+02  0.25494901461E+03  0.80573643526E+02 0.  0.
         -6    2    1    2    0  502 -0.18248499728E+03  0.12002997903E+03  0.31740908310E+03  0.42115090088E+03  0.17003407063E+03 0.  0.
        -24    2    5    5    0    0 -0.48793440828E+02  0.10418528928E+03  0.14793037278E+03  0.20465699863E+03  0.82253981824E+02 0.  0.
          5    1    3    3  501    0 -0.18249025144E+02  0.13626409005E+02  0.95452011375E+01  0.25137756580E+02  0.47000000000E+01 0. -1.
        -13    1    4    4    0    0 -0.43064731804E+01 -0.14792712468E+02  0.87957168479E+01  0.17740763464E+02  0.00000000000E+00 0.  1.
         14    1    4    4    0    0  0.20504049560E+03 -0.11886367557E+03  0.98780668969E+01  0.23720825115E+03  0.00000000000E+00 0. -1.
         -5    1    5    5    0  502 -0.13369155645E+03  0.15844689758E+02  0.16947871032E+03  0.21649390225E+03  0.47000000000E+01 0.  1.
         11    1    6    6    0    0 -0.22162767393E+02  0.40548073331E+02  0.12285199495E+03  0.13125527484E+03  0.00000000000E+00 0. -1.
        -12    1    6    6    0    0 -0.26630673435E+02  0.63637215945E+02  0.25078377836E+02  0.73401723793E+02  0.00000000000E+00 0.  1.
</event>
<event>
12    1  0.1630640E-001  0.1970131E+03  0.7818608E-02  0.1152316E+00
         21   -1    0    0  501  502  0.00000000000E+00  0.00000000000E+00  0.24303242533E+03  0.24303242533E+03  0.00000000000E+00 0. -1.
         21   -1    0    0  502  503 -0.00000000000E+00 -0.00000000000E+00 -0.61040477613E+03  0.61040477613E+03  0.00000000000E+00 0. -1.
         -6    2    1    2    0  503 -0.86022092324E+02  0.40474944452E+02 -0.55042264016E+03  0.58461890023E+03  0.17255768372E+03 0.  0.
        -24    2    3    3    0    0 -0.69910018888E+02  0.52050087085E+02 -0.55174086181E+03  0.56418827260E+03  0.79333511464E+02 0.  0.
          6    2    1    2  501    0  0.86022092324E+02 -0.40474944452E+02  0.18305028936E+03  0.26881830122E+03  0.17238865723E+03 0.  0.
         24    2    5    5    0    0 -0.16714159754E+02 -0.71682620179E+01  0.10791576040E+03  0.13716967788E+03  0.82698017336E+02 0.  0.
          5    1    5    5  501    0  0.10273625208E+03 -0.33306682434E+02  0.75134528959E+02  0.13164862334E+03  0.47000000000E+01 0. -1.
        -11    1    6    6    0    0  0.56214682095E+01  0.35724926608E+02  0.50230816580E+02  0.61895122750E+02  0.00000000000E+00 0.  1.
         12    1    6    6    0    0 -0.22335627963E+02 -0.42893188626E+02  0.57684943818E+02  0.75274555132E+02  0.00000000000E+00 0. -1.
         -5    1    3    3    0  503 -0.16112073436E+02 -0.11575142632E+02  0.13182216453E+01  0.20430627638E+02  0.47000000000E+01 0.  1.
         11    1    4    4    0    0 -0.26297350705E+02  0.49315251188E+02 -0.14992552839E+03  0.16000377720E+03  0.00000000000E+00 0. -1.
        -12    1    4    4    0    0 -0.43612668182E+02  0.27348358967E+01 -0.40181533341E+03  0.40418449540E+03  0.00000000000E+00 0.  1.
</event>
<event>
12    1  0.1630640E-001  0.1809451E+03  0.7818608E-02  0.1166902E+00
         21   -1    0    0  503  502  0.00000000000E+00  0.00000000000E+00  0.53001074309E+02  0.53001074309E+02  0.00000000000E+00 0.  1.
         21   -1    0    0  501  503 -0.00000000000E+00 -0.00000000000E+00 -0.68456076046E+03  0.68456076046E+03  0.00000000000E+00 0.  1.
          6    2    1    2  501    0  0.37812620382E+01 -0.57356456488E+02 -0.20040990427E+03  0.26998160322E+03  0.17152805982E+03 0.  0.
         24    2    3    3    0    0 -0.35213809494E+02 -0.33126735969E+02 -0.36128847054E+02  0.99341482733E+02  0.78905282378E+02 0.  0.
         -6    2    1    2    0  502 -0.37812620382E+01  0.57356456488E+02 -0.43114978188E+03  0.46758023155E+03  0.17157236804E+03 0.  0.
        -24    2    5    5    0    0 -0.28058024408E+02  0.31998115612E+02 -0.42472033846E+03  0.43158253182E+03  0.63757224922E+02 0.  0.
          5    1    3    3  501    0  0.38995071532E+02 -0.24229720519E+02 -0.16428105721E+03  0.17064012049E+03  0.47000000000E+01 0. -1.
        -13    1    4    4    0    0 -0.37997953293E+02 -0.51815736583E+02 -0.70196617430E+01  0.64637378219E+02  0.00000000000E+00 0.  1.
         14    1    4    4    0    0  0.27841437993E+01  0.18689000614E+02 -0.29109185311E+02  0.34704104514E+02  0.00000000000E+00 0. -1.
         -5    1    5    5    0  502  0.24276762370E+02  0.25358340876E+02 -0.64294434190E+01  0.35997699730E+02  0.47000000000E+01 0.  1.
         11    1    6    6    0    0 -0.43979980823E+02  0.36469757570E+01 -0.24129942622E+03  0.24530175752E+03  0.00000000000E+00 0. -1.
        -12    1    6    6    0    0  0.15921956415E+02  0.28351139855E+02 -0.18342091224E+03  0.18628077430E+03  0.00000000000E+00 0.  1.
</event>
<event>
12    1  0.1630640E-001  0.1948613E+03  0.7818608E-02  0.1154169E+00
         21   -1    0    0  501  502  0.00000000000E+00  0.00000000000E+00  0.51855481702E+02  0.51855481702E+02  0.00000000000E+00 0. -1.
         21   -1    0    0  502  503 -0.00000000000E+00 -0.00000000000E+00 -0.10471981707E+04  0.10471981707E+04  0.00000000000E+00 0.  1.
         -6    2    1    2    0  503 -0.82963199746E+02  0.39557858292E+02 -0.79929873737E+03  0.82270857831E+03  0.17182321323E+03 0.  0.
        -24    2    3    3    0    0 -0.12119332001E+03  0.16224580855E+02 -0.53091786910E+03  0.55057558806E+03  0.79426926160E+02 0.  0.
          6    2    1    2  501    0  0.82963199746E+02 -0.39557858292E+02 -0.19604395168E+03  0.27634507414E+03  0.17171386766E+03 0.  0.
         24    2    5    5    0    0  0.94734320122E+02  0.19286671895E+02 -0.89107853411E+02  0.15363135396E+03  0.79472109937E+02 0.  0.
          5    1    5    5  501    0 -0.11771120376E+02 -0.58844530188E+02 -0.10693609827E+03  0.12271372018E+03  0.47000000000E+01 0. -1.
        -11    1    6    6    0    0  0.56977723638E+02  0.10749642264E+02 -0.98041506818E+02  0.11390413890E+03  0.00000000000E+00 0.  1.
         12    1    6    6    0    0  0.37756596484E+02  0.85370296320E+01  0.89336534068E+01  0.39727215057E+02  0.00000000000E+00 0. -1.
         -5    1    3    3    0  503  0.38230120261E+02  0.23333277437E+02 -0.26838086826E+03  0.27213299025E+03  0.47000000000E+01 0.  1.
         13    1    4    4    0    0 -0.58772397265E+02  0.47744995933E+02 -0.28877546762E+03  0.29853818854E+03  0.00000000000E+00 0. -1.
        -14    1    4    4    0    0 -0.62420922742E+02 -0.31520415078E+02 -0.24214240149E+03  0.25203739953E+03  0.00000000000E+00 0.  1.
</event>
<event>
12    1  0.1630640E-001  0.2277671E+03  0.7818608E-02  0.1128410E+00
         21   -1    0    0  503  502  0.00000000000E+00  0.00000000000E+00  0.11926774572E+04  0.11926774572E+04  0.00000000000E+00 0. -1.
         21   -1    0    0  501  503 -0.00000000000E+00 -0.00000000000E+00 -0.89480969588E+02  0.89480969588E+02  0.00000000000E+00 0. -1.
          6    2    1    2  501    0  0.14362243247E+03  0.38964780731E+02  0.91646161732E+02  0.24551348664E+03  0.17243026392E+03 0.  0.
         24    2    3    3    0    0  0.16243828125E+03  0.31135543755E+01  0.53752604948E+02  0.18985957175E+03  0.82227884634E+02 0.  0.
         -6    2    1    2    0  502 -0.14362243247E+03 -0.38964780731E+02  0.10115503259E+04  0.10366449401E+04  0.17103512184E+03 0.  0.
        -24    2    5    5    0    0 -0.12501480307E+03 -0.87019291997E+02  0.80774134248E+03  0.82636971185E+03  0.85086815266E+02 0.  0.
          5    1    3    3  501    0 -0.18815848778E+02  0.35851226356E+02  0.37893556785E+02  0.55653914887E+02  0.47000000000E+01 0. -1.
        -13    1    4    4    0    0 -0.89149767121E+01  0.32047200635E+01  0.82634816034E+01  0.12571084626E+02  0.00000000000E+00 0.  1.
         14    1    4    4    0    0  0.17135325796E+03 -0.91165687969E-01  0.45489123344E+02  0.17728848713E+03  0.00000000000E+00 0. -1.
         -5    1    5    5    0  502 -0.18607629398E+02  0.48054511266E+02  0.20380898339E+03  0.21027522830E+03  0.47000000000E+01 0.  1.
         11    1    6    6    0    0 -0.11933494119E+03 -0.78196351461E+02  0.54332028408E+03  0.56174053500E+03  0.00000000000E+00 0. -1.
        -12    1    6    6    0    0 -0.56798618877E+01 -0.88229405363E+01  0.26442105840E+03  0.26462917685E+03  0.00000000000E+00 0.  1.
</event>
<event>
12    1  0.1630640E-001  0.3138218E+03  0.7818608E-02  0.1078663E+00
         21   -1    0    0  503  502  0.00000000000E+00  0.00000000000E+00  0.13829644662E+03  0.13829644662E+03  0.00000000000E+00 0. -1.
         21   -1    0    0  501  503 -0.00000000000E+00 -0.00000000000E+00 -0.71426917154E+03  0.71426917154E+03  0.00000000000E+00 0.  1.
          6    2    1    2  501    0 -0.11914911173E+03  0.23172468356E+03 -0.32214371555E+03  0.44894045282E+03  0.17285287649E+03 0.  0.
         24    2    3    3    0    0 -0.36110494035E+02  0.17015959035E+03 -0.27628539539E+03  0.33575587676E+03  0.78359014182E+02 0.  0.
         -6    2    1    2    0  502  0.11914911173E+03 -0.23172468356E+03 -0.25382900937E+03  0.40362516534E+03  0.17490359715E+03 0.  0.
        -24    2    5    5    0    0  0.13219403936E+03 -0.11198958918E+03 -0.18024690238E+03  0.26240519709E+03  0.79690711584E+02 0.  0.
          5    1    3    3  501    0 -0.83038617695E+02  0.61565093210E+02 -0.45858320162E+02  0.11318457606E+03  0.47000000000E+01 0. -1.
        -13    1    4    4    0    0 -0.37697162584E+02  0.24218533497E+02 -0.62498975549E+02  0.76900815186E+02  0.00000000000E+00 0.  1.
         14    1    4    4    0    0  0.15866685492E+01  0.14594105686E+03 -0.21378641984E+03  0.25885506157E+03  0.00000000000E+00 0. -1.
         -5    1    5    5    0  502 -0.13044927632E+02 -0.11973509438E+03 -0.73582106985E+02  0.14121996825E+03  0.47000000000E+01 0.  1.
         13    1    6    6    0    0  0.77541716714E+02 -0.11165240919E+03 -0.12444767882E+03  0.18429922157E+03  0.00000000000E+00 0. -1.
        -14    1    6    6    0    0  0.54652322647E+02 -0.33717999375E+00 -0.55799223564E+02  0.78105975517E+02  0.00000000000E+00 0.  1.
</event>
<event>
12    1  0.1630640E-001  0.2425908E+03  0.7818608E-02  0.1118139E+00
         21   -1    0    0  501  502  0.00000000000E+00  0.00000000000E+00  0.38432890476E+03  0.38432890476E+03  0.00000000000E+00 0.  1.
         21   -1    0    0  502  503 -0.00000000000E+00 -0.00000000000E+00 -0.20028442359E+03  0.20028442359E+03  0.00000000000E+00 0. -1.
         -6    2    1    2    0  503  0.39390421783E+02 -0.16619611577E+03 -0.50217224498E+02  0.24737624446E+03  0.17175704487E+03 0.  0.
        -24    2    3    3    0    0 -0.37989958389E+02 -0.49366842089E+02 -0.29811968968E+02  0.10568902952E+03  0.80006846151E+02 0.  0.
          6    2    1    2  501    0 -0.39390421783E+02  0.16619611577E+03  0.23426170567E+03  0.33723708389E+03  0.17227173238E+03 0.  0.
         24    2    5    5    0    0  0.17841684887E+02  0.12814354714E+03  0.89142498677E+02  0.17659715656E+03  0.80629251766E+02 0.  0.
          5    1    5    5  501    0 -0.57232106669E+02  0.38052568629E+02  0.14511920700E+03  0.16063992733E+03  0.47000000000E+01 0. -1.
        -13    1    6    6    0    0 -0.16918938513E+01  0.43432126932E+02  0.77540873256E+02  0.88892064775E+02  0.00000000000E+00 0.  1.
         14    1    6    6    0    0  0.19533578738E+02  0.84711420208E+02  0.11601625420E+02  0.87705091782E+02  0.00000000000E+00 0. -1.
         -5    1    3    3    0  503  0.77380380172E+02 -0.11682927368E+03 -0.20405255529E+02  0.14168721494E+03  0.47000000000E+01 0.  1.
         13    1    4    4    0    0 -0.11182761139E+02 -0.55197571807E+02 -0.46966946731E+02  0.73332940520E+02  0.00000000000E+00 0. -1.
        -14    1    4    4    0    0 -0.26807197250E+02  0.58307297175E+01  0.17154977762E+02  0.32356089001E+02  0.00000000000E+00 0.  1.
</event>
<event>
12    1  0.1630640E-001  0.2456183E+03  0.7818608E-02  0.1116267E+00
         21   -1    0    0  503  502  0.00000000000E+00  0.00000000000E+00  0.37504543131E+03  0.37504543131E+03  0.00000000000E+00 0. -1.
         21   -1    0    0  501  503 -0.00000000000E+00 -0.00000000000E+00 -0.17138474349E+03  0.17138474349E+03  0.00000000000E+00 0.  1.
          6    2    1    2  501    0  0.14344030233E+03 -0.10053981067E+03  0.17141649609E+03  0.29870447648E+03  0.17075530819E+03 0.  0.
         24    2    3    3    0    0  0.69653780505E+02 -0.76824652457E+02  0.24236472102E+02  0.13229862023E+03  0.78497401051E+02 0.  0.
         -6    2    1    2    0  502 -0.14344030233E+03  0.10053981067E+03  0.32244191738E+02  0.24772569832E+03  0.17217711766E+03 0.  0.
        -24    2    5    5    0    0 -0.62848611137E+02 -0.14147874716E+02  0.34987122853E+02  0.10744776157E+03  0.78554518771E+02 0.  0.
          5    1    3    3  501    0  0.73786521821E+02 -0.23715158218E+02  0.14718002399E+03  0.16640585625E+03  0.47000000000E+01 0. -1.
        -13    1    4    4    0    0  0.43970291136E+02  0.47288212833E+00 -0.80074921280E+01  0.44695973535E+02  0.00000000000E+00 0.  1.
         14    1    4    4    0    0  0.25683489369E+02 -0.77297534585E+02  0.32243964230E+02  0.87602646697E+02  0.00000000000E+00 0. -1.
         -5    1    5    5    0  502 -0.80591691189E+02  0.11468768539E+03 -0.27429311152E+01  0.14027793675E+03  0.47000000000E+01 0.  1.
         11    1    6    6    0    0 -0.74251088784E+02 -0.17731831510E+02  0.47685822791E+02  0.90008775847E+02  0.00000000000E+00 0. -1.
        -12    1    6    6    0    0  0.11402477647E+02  0.35839567940E+01 -0.12698699938E+02  0.17438985719E+02  0.00000000000E+00 0.  1.
</event>
<event>
12    1  0.1630640E-001  0.1842703E+03  0.7818608E-02  0.1163848E+00
         21   -1    0    0  503  502  0.00000000000E+00  0.00000000000E+00  0.10467908920E+04  0.10467908920E+04  0.00000000000E+00 0.  1.
         21   -1    0    0  501  503 -0.00000000000E+00 -0.00000000000E+00 -0.41593733522E+02  0.41593733522E+02  0.00000000000E+00 0.  1.
          6    2    1    2  501    0 -0.60126028281E+02  0.28418323369E+02  0.24659893730E+03  0.30784179272E+03  0.17185107822E+03 0.  0.
         24    2    3    3    0    0  0.24473158528E+02  0.55571739281E+02  0.10575633207E+03  0.14124929633E+03  0.71272773522E+02 0.  0.
         -6    2    1    2    0  502  0.60126028281E+02 -0.28418323369E+02  0.75859822119E+03  0.78054283281E+03  0.17132750010E+03 0.  0.
        -24    2    5    5    0    0  0.17451914818E+02 -0.21398231006E+01  0.68995705128E+03  0.69542327136E+03  0.85227023662E+02 0.  0.
          5    1    3    3  501    0 -0.84599186809E+02 -0.27153415912E+02  0.14084260523E+03  0.16659249639E+03  0.47000000000E+01 0. -1.
        -13    1    4    4    0    0 -0.10185028659E+02 -0.40875611568E+01 -0.39385552227E+01  0.11659982086E+02  0.00000000000E+00 0.  1.
         14    1    4    4    0    0  0.34658187187E+02  0.59659300438E+02  0.10969488730E+03  0.12958931425E+03  0.00000000000E+00 0. -1.
         -5    1    5    5    0  502  0.42674113464E+02 -0.26278500269E+02  0.68641169902E+02  0.85119561452E+02  0.47000000000E+01 0.  1.
         13    1    6    6    0    0  0.22887253929E+02  0.34993944639E+02  0.50310156361E+03  0.50483619706E+03  0.00000000000E+00 0. -1.
        -14    1    6    6    0    0 -0.54353391114E+01 -0.37133767740E+02  0.18685548767E+03  0.19058707430E+03  0.00000000000E+00 0.  1.
</event>
<event>
12    1  0.1630640E-001  0.3073914E+03  0.7818608E-02  0.1081984E+00
         21   -1    0    0  501  502  0.00000000000E+00  0.00000000000E+00  0.75321503504E+02  0.75321503504E+02  0.00000000000E+00 0.  1.
         21   -1    0    0  502  503 -0.00000000000E+00 -0.00000000000E+00 -0.13142066008E+04  0.13142066008E+04  0.00000000000E+00 0. -1.
         -6    2    1    2    0  503 -0.11041317521E+03 -0.22597039198E+03 -0.45333138438E+03  0.54597367180E+03  0.17124315731E+03 0.  0.
        -24    2    3    3    0    0 -0.77145887362E+02 -0.69089031398E+02 -0.28020724675E+03  0.30993865158E+03  0.82589856632E+02 0.  0.
          6    2    1    2  501    0  0.11041317521E+03  0.22597039198E+03 -0.78555371294E+03  0.84355443252E+03  0.17673640658E+03 0.  0.
         24    2    5    5    0    0  0.65583866507E+01  0.17185436545E+03 -0.51749624003E+03  0.55099459213E+03  0.78840007266E+02 0.  0.
          5    1    5    5  501    0  0.10385478856E+03  0.54116026524E+02 -0.26805747290E+03  0.29255984040E+03  0.47000000000E+01 0. -1.
        -13    1    6    6    0    0  0.21429368383E+02  0.52295490528E+02 -0.85329513903E+02  0.10234823937E+03  0.00000000000E+00 0.  1.
         14    1    6    6    0    0 -0.14870981733E+02  0.11955887492E+03 -0.43216672613E+03  0.44864635276E+03  0.00000000000E+00 0. -1.
         -5    1    3    3    0  503 -0.33267287844E+02 -0.15688136058E+03 -0.17312413763E+03  0.23603502021E+03  0.47000000000E+01 0.  1.
         13    1    4    4    0    0 -0.82751484716E+01 -0.62221083358E+02 -0.14647188471E+03  0.15935480635E+03  0.00000000000E+00 0. -1.
        -14    1    4    4    0    0 -0.68870738890E+02 -0.68679480392E+01 -0.13373536204E+03  0.15058384524E+03  0.00000000000E+00 0.  1.
</event>
<event>
12    1  0.1630640E-001  0.1832667E+03  0.7818608E-02  0.1165904E+00
         21   -1    0    0  503  502  0.00000000000E+00  0.00000000000E+00  0.35100932449E+02  0.35100932449E+02  0.00000000000E+00 0.  1.
         21   -1    0    0  501  503 -0.00000000000E+00 -0.00000000000E+00 -0.22665797242E+04  0.22665797242E+04  0.00000000000E+00 0.  1.
          6    2    1    2  501    0 -0.49098767930E+02  0.14258316218E+02 -0.19928514363E+04  0.20007991256E+04  0.17066430567E+03 0.  0.
         24    2    3    3    0    0 -0.31591343932E+02 -0.51755760104E+02 -0.14810518855E+04  0.14844414604E+04  0.79844162042E+02 0.  0.
         -6    2    1    2    0  502  0.49098767930E+02 -0.14258316218E+02 -0.23862735550E+03  0.30088153110E+03  0.17599060308E+03 0.  0.
        -24    2    5    5    0    0  0.66580434613E+02  0.25593842980E+02 -0.77005126115E+02  0.13343709765E+03  0.82387320077E+02 0.  0.
          5    1    3    3  501    0 -0.17507423998E+02  0.66014076322E+02 -0.51179955083E+03  0.51635766519E+03  0.47000000000E+01 0. -1.
        -11    1    4    4    0    0 -0.15013155235E+02  0.15902312147E+02 -0.68455829510E+03  0.68490753956E+03  0.00000000000E+00 0.  1.
         12    1    4    4    0    0 -0.16578188697E+02 -0.67658072252E+02 -0.79649359037E+03  0.79953392085E+03  0.00000000000E+00 0. -1.
         -5    1    5    5    0  502 -0.17481666683E+02 -0.39852159198E+02 -0.16162222938E+03  0.16744443345E+03  0.47000000000E+01 0.  1.
         11    1    6    6    0    0  0.30875088043E+02  0.19564922453E+02 -0.88250214568E+02  0.95520456571E+02  0.00000000000E+00 0. -1.
        -12    1    6    6    0    0  0.35705346570E+02  0.60289205277E+01  0.11245088453E+02  0.37916641079E+02  0.00000000000E+00 0.  1.
</event>
<event>
12    1  0.1630640E-001  0.2314873E+03  0.7818608E-02  0.1125674E+00
         21   -1    0    0  503  502  0.00000000000E+00  0.00000000000E+00  0.19604074094E+03  0.19604074094E+03  0.00000000000E+00 0. -1.
         21   -1    0    0  501  503 -0.00000000000E+00 -0.00000000000E+00 -0.29080703634E+03  0.29080703634E+03  0.00000000000E+00 0. -1.
          6    2    1    2  501    0 -0.13516208640E+02  0.15404324266E+03 -0.10796238913E+03  0.25542564933E+03  0.17226252165E+03 0.  0.
         24    2    3    3    0    0 -0.63588895430E+02  0.45579152507E+02 -0.51324759709E+02  0.12313187064E+03  0.80038864577E+02 0.  0.
         -6    2    1    2    0  502  0.13516208640E+02 -0.15404324266E+03  0.13196093724E+02  0.23142212794E+03  0.17166844762E+03 0.  0.
        -24    2    5    5    0    0  0.65705922728E+02 -0.11245422006E+03  0.41612449623E+02  0.15873793200E+03  0.80640654768E+02 0.  0.
          5    1    3    3  501    0  0.50072686790E+02  0.10846409015E+03 -0.56637629418E+02  0.13229377869E+03  0.47000000000E+01 0. -1.
        -13    1    4    4    0    0 -0.21136599470E+02 -0.16726273565E+02 -0.37970629000E+02  0.46564930271E+02  0.00000000000E+00 0.  1.
         14    1    4    4    0    0 -0.42452295960E+02  0.62305426072E+02 -0.13354130708E+02  0.76566940368E+02  0.00000000000E+00 0. -1.
         -5    1    5    5    0  502 -0.52189714088E+02 -0.41589022593E+02 -0.28416355899E+02  0.72684195940E+02  0.47000000000E+01 0.  1.
         13    1    6    6    0    0  0.55650784524E+02 -0.18494644447E+02  0.14026452562E+02  0.60297620706E+02  0.00000000000E+00 0. -1.
        -14    1    6    6    0    0  0.10055138204E+02 -0.93959575617E+02  0.27585997061E+02  0.98440311297E+02  0.00000000000E+00 0.  1.
</event>
<event>
12    1  0.1630640E-001  0.1860584E+03  0.7818608E-02  0.1162930E+00
         21   -1    0    0  501  502  0.00000000000E+00  0.00000000000E+00  0.10147250516E+03  0.10147250516E+03  0.00000000000E+00 0. -1.
         21   -1    0    0  502  503 -0.00000000000E+00 -0.00000000000E+00 -0.33674039661E+03  0.33674039661E+03  0.00000000000E+00 0. -1.
         -6    2    1    2    0  503  0.40724324347E+02  0.57516349351E+02 -0.13699694690E+03  0.23105386878E+03  0.17219502252E+03 0.  0.
        -24    2    3    3    0    0  0.41585342251E+02  0.87286953500E+02 -0.15311346863E+03  0.19686523769E+03  0.77225867391E+02 0.  0.
          6    2    1    2  501    0 -0.40724324347E+02 -0.57516349351E+02 -0.98270944550E+02  0.20715903299E+03  0.16819954034E+03 0.  0.
         24    2    5    5    0    0 -0.27872311237E+02 -0.26477762893E+02  0.13665102405E+02  0.90196061506E+02  0.80440392999E+02 0.  0.
          5    1    5    5  501    0 -0.12852013110E+02 -0.31038586458E+02 -0.11193604695E+03  0.11696297148E+03  0.47000000000E+01 0. -1.
        -13    1    6    6    0    0 -0.67587262158E+00  0.23067412616E+02 -0.14288155462E+02  0.27142470689E+02  0.00000000000E+00 0.  1.
         14    1    6    6    0    0 -0.27196438616E+02 -0.49545175509E+02  0.27953257867E+02  0.63053590817E+02  0.00000000000E+00 0. -1.
         -5    1    3    3    0  503 -0.86101790341E+00 -0.29770604149E+02  0.16116521728E+02  0.34188631090E+02  0.47000000000E+01 0.  1.
         11    1    4    4    0    0  0.16494780249E+02  0.92051151042E+02 -0.94600181464E+02  0.13302137616E+03  0.00000000000E+00 0. -1.
        -12    1    4    4    0    0  0.25090562001E+02 -0.47641975426E+01 -0.58513287165E+02  0.63843861527E+02  0.00000000000E+00 0.  1.
</event>
<event>
12    1  0.1630640E-001  0.2181810E+03  0.7818608E-02  0.1135338E+00
         21   -1    0    0  501  502  0.00000000000E+00  0.00000000000E+00  0.95975312949E+02  0.95975312949E+02  0.00000000000E+00 0.  1.
         21   -1    0    0  502  503 -0.00000000000E+00 -0.00000000000E+00 -0.12712480071E+04  0.12712480071E+04  0.00000000000E+00 0.  1.
         -6    2    1    2    0  503 -0.96496930870E+02  0.93333052030E+02 -0.11216087412E+04  0.11425396172E+04  0.17137062792E+03 0.  0.
        -24    2    3    3    0    0 -0.23565526051E+02 -0.52605478309E+01 -0.25081512483E+03  0.26314021978E+03  0.75838915106E+02 0.  0.
          6    2    1    2  501    0  0.96496930870E+02 -0.93333052030E+02 -0.53663952961E+02  0.22468370293E+03  0.17198904106E+03 0.  0.
         24    2    5    5    0    0  0.10417843002E+03 -0.51503118830E+02  0.19465154519E+02  0.13995646350E+03  0.75519553124E+02 0.  0.
          5    1    5    5  501    0 -0.76814991459E+01 -0.41829933200E+02 -0.73129107480E+02  0.84727239430E+02  0.47000000000E+01 0. -1.
        -11    1    6    6    0    0  0.10117999662E+03 -0.61852827468E+02  0.10177019556E+01  0.11859257860E+03  0.00000000000E+00 0.  1.
         12    1    6    6    0    0  0.29984333947E+01  0.10349708638E+02  0.18447452563E+02  0.21363884895E+02  0.00000000000E+00 0. -1.
         -5    1    3    3    0  503 -0.72931404820E+02  0.98593599861E+02 -0.87079361641E+03  0.87939939739E+03  0.47000000000E+01 0.  1.
         13    1    4    4    0    0 -0.14977642374E+02 -0.50443538624E+01 -0.25361339721E+03  0.25410535320E+03  0.00000000000E+00 0. -1.
        -14    1    4    4    0    0 -0.85878836767E+01 -0.21619396846E+00  0.27982723876E+01  0.90348665863E+01  0.00000000000E+00 0.  1.
</event>
<event>
12    1  0.1630640E-001  0.1726685E+03  0.7818608E-02  0.1175174E+00
         21   -1    0    0  501  502  0.00000000000E+00  0.00000000000E+00  0.54488668336E+03  0.54488668336E+03  0.00000000000E+00 0.  1.
         21   -1    0    0  502  503 -0.00000000000E+00 -0.00000000000E+00 -0.27871230897E+03  0.27871230897E+03  0.00000000000E+00 0.  1.
         -6    2    1    2    0  503  0.95683679426E+01 -0.50001955165E+01 -0.23614187545E+03  0.29253615736E+03  0.17233067749E+03 0.  0.
        -24    2    3    3    0    0  0.66383226538E+02 -0.17305959655E+02 -0.11134067535E+03  0.15477988878E+03  0.82787915654E+02 0.  0.
          6    2    1    2  501    0 -0.95683679426E+01  0.50001955165E+01  0.50231624983E+03  0.53106283496E+03  0.17201617428E+03 0.  0.
         24    2    5    5    0    0 -0.37472816798E+02 -0.36861352822E+02  0.44316655434E+03  0.45326936498E+03  0.79331904135E+02 0.  0.
          5    1    5    5  501    0  0.27904448855E+02  0.41861548338E+02  0.59149695491E+02  0.77793469982E+02  0.47000000000E+01 0. -1.
        -13    1    6    6    0    0 -0.24735469245E+02  0.21470276627E+02  0.10915063747E+03  0.11395910616E+03  0.00000000000E+00 0.  1.
         14    1    6    6    0    0 -0.12737347553E+02 -0.58331629448E+02  0.33401591687E+03  0.33931025882E+03  0.00000000000E+00 0. -1.
         -5    1    3    3    0  503 -0.56814858596E+02  0.12305764138E+02 -0.12480120010E+03  0.13775626858E+03  0.47000000000E+01 0.  1.
         11    1    4    4    0    0  0.58486570836E+02 -0.45758506843E+02 -0.96403449901E+02  0.12168872203E+03  0.00000000000E+00 0. -1.
        -12    1    4    4    0    0  0.78966557022E+01  0.28452547188E+02 -0.14937225452E+02  0.33091166752E+02  0.00000000000E+00 0.  1.
</event>
<event>
12    1  0.1630640E-001  0.2166916E+03  0.7818608E-02  0.1136457E+00
         21   -1    0    0  501  502  0.00000000000E+00  0.00000000000E+00  0.96478433459E+03  0.96478433459E+03  0.00000000000E+00 0.  1.
         21   -1    0    0  502  503 -0.00000000000E+00 -0.00000000000E+00 -0.49346211123E+02  0.49346211123E+02  0.00000000000E+00 0. -1.
         -6    2    1    2    0  503  0.18186476057E+02  0.12975881505E+03  0.52174985198E+03  0.56495854310E+03  0.17258954020E+03 0.  0.
        -24    2    3    3    0    0  0.71123776490E+02  0.90798324913E+02  0.42625283558E+03  0.44893247831E+03  0.80907124856E+02 0.  0.
          6    2    1    2  501    0 -0.18186476057E+02 -0.12975881505E+03  0.39368827149E+03  0.44917200261E+03  0.17203759714E+03 0.  0.
         24    2    5    5    0    0  0.52118642453E+02 -0.29443811554E+02  0.15583570249E+03  0.18158679339E+03  0.71454226143E+02 0.  0.
          5    1    5    5  501    0 -0.70305118511E+02 -0.10031500350E+03  0.23785256900E+03  0.26758520922E+03  0.47000000000E+01 0. -1.
        -11    1    6    6    0    0  0.35856706591E+01 -0.38670584437E+02  0.98636959378E+02  0.10600717377E+03  0.00000000000E+00 0.  1.
         12    1    6    6    0    0  0.48532971794E+02  0.92267728824E+01  0.57198743112E+02  0.75579619624E+02  0.00000000000E+00 0. -1.
         -5    1    3    3    0  503 -0.52937300433E+02  0.38960490138E+02  0.95497016393E+02  0.11602606478E+03  0.47000000000E+01 0.  1.
         13    1    4    4    0    0  0.16617606142E+01  0.38883084530E+01  0.16401304185E+03  0.16406754184E+03  0.00000000000E+00 0. -1.
        -14    1    4    4    0    0  0.69462015876E+02  0.86910016460E+02  0.26223979374E+03  0.28486493647E+03  0.00000000000E+00 0.  1.
</event>
<event>
12    1  0.1630640E-001  0.1880671E+03  0.7818608E-02  0.1161071E+00
         21   -1    0    0  503  502  0.00000000000E+00  0.00000000000E+00  0.93335502532E+02  0.93335502532E+02  0.00000000000E+00 0. -1.
         21   -1    0    0  501  503 -0.00000000000E+00 -0.00000000000E+00 -0.72957010608E+03  0.72957010608E+03  0.00000000000E+00 0. -1.
          6    2    1    2  501    0  0.64957149417E+02  0.19921179040E+02 -0.60796110107E+03  0.63638504744E+03  0.17536517202E+03 0.  0.
         24    2    3    3    0    0  0.10608090950E+02 -0.11466935951E+02 -0.53052700854E+03  0.53659946429E+03  0.78968703121E+02 0.  0.
         -6    2    1    2    0  502 -0.64957149417E+02 -0.19921179040E+02 -0.28273502483E+02  0.18652056118E+03  0.17138915999E+03 0.  0.
        -24    2    5    5    0    0 -0.35233879486E+02 -0.24981375028E+02  0.49016530228E+02  0.10342472785E+03  0.80178293410E+02 0.  0.
          5    1    3    3  501    0  0.54349058467E+02  0.31388114991E+02 -0.77434092531E+02  0.99785583152E+02  0.47000000000E+01 0. -1.
        -11    1    4    4    0    0 -0.13339020864E+02  0.79370782854E+01 -0.45161684931E+03  0.45188350852E+03  0.00000000000E+00 0.  1.
         12    1    4    4    0    0  0.23947111814E+02 -0.19404014237E+02 -0.78910159222E+02  0.84715955765E+02  0.00000000000E+00 0. -1.
         -5    1    5    5    0  502 -0.29723269931E+02  0.50601959881E+01 -0.77290032711E+02  0.83095833321E+02  0.47000000000E+01 0.  1.
         13    1    6    6    0    0 -0.50770266806E+02 -0.35535845357E+02  0.55863314620E+02  0.83433363933E+02  0.00000000000E+00 0. -1.
        -14    1    6    6    0    0  0.15536387320E+02  0.10554470329E+02 -0.68467843918E+01  0.19991363921E+02  0.00000000000E+00 0.  1.
</event>
<event>
12    1  0.1630640E-001  0.1843654E+03  0.7818608E-02  0.1165462E+00
         21   -1    0    0  501  502  0.00000000000E+00  0.00000000000E+00  0.20324632808E+04  0.20324632808E+04  0.00000000000E+00 0.  1.
         21   -1    0    0  502  503 -0.00000000000E+00 -0.00000000000E+00 -0.14199840442E+03  0.14199840442E+03  0.00000000000E+00 0.  1.
         -6    2    1    2    0  503  0.20762247259E+02  0.43305815908E+02 -0.76472067214E+02  0.19959599974E+03  0.17800034114E+03 0.  0.
        -24    2    3    3    0    0  0.36073047244E+02  0.54883653220E+02  0.53716541557E+01  0.11540008749E+03  0.94735660631E+02 0.  0.
          6    2    1    2  501    0 -0.20762247259E+02 -0.43305815908E+02  0.19669369436E+04  0.19748656855E+04  0.17013838771E+03 0.  0.
         24    2    5    5    0    0  0.30685762310E+02 -0.79259664760E+02  0.10180096759E+04  0.10238532637E+04  0.68615559131E+02 0.  0.
          5    1    5    5  501    0 -0.51448009568E+02  0.35953848851E+02  0.94892726773E+03  0.95101242178E+03  0.47000000000E+01 0. -1.
        -11    1    6    6    0    0 -0.98295860576E+01 -0.38888300877E+02  0.66781949654E+03  0.66902301953E+03  0.00000000000E+00 0.  1.
         12    1    6    6    0    0  0.40515348367E+02 -0.40371363882E+02  0.35019017937E+03  0.35483024420E+03  0.00000000000E+00 0. -1.
         -5    1    3    3    0  503 -0.15310799985E+02 -0.11577837311E+02 -0.81843721370E+02  0.84195912256E+02  0.47000000000E+01 0.  1.
         13    1    4    4    0    0 -0.25709660352E+02  0.43766564433E+02  0.12345486211E+02  0.52238968476E+02  0.00000000000E+00 0. -1.
        -14    1    4    4    0    0  0.61782707596E+02  0.11117088787E+02 -0.69738320550E+01  0.63161119009E+02  0.00000000000E+00 0.  1.
</event>
<event>
12    1  0.1630640E-001  0.2022806E+03  0.7818608E-02  0.1149295E+00
         21   -1    0    0  501  502  0.00000000000E+00  0.00000000000E+00  0.14594568946E+03  0.14594568946E+03  0.00000000000E+00 0. -1.
         21   -1    0    0  502  503 -0.00000000000E+00 -0.00000000000E+00 -0.27293736438E+03  0.27293736438E+03  0.00000000000E+00 0. -1.
         -6    2    1    2    0  503  0.32997313927E+02  0.10017307925E+03 -0.82903015694E+02  0.21861003819E+03  0.17260929944E+03 0.  0.
        -24    2    3    3    0    0  0.23856586186E+02  0.95020854716E+02  0.80426674927E+01  0.12694049248E+03  0.80318768631E+02 0.  0.
          6    2    1    2  501    0 -0.32997313927E+02 -0.10017307925E+03 -0.44088659218E+02  0.20027301565E+03  0.16444452680E+03 0.  0.
         24    2    5    5    0    0 -0.66085943162E+02 -0.44404217914E+02 -0.69869370787E+02  0.13033190922E+03  0.75931489748E+02 0.  0.
          5    1    5    5  501    0  0.33088629235E+02 -0.55768861334E+02  0.25780711569E+02  0.69941106426E+02  0.47000000000E+01 0. -1.
        -13    1    6    6    0    0  0.15005668791E+02 -0.20523915160E+02 -0.14329477573E+02  0.29184501312E+02  0.00000000000E+00 0.  1.
         14    1    6    6    0    0 -0.81091611953E+02 -0.23880302754E+02 -0.55539893214E+02  0.10114740791E+03  0.00000000000E+00 0. -1.
         -5    1    3    3    0  503  0.91407277416E+01  0.51522245311E+01 -0.90945683187E+02  0.91669545715E+02  0.47000000000E+01 0.  1.
         11    1    4    4    0    0  0.43002299101E+02  0.21956585716E+02 -0.99451909141E+01  0.49297020261E+02  0.00000000000E+00 0. -1.
        -12    1    4    4    0    0 -0.19145712916E+02  0.73064269001E+02  0.17987858407E+02  0.77643472216E+02  0.00000000000E+00 0.  1.
</event>
<event>
12    1  0.1630640E-001  0.1847865E+03  0.7818608E-02  0.1163340E+00
         21   -1    0    0  501  502  0.00000000000E+00  0.00000000000E+00  0.30500038610E+03  0.30500038610E+03  0.00000000000E+00 0. -1.
         21   -1    0    0  502  503 -0.00000000000E+00 -0.00000000000E+00 -0.15632794697E+03  0.15632794697E+03  0.00000000000E+00 0. -1.
         -6    2    1    2    0  503 -0.60241656936E+02 -0.32488556544E+02 -0.48937547859E+02  0.19078120368E+03  0.17122505818E+03 0.  0.
        -24    2    3    3    0    0 -0.55313094499E+02  0.27679209337E+02 -0.73753761208E+02  0.12534126768E+03  0.80281623290E+02 0.  0.
          6    2    1    2  501    0  0.60241656936E+02  0.32488556544E+02  0.19760998699E+03  0.27054712939E+03  0.17164346398E+03 0.  0.
         24    2    5    5    0    0  0.93813945870E+02  0.61574798313E+02  0.14983742160E+03  0.20514517186E+03  0.83909334397E+02 0.  0.
          5    1    5    5  501    0 -0.33572288934E+02 -0.29086241770E+02  0.47772565390E+02  0.65401957528E+02  0.47000000000E+01 0. -1.
        -11    1    6    6    0    0  0.15828846213E+02 -0.16330031732E+02  0.55785205426E+02  0.60242936957E+02  0.00000000000E+00 0.  1.
         12    1    6    6    0    0  0.77985099657E+02  0.77904830045E+02  0.94052216173E+02  0.14490223490E+03  0.00000000000E+00 0. -1.
         -5    1    3    3    0  503 -0.49285624368E+01 -0.60167765881E+02  0.24816213349E+02  0.65439936000E+02  0.47000000000E+01 0.  1.
         11    1    4    4    0    0 -0.65930151385E+02  0.98836864896E+00 -0.28707667087E+02  0.71915866704E+02  0.00000000000E+00 0. -1.
        -12    1    4    4    0    0  0.10617056886E+02  0.26690840688E+02 -0.45046094121E+02  0.53425400973E+02  0.00000000000E+00 0.  1.
</event>
<event>
12    1  0.1630640E-001  0.1901228E+03  0.7818608E-02  0.1158851E+00
         21   -1    0    0  503  502  0.00000000000E+00  0.00000000000E+00  0.11268051755E+04  0.11268051755E+04  0.00000000000E+00 0.  1.
         21   -1    0    0  501  503 -0.00000000000E+00 -0.00000000000E+00 -0.18914540007E+03  0.18914540007E+03  0.00000000000E+00 0.  1.
          6    2    1    2  501    0  0.73410480284E+02 -0.22987032774E+02 -0.13100644411E+03  0.23088820637E+03  0.17386538801E+03 0.  0.
         24    2    3    3    0    0  0.11008700199E+03 -0.55865449037E+01 -0.13322740410E+03  0.18996184706E+03  0.78648615001E+02 0.  0.
         -6    2    1    2    0  502 -0.73410480284E+02  0.22987032774E+02  0.10686662196E+04  0.10850623692E+04  0.17145073337E+03 0.  0.
        -24    2    5    5    0    0 -0.91078177374E+02  0.60920571966E+02  0.62503050901E+03  0.63943266353E+03  0.78768290025E+02 0.  0.
          5    1    3    3  501    0 -0.36676521711E+02 -0.17400487871E+02  0.22209599911E+01  0.40926359308E+02  0.47000000000E+01 0. -1.
        -13    1    4    4    0    0  0.21186166801E+02  0.32120193188E+02 -0.44413786208E+02  0.58763465516E+02  0.00000000000E+00 0.  1.
         14    1    4    4    0    0  0.88900835194E+02 -0.37706738092E+02 -0.88813617895E+02  0.13119838154E+03  0.00000000000E+00 0. -1.
         -5    1    5    5    0  502  0.17667697090E+02 -0.37933539192E+02  0.44363571056E+03  0.44562970570E+03  0.47000000000E+01 0.  1.
         11    1    6    6    0    0 -0.17308521300E+02 -0.74179964033E+01  0.26476191274E+02  0.32490002841E+02  0.00000000000E+00 0. -1.
        -12    1    6    6    0    0 -0.73769656075E+02  0.68338568369E+02  0.59855431774E+03  0.60694266069E+03  0.00000000000E+00 0.  1.
</event>
<event>
12    1  0.1630640E-001  0.1923043E+03  0.7818608E-02  0.1156593E+00
         21   -1    0    0  503  502  0.00000000000E+00  0.00000000000E+00  0.57415762510E+02  0.57415762510E+02  0.00000000000E+00 0.  1.
         21   -1    0    0  501  503 -0.00000000000E+00 -0.00000000000E+00 -0.98415841878E+03  0.98415841878E+03  0.00000000000E+00 0.  1.
          6    2    1    2  501    0  0.51123976966E+02 -0.69924707435E+02 -0.77149667782E+03  0.79510255067E+03  0.17169104942E+03 0.  0.
         24    2    3    3    0    0  0.40459739521E+02 -0.11148624545E+03 -0.66719971267E+03  0.68222636034E+03  0.78811018961E+02 0.  0.
         -6    2    1    2    0  502 -0.51123976966E+02  0.69924707435E+02 -0.15524597845E+03  0.24647163062E+03  0.17071562655E+03 0.  0.
        -24    2    5    5    0    0 -0.10238048497E+02 -0.28069867589E+02 -0.69283181216E+02  0.10977383112E+03  0.79733303559E+02 0.  0.
          5    1    3    3  501    0  0.10664237445E+02  0.41561538012E+02 -0.10429696515E+03  0.11287619033E+03  0.47000000000E+01 0. -1.
        -13    1    4    4    0    0 -0.18575574427E+02 -0.52810134830E+01 -0.13207903226E+03  0.13348337661E+03  0.00000000000E+00 0.  1.
         14    1    4    4    0    0  0.59035313948E+02 -0.10620523196E+03 -0.53512068041E+03  0.54874298373E+03  0.00000000000E+00 0. -1.
         -5    1    5    5    0  502 -0.40885928469E+02  0.97994575024E+02 -0.85962797232E+02  0.13669779950E+03  0.47000000000E+01 0.  1.
         13    1    6    6    0    0  0.33983429981E+02 -0.15622969707E+02 -0.42427902490E+02  0.56560389014E+02  0.00000000000E+00 0. -1.
        -14    1    6    6    0    0 -0.44221478478E+02 -0.12446897882E+02 -0.26855278726E+02  0.53213442109E+02  0.00000000000E+00 0.  1.
</event>
<event>
12    1  0.1630640E-001  0.2585827E+03  0.7818608E-02  0.1108027E+00
         21   -1    0    0  501  502  0.00000000000E+00  0.00000000000E+00  0.49274774693E+03  0.49274774693E+03  0.00000000000E+00 0. -1.
         21   -1    0    0  502  503 -0.00000000000E+00 -0.00000000000E+00 -0.13569821814E+03  0.13569821814E+03  0.00000000000E+00 0. -1.
         -6    2    1    2    0  503 -0.18409322677E+03  0.57987556098E+02  0.18707617834E+03  0.31900137681E+03  0.17178914138E+03 0.  0.
        -24    2    3    3    0    0 -0.16879829687E+03  0.89876896724E+01  0.19260459698E+03  0.26715954811E+03  0.75525159868E+02 0.  0.
          6    2    1    2  501    0  0.18409322677E+03 -0.57987556098E+02  0.16997335045E+03  0.30944458826E+03  0.17208178444E+03 0.  0.
         24    2    5    5    0    0  0.10218589503E+03  0.24657812571E+02  0.13273269055E+03  0.18718247350E+03  0.79808184936E+02 0.  0.
          5    1    5    5  501    0  0.81907331748E+02 -0.82645368669E+02  0.37240659896E+02  0.12226211476E+03  0.47000000000E+01 0. -1.
        -13    1    6    6    0    0 -0.91872297483E-01 -0.87178554361E+01 -0.67520558876E+01  0.11027225518E+02  0.00000000000E+00 0.  1.
         14    1    6    6    0    0  0.10227776732E+03  0.33375668007E+02  0.13948474644E+03  0.17615524799E+03  0.00000000000E+00 0. -1.
         -5    1    3    3    0  503 -0.15294929902E+02  0.48999866425E+02 -0.55284186424E+01  0.51841828701E+02  0.47000000000E+01 0.  1.
         11    1    4    4    0    0 -0.12494977923E+03  0.10614878410E+02  0.86499019359E+02  0.15233910635E+03  0.00000000000E+00 0. -1.
        -12    1    4    4    0    0 -0.43848517644E+02 -0.16271887379E+01  0.10610557762E+03  0.11482044176E+03  0.00000000000E+00 0.  1.
</event>
<event>
12    1  0.1630640E-001  0.2545307E+03  0.7818608E-02  0.1110530E+00
         21   -1    0    0  501  502  0.00000000000E+00  0.00000000000E+00  0.82892986371E+02  0.82892986371E+02  0.00000000000E+00 0.  1.
         21   -1    0    0  502  503 -0.00000000000E+00 -0.00000000000E+00 -0.10224271659E+04  0.10224271659E+04  0.00000000000E+00 0. -1.
         -6    2    1    2    0  503  0.11748132416E+03 -0.14596064679E+03 -0.20065560406E+03  0.32382962361E+03  0.17174568916E+03 0.  0.
        -24    2    3    3    0    0 -0.91193711231E+01 -0.65262091611E+02 -0.90389958975E+02  0.13749499091E+03  0.79951387170E+02 0.  0.
          6    2    1    2  501    0 -0.11748132416E+03  0.14596064679E+03 -0.73887857548E+03  0.78149052868E+03  0.17227746566E+03 0.  0.
         24    2    5    5    0    0 -0.14479263477E+03  0.92917041844E+02 -0.51579476269E+03  0.55051864892E+03  0.86186204451E+02 0.  0.
          5    1    5    5  501    0  0.27311310603E+02  0.53043604946E+02 -0.22308381279E+03  0.23097187977E+03  0.47000000000E+01 0. -1.
        -13    1    6    6    0    0  0.40129513666E+01 -0.10448497559E+02 -0.32954638572E+02  0.34803492401E+02  0.00000000000E+00 0.  1.
         14    1    6    6    0    0 -0.14880558613E+03  0.10336553940E+03 -0.48284012412E+03  0.51571515651E+03  0.00000000000E+00 0. -1.
         -5    1    3    3    0  503  0.12660069529E+03 -0.80698555179E+02 -0.11026564509E+03  0.18633463270E+03  0.47000000000E+01 0.  1.
         13    1    4    4    0    0  0.17679587502E+02  0.35838872675E+01 -0.50307751933E+02  0.53444194883E+02  0.00000000000E+00 0. -1.
        -14    1    4    4    0    0 -0.26798958625E+02 -0.68845978879E+02 -0.40082207042E+02  0.84050796026E+02  0.00000000000E+00 0.  1.
</event>
<event>
12    1  0.1630640E-001  0.2121704E+03  0.7818608E-02  0.1139868E+00
         21   -1    0    0  503  502  0.00000000000E+00  0.00000000000E+00  0.33599625095E+02  0.33599625095E+02  0.00000000000E+00 0.  1.
         21   -1    0    0  501  503 -0.00000000000E+00 -0.00000000000E+00 -0.15159080817E+04  0.15159080817E+04  0.00000000000E+00 0.  1.
          6    2    1    2  501    0  0.21606039095E+02  0.12458391055E+03 -0.10053797647E+04  0.10275141600E+04  0.17032001063E+03 0.  0.
         24    2    3    3    0    0  0.45263571698E+02  0.61123075379E+02 -0.31464350367E+03  0.33344958897E+03  0.80020451846E+02 0.  0.
         -6    2    1    2    0  502 -0.21606039095E+02 -0.12458391055E+03 -0.47692869191E+03  0.52199354681E+03  0.17037697629E+03 0.  0.
        -24    2    5    5    0    0 -0.62663568453E+02 -0.33174627582E+02 -0.20649716154E+03  0.23355519924E+03  0.82943804118E+02 0.  0.
          5    1    3    3  501    0 -0.23657532603E+02  0.63460835174E+02 -0.69073626104E+03  0.69406457103E+03  0.47000000000E+01 0. -1.
        -13    1    4    4    0    0 -0.16848428081E+02  0.21485230384E+02 -0.15800247238E+03  0.16034421079E+03  0.00000000000E+00 0.  1.
         14    1    4    4    0    0  0.62111999779E+02  0.39637844995E+02 -0.15664103129E+03  0.17310537818E+03  0.00000000000E+00 0. -1.
         -5    1    5    5    0  502  0.41057529358E+02 -0.91409282970E+02 -0.27043153037E+03  0.28843834757E+03  0.47000000000E+01 0.  1.
         13    1    6    6    0    0  0.18539288485E+02 -0.34374338010E+01 -0.17549521291E+02  0.25758627025E+02  0.00000000000E+00 0. -1.
        -14    1    6    6    0    0 -0.81202856938E+02 -0.29737193781E+02 -0.18894764025E+03  0.20779657222E+03  0.00000000000E+00 0.  1.
</event>
<event>
12    1  0.1630640E-001  0.4546469E+03  0.7818608E-02  0.1026366E+00
         21   -1    0    0  501  502  0.00000000000E+00  0.00000000000E+00  0.32316679309E+03  0.32316679309E+03  0.00000000000E+00 0.  1.
         21   -1    0    0  502  503 -0.00000000000E+00 -0.00000000000E+00 -0.80517023218E+03  0.80517023218E+03  0.00000000000E+00 0.  1.
         -6    2    1    2    0  503 -0.13658553912E+03 -0.39828363233E+03 -0.49718454286E+03  0.67371823976E+03  0.17151774151E+03 0.  0.
        -24    2    3    3    0    0 -0.12994741076E+03 -0.18709231534E+03 -0.28611145919E+03  0.37502144740E+03  0.83014787265E+02 0.  0.
          6    2    1    2  501    0  0.13658553912E+03  0.39828363233E+03  0.15181103772E+02  0.45461878551E+03  0.17076976589E+03 0.  0.
         24    2    5    5    0    0  0.80654880063E+02  0.13030051827E+03  0.50305874657E+02  0.17857707203E+03  0.76652820510E+02 0.  0.
          5    1    5    5  501    0  0.55930659062E+02  0.26798311407E+03 -0.35124770885E+02  0.27604171347E+03  0.47000000000E+01 0. -1.
        -11    1    6    6    0    0  0.46022857999E+02  0.82150600439E+02 -0.91361228812E+01  0.94605990044E+02  0.00000000000E+00 0.  1.
         12    1    6    6    0    0  0.34632022064E+02  0.48149917830E+02  0.59441997538E+02  0.83971081990E+02  0.00000000000E+00 0. -1.
         -5    1    3    3    0  503 -0.66381283649E+01 -0.21119131700E+03 -0.21107308366E+03  0.29869679237E+03  0.47000000000E+01 0.  1.
         13    1    4    4    0    0 -0.47193196420E+02 -0.34286522019E+02 -0.30203720338E+02  0.65688873508E+02  0.00000000000E+00 0. -1.
        -14    1    4    4    0    0 -0.82754214340E+02 -0.15280579332E+03 -0.25590773886E+03  0.30933257389E+03  0.00000000000E+00 0.  1.
</event>
<event>
12    1  0.1630640E-001  0.2336376E+03  0.7818608E-02  0.1124107E+00
         21   -1    0    0  501  502  0.00000000000E+00  0.00000000000E+00  0.14952610555E+04  0.14952610555E+04  0.00000000000E+00 0.  1.
         21   -1    0    0  502  503 -0.00000000000E+00 -0.00000000000E+00 -0.89938068525E+02  0.89938068525E+02  0.00000000000E+00 0. -1.
         -6    2    1    2    0  503 -0.15092733508E+03 -0.46044976245E+02  0.91732576479E+02  0.25099288105E+03  0.17228859637E+03 0.  0.
        -24    2    3    3    0    0 -0.21602202627E+02  0.19597136866E+02  0.55296196060E+02  0.10138146198E+03  0.79811206003E+02 0.  0.
          6    2    1    2  501    0  0.15092733508E+03  0.46044976245E+02  0.13135904105E+04  0.13342062430E+04  0.17230012169E+03 0.  0.
         24    2    5    5    0    0  0.51265173585E+02 -0.14271696244E+02  0.87748464061E+03  0.88278517575E+03  0.80613725064E+02 0.  0.
          5    1    5    5  501    0  0.99662161493E+02  0.60316672489E+02  0.43610576992E+03  0.45142106727E+03  0.47000000000E+01 0. -1.
        -13    1    6    6    0    0  0.71449585415E+02 -0.19453582300E+02  0.60727697324E+03  0.61177512809E+03  0.00000000000E+00 0.  1.
         14    1    6    6    0    0 -0.20184411831E+02  0.51818860562E+01  0.27020766737E+03  0.27101004765E+03  0.00000000000E+00 0. -1.
         -5    1    3    3    0  503 -0.12932513245E+03 -0.65642113111E+02  0.36436380419E+02  0.14961141907E+03  0.47000000000E+01 0.  1.
         13    1    4    4    0    0  0.13669809187E+02 -0.24679907312E+02  0.21281551221E+02  0.35339297255E+02  0.00000000000E+00 0. -1.
        -14    1    4    4    0    0 -0.35272011814E+02  0.44277044178E+02  0.34014644840E+02  0.66042164729E+02  0.00000000000E+00 0.  1.
</event>
<event>
12    1  0.1630640E-001  0.2773315E+03  0.7818608E-02  0.1097160E+00
         21   -1    0    0  501  502  0.00000000000E+00  0.00000000000E+00  0.61395028722E+03  0.61395028722E+03  0.00000000000E+00 0.  1.
         21   -1    0    0  502  503 -0.00000000000E+00 -0.00000000000E+00 -0.15595258237E+03  0.15595258237E+03  0.00000000000E+00 0.  1.
         -6    2    1    2    0  503 -0.21547995956E+03 -0.32309938354E+02  0.58217856787E+02  0.28334694439E+03  0.17152442087E+03 0.  0.
        -24    2    3    3    0    0 -0.59869960887E+02 -0.56884418888E+02  0.20005402282E+01  0.11601238889E+03  0.81453194455E+02 0.  0.
          6    2    1    2  501    0  0.21547995956E+03  0.32309938354E+02  0.39977984806E+03  0.48655592520E+03  0.17157271444E+03 0.  0.
         24    2    5    5    0    0  0.74485385140E+02  0.72365080370E+02  0.17660696866E+03  0.21951265433E+03  0.78809939563E+02 0.  0.
          5    1    5    5  501    0  0.14099457442E+03 -0.40055142015E+02  0.22317287940E+03  0.26704327087E+03  0.47000000000E+01 0. -1.
        -11    1    6    6    0    0  0.61237596570E+02  0.54797668599E+01  0.95139161955E+02  0.11327634888E+03  0.00000000000E+00 0.  1.
         12    1    6    6    0    0  0.13247788571E+02  0.66885313510E+02  0.81467806706E+02  0.10623630545E+03  0.00000000000E+00 0. -1.
         -5    1    3    3    0  503 -0.15560999868E+03  0.24574480534E+02  0.56217316558E+02  0.16733455549E+03  0.47000000000E+01 0.  1.
         11    1    4    4    0    0 -0.72917283017E+02 -0.47411818130E+02  0.22589479967E+02  0.89861533852E+02  0.00000000000E+00 0. -1.
        -12    1    4    4    0    0  0.13047322130E+02 -0.94726007576E+01 -0.20588939738E+02  0.26150855042E+02  0.00000000000E+00 0.  1.
</event>
<event>
12    1  0.1630640E-001  0.2168615E+03  0.7818608E-02  0.1138810E+00
         21   -1    0    0  503  502  0.00000000000E+00  0.00000000000E+00  0.47950190355E+02  0.47950190355E+02  0.00000000000E+00 0. -1.
         21   -1    0    0  501  503 -0.00000000000E+00 -0.00000000000E+00 -0.11353078119E+04  0.11353078119E+04  0.00000000000E+00 0.  1.
          6    2    1    2  501    0 -0.87704846849E+02 -0.61479801440E+02 -0.27395468565E+03  0.34144256467E+03  0.17337805235E+03 0.  0.
         24    2    3    3    0    0 -0.30136596834E+02  0.28592094917E+02 -0.87488923249E+02  0.12645740130E+03  0.81310763689E+02 0.  0.
         -6    2    1    2    0  502  0.87704846849E+02  0.61479801440E+02 -0.81340293587E+03  0.84181543755E+03  0.18856560843E+03 0.  0.
        -24    2    5    5    0    0 -0.32100644194E+02  0.24696248664E+02 -0.38543472506E+03  0.39584989527E+03  0.80603078424E+02 0.  0.
          5    1    3    3  501    0 -0.57568250015E+02 -0.90071896357E+02 -0.18646576240E+03  0.21498516337E+03  0.47000000000E+01 0. -1.
        -13    1    4    4    0    0  0.25453162582E+02  0.13337606123E+02 -0.50077897097E+02  0.57736911938E+02  0.00000000000E+00 0.  1.
         14    1    4    4    0    0 -0.55589759416E+02  0.15254488794E+02 -0.37411026153E+02  0.68720489362E+02  0.00000000000E+00 0. -1.
         -5    1    5    5    0  502  0.11980549104E+03  0.36783552776E+02 -0.42796821081E+03  0.44596554228E+03  0.47000000000E+01 0.  1.
         11    1    6    6    0    0  0.14200623022E+02 -0.88808435196E+01 -0.20555231250E+02  0.26514988357E+02  0.00000000000E+00 0. -1.
        -12    1    6    6    0    0 -0.46301267215E+02  0.33577092184E+02 -0.36487949381E+03  0.36933490692E+03  0.00000000000E+00 0.  1.
</event>
<event>
12    1  0.1630640E-001  0.2098004E+03  0.7818608E-02  0.1141762E+00
         21   -1    0    0  501  502  0.00000000000E+00  0.00000000000E+00  0.79858812626E+02  0.79858812626E+02  0.00000000000E+00 0. -1.
         21   -1    0    0  502  503 -0.00000000000E+00 -0.00000000000E+00 -0.68021268516E+03  0.68021268516E+03  0.00000000000E+00 0.  1.
         -6    2    1    2    0  503  0.10695942623E+03  0.53014108749E+02 -0.46613473836E+03  0.51117295309E+03  0.17252645906E+03 0.  0.
        -24    2    3    3    0    0  0.14204888483E+03  0.25853682919E+02 -0.31866718810E+03  0.35710242632E+03  0.71603544008E+02 0.  0.
          6    2    1    2  501    0 -0.10695942623E+03 -0.53014108749E+02 -0.13421913417E+03  0.24889854470E+03  0.17229304974E+03 0.  0.
         24    2    5    5    0    0 -0.63263573684E+02  0.34312526984E+02 -0.54560799555E+02  0.12279220421E+03  0.83195043736E+02 0.  0.
          5    1    5    5  501    0 -0.43695852545E+02 -0.87326635734E+02 -0.79658334618E+02  0.12610634049E+03  0.47000000000E+01 0. -1.
        -11    1    6    6    0    0 -0.57341839045E+02  0.12051715827E+02 -0.72770816172E+02  0.93428700332E+02  0.00000000000E+00 0.  1.
         12    1    6    6    0    0 -0.59217346386E+01  0.22260811158E+02  0.18210016617E+02  0.29363503873E+02  0.00000000000E+00 0. -1.
         -5    1    3    3    0  503 -0.35089458604E+02  0.27160425830E+02 -0.14746755027E+03  0.15407052676E+03  0.47000000000E+01 0.  1.
         13    1    4    4    0    0 -0.37650666958E+01  0.53875723140E+01 -0.59204609240E+00  0.65994076429E+01  0.00000000000E+00 0. -1.
        -14    1    4    4    0    0  0.14581395153E+03  0.20466110605E+02 -0.31807514200E+03  0.35050301868E+03  0.00000000000E+00 0.  1.
</event>
<event>
12    1  0.1630640E-001  0.2828350E+03  0.7818608E-02  0.1094174E+00
         21   -1    0    0  503  502  0.00000000000E+00  0.00000000000E+00  0.12912067485E+03  0.12912067485E+03  0.00000000000E+00 0.  1.
         21   -1    0    0  501  503 -0.00000000000E+00 -0.00000000000E+00 -0.72300993740E+03  0.72300993740E+03  0.00000000000E+00 0.  1.
          6    2    1    2  501    0 -0.43934682805E+02 -0.21899486556E+03 -0.45834501158E+03  0.53849404607E+03  0.17322436466E+03 0.  0.
         24    2    3    3    0    0 -0.27865545016E+02 -0.23529325010E+03 -0.36541436002E+03  0.44267102938E+03  0.79313199398E+02 0.  0.
         -6    2    1    2    0  502  0.43934682805E+02  0.21899486556E+03 -0.13554425097E+03  0.31363656618E+03  0.17351266287E+03 0.  0.
        -24    2    5    5    0    0  0.26500000559E+02  0.91101199801E+02 -0.13607043124E+03  0.18447339514E+03  0.80706831322E+02 0.  0.
          5    1    3    3  501    0 -0.16069137789E+02  0.16298384541E+02 -0.92930651559E+02  0.95823016687E+02  0.47000000000E+01 0. -1.
        -13    1    4    4    0    0 -0.23268785648E+02 -0.60898991137E+02 -0.49750520283E+02  0.82007547064E+02  0.00000000000E+00 0.  1.
         14    1    4    4    0    0 -0.45967593679E+01 -0.17439425897E+03 -0.31566383974E+03  0.36066348232E+03  0.00000000000E+00 0. -1.
         -5    1    5    5    0  502  0.17434682246E+02  0.12789366576E+03  0.52618026562E+00  0.12916317104E+03  0.47000000000E+01 0.  1.
         13    1    6    6    0    0  0.52142489306E+02  0.36857939244E+02 -0.60318156248E+02  0.87838640981E+02  0.00000000000E+00 0. -1.
        -14    1    6    6    0    0 -0.25642488747E+02  0.54243260557E+02 -0.75752274988E+02  0.96634754156E+02  0.00000000000E+00 0.  1.
</event>
<event>
12    1  0.1630640E-001  0.1791951E+03  0.7818608E-02  0.1168773E+00
         21   -1    0    0  501  502  0.00000000000E+00  0.00000000000E+00  0.49313294641E+03  0.49313294641E+03  0.00000000000E+00 0.  1.
         21   -1    0    0  502  503 -0.00000000000E+00 -0.00000000000E+00 -0.73346471970E+02  0.73346471970E+02  0.00000000000E+00 0.  1.
         -6    2    1    2    0  503 -0.28198525356E+02 -0.43900443682E+02  0.11381013812E+03  0.21228194840E+03  0.17143066321E+03 0.  0.
        -24    2    3    3    0    0 -0.72589896158E+02 -0.27879259212E+01  0.37625868171E+02  0.11488089139E+03  0.80652636015E+02 0.  0.
          6    2    1    2  501    0  0.28198525356E+02  0.43900443682E+02  0.30597633632E+03  0.35419746999E+03  0.17062216611E+03 0.  0.
         24    2    5    5    0    0  0.60297094435E+02  0.88305319990E+01  0.93808224780E+02  0.13671732285E+03  0.78599780141E+02 0.  0.
          5    1    5    5  501    0 -0.32098569078E+02  0.35069911683E+02  0.21216811154E+03  0.21748014714E+03  0.47000000000E+01 0. -1.
        -11    1    6    6    0    0  0.38194103938E+00 -0.68628639530E+01  0.70040864361E+02  0.70377322064E+02  0.00000000000E+00 0.  1.
         12    1    6    6    0    0  0.59915153395E+02  0.15693395952E+02  0.23767360419E+02  0.66340000785E+02  0.00000000000E+00 0. -1.
         -5    1    3    3    0  503  0.44391370802E+02 -0.41112517761E+02  0.76184269949E+02  0.97401057006E+02  0.47000000000E+01 0.  1.
         13    1    4    4    0    0 -0.45685499532E+02  0.31926222801E+02  0.43324017401E+02  0.70593335759E+02  0.00000000000E+00 0. -1.
        -14    1    4    4    0    0 -0.26904396626E+02 -0.34714148722E+02 -0.56981492299E+01  0.44287555633E+02  0.00000000000E+00 0.  1.
</event>
<event>
12    1  0.1630640E-001  0.1934044E+03  0.7818608E-02  0.1155587E+00
         21   -1    0    0  503  502  0.00000000000E+00  0.00000000000E+00  0.48625791636E+02  0.48625791636E+02  0.00000000000E+00 0. -1.
         21   -1    0    0  501  503 -0.00000000000E+00 -0.00000000000E+00 -0.82191027012E+03  0.82191027012E+03  0.00000000000E+00 0. -1.
          6    2    1    2  501    0 -0.78654377949E+02 -0.33734984042E+02 -0.50048584484E+03  0.53655507057E+03  0.17343789249E+03 0.  0.
         24    2    3    3    0    0 -0.83392002530E+02  0.27499321476E+02 -0.41293942922E+03  0.42951045302E+03  0.79055792208E+02 0.  0.
         -6    2    1    2    0  502  0.78654377949E+02  0.33734984042E+02 -0.27279863364E+03  0.33398099119E+03  0.17262574442E+03 0.  0.
        -24    2    5    5    0    0  0.80041671161E+01 -0.36602047185E+02 -0.73520930701E+02  0.11110783636E+03  0.74403276135E+02 0.  0.
          5    1    3    3  501    0  0.47376245807E+01 -0.61234305518E+02 -0.87546415627E+02  0.10704461756E+03  0.47000000000E+01 0. -1.
        -13    1    4    4    0    0 -0.19516583737E+02  0.20277640137E+02 -0.28444161712E+03  0.28583056743E+03  0.00000000000E+00 0.  1.
         14    1    4    4    0    0 -0.63875418793E+02  0.72216813385E+01 -0.12849781210E+03  0.14367988558E+03  0.00000000000E+00 0. -1.
         -5    1    5    5    0  502  0.70650210833E+02  0.70337031227E+02 -0.19927770294E+03  0.22287315483E+03  0.47000000000E+01 0.  1.
         13    1    6    6    0    0  0.21498078128E+02  0.72093647688E+01 -0.58703127651E+02  0.62930115999E+02  0.00000000000E+00 0. -1.
        -14    1    6    6    0    0 -0.13493911012E+02 -0.43811411953E+02 -0.14817803050E+02  0.48177720359E+02  0.00000000000E+00 0.  1.
</event>
<event>
12    1  0.1630640E-001  0.1833508E+03  0.7818608E-02  0.1165093E+00
         21   -1    0    0  501  502  0.00000000000E+00  0.00000000000E+00  0.11650571769E+04  0.11650571769E+04  0.00000000000E+00 0. -1.
         21   -1    0    0  502  503 -0.00000000000E+00 -0.00000000000E+00 -0.25176005263E+03  0.25176005263E+03  0.00000000000E+00 0. -1.
         -6    2    1    2    0  503  0.57514885508E+02  0.12634960089E+02 -0.21071028839E+03  0.27795368007E+03  0.17144042218E+03 0.  0.
        -24    2    3    3    0    0 -0.14696670981E+02 -0.32836937339E+02 -0.61087778616E+02  0.10564236942E+03  0.78322007943E+02 0.  0.
          6    2    1    2  501    0 -0.57514885508E+02 -0.12634960089E+02  0.11240074127E+04  0.11388635495E+04  0.17363731257E+03 0.  0.
         24    2    5    5    0    0 -0.40156220114E+02 -0.32304917433E+01  0.11112950704E+04  0.11149165051E+04  0.80244137931E+02 0.  0.
          5    1    5    5  501    0 -0.17358665394E+02 -0.94044683453E+01  0.12712342219E+02  0.23947044365E+02  0.47000000000E+01 0. -1.
        -13    1    6    6    0    0  0.81368651569E+01  0.23375882783E+02  0.14889412869E+03  0.15093741097E+03  0.00000000000E+00 0.  1.
         14    1    6    6    0    0 -0.48293085271E+02 -0.26606374527E+02  0.96240094174E+03  0.96397909413E+03  0.00000000000E+00 0. -1.
         -5    1    3    3    0  503  0.72211556488E+02  0.45471897428E+02 -0.14962250977E+03  0.17231131065E+03  0.47000000000E+01 0.  1.
         13    1    4    4    0    0  0.31239599647E+02 -0.87428975982E+01 -0.34491012706E+02  0.47349559681E+02  0.00000000000E+00 0. -1.
        -14    1    4    4    0    0 -0.45936270627E+02 -0.24094039741E+02 -0.26596765910E+02  0.58292809737E+02  0.00000000000E+00 0.  1.
</event>
<event>
12    1  0.1630640E-001  0.1938069E+03  0.7818608E-02  0.1155692E+00
         21   -1    0    0  503  502  0.00000000000E+00  0.00000000000E+00  0.10681430606E+03  0.10681430606E+03  0.00000000000E+00 0.  1.
         21   -1    0    0  501  503 -0.00000000000E+00 -0.00000000000E+00 -0.13044691834E+04  0.13044691834E+04  0.00000000000E+00 0.  1.
          6    2    1    2  501    0  0.38653598506E+02 -0.79465296222E+02 -0.12023427050E+04  0.12174198530E+04  0.16933482872E+03 0.  0.
         24    2    3    3    0    0  0.30380684284E+02 -0.10079426588E+03 -0.58962782037E+03  0.60426001584E+03  0.79917020542E+02 0.  0.
         -6    2    1    2    0  502 -0.38653598506E+02  0.79465296222E+02  0.46878277152E+01  0.19386363642E+03  0.17248854981E+03 0.  0.
        -24    2    5    5    0    0 -0.38685545677E+02 -0.15824972162E+02 -0.17446697061E+02  0.95923535049E+02  0.84557295071E+02 0.  0.
          5    1    3    3  501    0  0.82729142218E+01  0.21328969661E+02 -0.61271488464E+03  0.61315983716E+03  0.47000000000E+01 0. -1.
        -11    1    4    4    0    0  0.26796130631E+02 -0.56384839456E+02 -0.50287472495E+03  0.50673491268E+03  0.00000000000E+00 0.  1.
         12    1    4    4    0    0  0.35845536525E+01 -0.44409426427E+02 -0.86753095424E+02  0.97525103159E+02  0.00000000000E+00 0. -1.
         -5    1    5    5    0  502  0.31947170815E-01  0.95290268384E+02  0.22134524776E+02  0.97940101370E+02  0.47000000000E+01 0.  1.
         11    1    6    6    0    0 -0.52525104564E+02  0.19599681608E+02 -0.13663327621E+02  0.57703731684E+02  0.00000000000E+00 0. -1.
        -12    1    6    6    0    0  0.13839558888E+02 -0.35424653769E+02 -0.37833694403E+01  0.38219803364E+02  0.00000000000E+00 0.  1.
</event>
<event>
12    1  0.1630640E-001  0.1758853E+03  0.7818608E-02  0.1172396E+00
         21   -1    0    0  503  502  0.00000000000E+00  0.00000000000E+00  0.46185926882E+03  0.46185926882E+03  0.00000000000E+00 0.  1.
         21   -1    0    0  501  503 -0.00000000000E+00 -0.00000000000E+00 -0.58395960907E+03  0.58395960907E+03  0.00000000000E+00 0.  1.
          6    2    1    2  501    0 -0.17149847047E+02 -0.14863829188E+02 -0.55340881527E+03  0.58002641035E+03  0.17220414982E+03 0.  0.
         24    2    3    3    0    0  0.52107999397E+02 -0.97290550471E+01 -0.21732511306E+03  0.23681021013E+03  0.77710827717E+02 0.  0.
         -6    2    1    2    0  502  0.17149847047E+02  0.14863829188E+02  0.43130847502E+03  0.46579246754E+03  0.17441494063E+03 0.  0.
        -24    2    5    5    0    0  0.14152184435E+02  0.60643745086E+02  0.15065948737E+03  0.18137950906E+03  0.79512873352E+02 0.  0.
          5    1    3    3  501    0 -0.69257846445E+02 -0.51347741411E+01 -0.33608370221E+03  0.34321620022E+03  0.47000000000E+01 0. -1.
        -13    1    4    4    0    0 -0.17628226582E+02  0.11131123528E+02 -0.39502321873E+02  0.44666427177E+02  0.00000000000E+00 0.  1.
         14    1    4    4    0    0  0.69736225979E+02 -0.20860178575E+02 -0.17782279119E+03  0.19214378296E+03  0.00000000000E+00 0. -1.
         -5    1    5    5    0  502  0.29976626128E+01 -0.45779915898E+02  0.28064898765E+03  0.28441295848E+03  0.47000000000E+01 0.  1.
         13    1    6    6    0    0  0.47631807110E+01 -0.19012504916E+02  0.41753116672E+02  0.46124678703E+02  0.00000000000E+00 0. -1.
        -14    1    6    6    0    0  0.93890037237E+01  0.79656250002E+02  0.10890637070E+03  0.13525483035E+03  0.00000000000E+00 0.  1.
</event>
<event>
12    1  0.1630640E-001  0.2167469E+03  0.7818608E-02  0.1136545E+00
         21   -1    0    0  503  502  0.00000000000E+00  0.00000000000E+00  0.33425632391E+03  0.33425632391E+03  0.00000000000E+00 0. -1.
         21   -1    0    0  501  503 -0.00000000000E+00 -0.00000000000E+00 -0.24429888664E+03  0.24429888664E+03  0.00000000000E+00 0. -1.
          6    2    1    2  501    0 -0.33112735564E+02  0.12766802231E+03 -0.14426147057E+03  0.25943496717E+03  0.17058591127E+03 0.  0.
         24    2    3    3    0    0 -0.68435883604E+02  0.34030067880E+02 -0.47739373010E+02  0.12031488733E+03  0.79718935599E+02 0.  0.
         -6    2    1    2    0  502  0.33112735564E+02 -0.12766802231E+03  0.23421890785E+03  0.31912024338E+03  0.17199899930E+03 0.  0.
        -24    2    5    5    0    0 -0.23249528369E+02 -0.24473517874E+02  0.42169148225E+02  0.93884787213E+02  0.76789469079E+02 0.  0.
          5    1    3    3  501    0  0.35323148040E+02  0.93637954435E+02 -0.96522097560E+02  0.13912007984E+03  0.47000000000E+01 0. -1.
        -13    1    4    4    0    0 -0.56231645924E+02  0.42576377720E+02 -0.23858437766E+00  0.70532282436E+02  0.00000000000E+00 0.  1.
         14    1    4    4    0    0 -0.12204237680E+02 -0.85463098407E+01 -0.47500788633E+02  0.49782604893E+02  0.00000000000E+00 0. -1.
         -5    1    5    5    0  502  0.56362263932E+02 -0.10319450444E+03  0.19204975962E+03  0.22523545616E+03  0.47000000000E+01 0.  1.
         13    1    6    6    0    0 -0.11728910013E+02 -0.77207923305E+01  0.63136090925E+02  0.64678775047E+02  0.00000000000E+00 0. -1.
        -14    1    6    6    0    0 -0.11520618356E+02 -0.16752725544E+02 -0.20966942700E+02  0.29206012166E+02  0.00000000000E+00 0.  1.
</event>
<event>
12    1  0.1630640E-001  0.2280508E+03  0.7818608E-02  0.1128148E+00
         21   -1    0    0  501  502  0.00000000000E+00  0.00000000000E+00  0.31735512192E+03  0.31735512192E+03  0.00000000000E+00 0. -1.
         21   -1    0    0  502  503 -0.00000000000E+00 -0.00000000000E+00 -0.24912921393E+03  0.24912921393E+03  0.00000000000E+00 0.  1.
         -6    2    1    2    0  503  0.30316158768E+02 -0.14604921204E+03 -0.13211692321E+03  0.26293133296E+03  0.17154755211E+03 0.  0.
        -24    2    3    3    0    0  0.50411944683E+02 -0.75123788415E+02 -0.10209186822E+02  0.12039066326E+03  0.78770150139E+02 0.  0.
          6    2    1    2  501    0 -0.30316158768E+02  0.14604921204E+03  0.20034283120E+03  0.30355300289E+03  0.17250430062E+03 0.  0.
         24    2    5    5    0    0 -0.43031646743E+02  0.19325901060E+02  0.12323015859E+03  0.15459349344E+03  0.80549755773E+02 0.  0.
          5    1    5    5  501    0  0.12715487975E+02  0.12672331098E+03  0.77112672609E+02  0.14895950945E+03  0.47000000000E+01 0. -1.
        -13    1    6    6    0    0  0.56910506241E+01  0.50081637585E+01 -0.96897824120E+01  0.12302912039E+02  0.00000000000E+00 0.  1.
         14    1    6    6    0    0 -0.48722697367E+02  0.14317737302E+02  0.13291994100E+03  0.14229058140E+03  0.00000000000E+00 0. -1.
         -5    1    3    3    0  503 -0.20095785915E+02 -0.70925423622E+02 -0.12190773638E+03  0.14254066970E+03  0.47000000000E+01 0.  1.
         11    1    4    4    0    0 -0.59370424803E+01 -0.56115410493E+02  0.10543066612E+02  0.57405087072E+02  0.00000000000E+00 0. -1.
        -12    1    4    4    0    0  0.56348987163E+02 -0.19008377922E+02 -0.20752253434E+02  0.62985576191E+02  0.00000000000E+00 0.  1.
</event>
<event>
12    1  0.1630640E-001  0.2134002E+03  0.7818608E-02  0.1138976E+00
         21   -1    0    0  501  502  0.00000000000E+00  0.00000000000E+00  0.30684822899E+03  0.30684822899E+03  0.00000000000E+00 0.  1.
         21   -1    0    0  502  503 -0.00000000000E+00 -0.00000000000E+00 -0.26028192531E+03  0.26028192531E+03  0.00000000000E+00 0. -1.
         -6    2    1    2    0  503 -0.69519769274E+02 -0.10494337265E+03 -0.16285413381E+03  0.26813758243E+03  0.17184348818E+03 0.  0.
        -24    2    3    3    0    0 -0.14884426348E+02 -0.94874433180E+02 -0.35682270551E+02  0.12928090436E+03  0.78851909187E+02 0.  0.
          6    2    1    2  501    0  0.69519769274E+02  0.10494337265E+03  0.20942043748E+03  0.29899257188E+03  0.17231810299E+03 0.  0.
         24    2    5    5    0    0  0.79486058031E+02  0.13776712467E+03  0.18044197619E+03  0.25384208099E+03  0.81109070081E+02 0.  0.
          5    1    5    5  501    0 -0.99662887564E+01 -0.32823752019E+02  0.28978461299E+02  0.45150490888E+02  0.47000000000E+01 0. -1.
        -13    1    6    6    0    0  0.40255271914E+02  0.10517541206E+02  0.22650161503E+02  0.47372306319E+02  0.00000000000E+00 0.  1.
         14    1    6    6    0    0  0.39230786117E+02  0.12724958346E+03  0.15779181468E+03  0.20646977467E+03  0.00000000000E+00 0. -1.
         -5    1    3    3    0  503 -0.54635342926E+02 -0.10068939469E+02 -0.12717186326E+03  0.13885667806E+03  0.47000000000E+01 0.  1.
         11    1    4    4    0    0 -0.14765184735E+02 -0.31096813736E+02 -0.52995948488E+02  0.63194881604E+02  0.00000000000E+00 0. -1.
        -12    1    4    4    0    0 -0.11924161310E+00 -0.63777619444E+02  0.17313677936E+02  0.66086022760E+02  0.00000000000E+00 0.  1.
</event>
<event>
12    1  0.1630640E-001  0.1944398E+03  0.7818608E-02  0.1154811E+00
         21   -1    0    0  501  502  0.00000000000E+00  0.00000000000E+00  0.22460918391E+02  0.22460918391E+02  0.00000000000E+00 0.  1.
         21   -1    0    0  502  503 -0.00000000000E+00 -0.00000000000E+00 -0.17293150391E+04  0.17293150391E+04  0.00000000000E+00 0.  1.
         -6    2    1    2    0  503 -0.71688101848E+02  0.52239463730E+02 -0.10105326599E+04  0.10288164863E+04  0.17151956228E+03 0.  0.
        -24    2    3    3    0    0 -0.35999544739E+02  0.54477439265E+01 -0.89755866873E+03  0.90134746719E+03  0.74094855885E+02 0.  0.
          6    2    1    2  501    0  0.71688101848E+02 -0.52239463730E+02 -0.69632146083E+03  0.72295947121E+03  0.17302795925E+03 0.  0.
         24    2    5    5    0    0  0.45009978015E+02 -0.24036475147E+02 -0.19050852381E+03  0.21563713964E+03  0.87190756896E+02 0.  0.
          5    1    5    5  501    0  0.26678123833E+02 -0.28202988583E+02 -0.50581293702E+03  0.50732233157E+03  0.47000000000E+01 0. -1.
        -13    1    6    6    0    0  0.52359936872E+02 -0.39468937117E+02 -0.78275112995E+02  0.10210951621E+03  0.00000000000E+00 0.  1.
         14    1    6    6    0    0 -0.73499588571E+01  0.15432461970E+02 -0.11223341082E+03  0.11352762343E+03  0.00000000000E+00 0. -1.
         -5    1    3    3    0  503 -0.35688557108E+02  0.46791719804E+02 -0.11297399114E+03  0.12746901908E+03  0.47000000000E+01 0.  1.
         13    1    4    4    0    0  0.45146153864E+01 -0.53939487985E+01 -0.74302527712E+01  0.10231573289E+02  0.00000000000E+00 0. -1.
        -14    1    4    4    0    0 -0.40514160126E+02  0.10841692725E+02 -0.89012841596E+03  0.89111589390E+03  0.00000000000E+00 0.  1.
</event>
<event>
12    1  0.1630640E-001  0.1745586E+03  0.7818608E-02  0.1174849E+00
         21   -1    0    0  501  502  0.00000000000E+00  0.00000000000E+00  0.84887143456E+03  0.84887143456E+03  0.00000000000E+00 0.  1.
         21   -1    0    0  502  503 -0.00000000000E+00 -0.00000000000E+00 -0.38606087086E+02  0.38606087086E+02  0.00000000000E+00 0.  1.
         -6    2    1    2    0  503  0.28889410121E+02  0.17500059742E+02  0.25476648414E+03  0.30519777540E+03  0.16461734587E+03 0.  0.
        -24    2    3    3    0    0 -0.34726701181E+02 -0.20786903819E+02  0.16650226711E+03  0.18976137212E+03  0.81537318143E+02 0.  0.
          6    2    1    2  501    0 -0.28889410121E+02 -0.17500059742E+02  0.55549886334E+03  0.58227974625E+03  0.17125964384E+03 0.  0.
         24    2    5    5    0    0 -0.55422498698E+02  0.24896170212E+02  0.49326187905E+03  0.50229864025E+03  0.72836598046E+02 0.  0.
          5    1    5    5  501    0  0.26533088577E+02 -0.42396229954E+02  0.62236984287E+02  0.79981105999E+02  0.47000000000E+01 0. -1.
        -13    1    6    6    0    0 -0.17433544562E+02 -0.17716141531E+02  0.29318807864E+03  0.29423976550E+03  0.00000000000E+00 0.  1.
         14    1    6    6    0    0 -0.37988954136E+02  0.42612311742E+02  0.20007380041E+03  0.20805887474E+03  0.00000000000E+00 0. -1.
         -5    1    3    3    0  503  0.63616111302E+02  0.38286963561E+02  0.88264217028E+02  0.11543640329E+03  0.47000000000E+01 0.  1.
         13    1    4    4    0    0 -0.26820730040E+02  0.78542343131E+01  0.88224801278E+01  0.29306598440E+02  0.00000000000E+00 0. -1.
        -14    1    4    4    0    0 -0.79059711414E+01 -0.28641138132E+02  0.15767978698E+03  0.16045477368E+03  0.00000000000E+00 0.  1.
</event>
<event>
12    1  0.1630640E-001  0.2137150E+03  0.7818608E-02  0.1138920E+00
         21   -1    0    0  503  502  0.00000000000E+00  0.00000000000E+00  0.13396026067E+04  0.13396026067E+04  0.00000000000E+00 0.  1.
         21   -1    0    0  501  503 -0.00000000000E+00 -0.00000000000E+00 -0.33880277537E+02  0.33880277537E+02  0.00000000000E+00 0.  1.
          6    2    1    2  501    0 -0.91777714112E+02  0.85408288482E+02  0.65398610687E+03  0.68760080988E+03  0.17140397082E+03 0.  0.
         24    2    3    3    0    0 -0.67907975948E+02 -0.11359680197E+01  0.21460288823E+03  0.23911516288E+03  0.80677616873E+02 0.  0.
         -6    2    1    2    0  502  0.91777714112E+02 -0.85408288482E+02  0.65173622231E+03  0.68588207438E+03  0.17307914933E+03 0.  0.
        -24    2    5    5    0    0  0.97145751948E+02 -0.19820679574E+02  0.27512921384E+03  0.30353997742E+03  0.81303610790E+02 0.  0.
          5    1    3    3  501    0 -0.23869738164E+02  0.86544256501E+02  0.43938321864E+03  0.44848564699E+03  0.47000000000E+01 0. -1.
        -11    1    4    4    0    0 -0.54014035274E+02  0.36287400399E+02  0.14371205803E+03  0.15775755785E+03  0.00000000000E+00 0.  1.
         12    1    4    4    0    0 -0.13893940674E+02 -0.37423368419E+02  0.70890830196E+02  0.81357605036E+02  0.00000000000E+00 0. -1.
         -5    1    5    5    0  502 -0.53680378358E+01 -0.65587608908E+02  0.37660700847E+03  0.38234209695E+03  0.47000000000E+01 0.  1.
         11    1    6    6    0    0  0.16457241422E+02  0.15788086549E+01  0.53952915142E+00  0.16541599792E+02  0.00000000000E+00 0. -1.
        -12    1    6    6    0    0  0.80688510526E+02 -0.21399488229E+02  0.27458968469E+03  0.28699837763E+03  0.00000000000E+00 0.  1.
</event>
<event>
12    1  0.1630640E-001  0.2451353E+03  0.7818608E-02  0.1116929E+00
         21   -1    0    0  503  502  0.00000000000E+00  0.00000000000E+00  0.76354854145E+03  0.76354854145E+03  0.00000000000E+00 0. -1.
         21   -1    0    0  501  503 -0.00000000000E+00 -0.00000000000E+00 -0.12534243799E+03  0.12534243799E+03  0.00000000000E+00 0. -1.
          6    2    1    2  501    0 -0.16475543672E+03 -0.58978073507E+02  0.46364573559E+02  0.24948141398E+03  0.17166401824E+03 0.  0.
         24    2    3    3    0    0 -0.11909521917E+03 -0.74745913423E+02 -0.24997565331E+02  0.16317889311E+03  0.78942067873E+02 0.  0.
         -6    2    1    2    0  502  0.16475543672E+03  0.58978073507E+02  0.59184152990E+03  0.63940956546E+03  0.16716886314E+03 0.  0.
        -24    2    5    5    0    0  0.14151152335E+03 -0.12413587342E+01  0.50678889075E+03  0.53253252885E+03  0.82029642701E+02 0.  0.
          5    1    3    3  501    0 -0.45660217548E+02  0.15767839915E+02  0.71362138891E+02  0.86302520874E+02  0.47000000000E+01 0. -1.
        -13    1    4    4    0    0 -0.12010275055E+03 -0.86874668898E+02 -0.18490312370E+02  0.14937794495E+03  0.00000000000E+00 0.  1.
         14    1    4    4    0    0  0.10075313806E+01  0.12128755476E+02 -0.65072529614E+01  0.13800948155E+02  0.00000000000E+00 0. -1.
         -5    1    5    5    0  502  0.23243913368E+02  0.60219432242E+02  0.85052639147E+02  0.10687703661E+03  0.47000000000E+01 0.  1.
         13    1    6    6    0    0  0.47485625357E+02 -0.37498871831E+02  0.14884355246E+03  0.16067188028E+03  0.00000000000E+00 0. -1.
        -14    1    6    6    0    0  0.94025897995E+02  0.36257513097E+02  0.35794533830E+03  0.37186064857E+03  0.00000000000E+00 0.  1.
</event>
<event>
12    1  0.1630640E-001  0.1831297E+03  0.7818608E-02  0.1164873E+00
         21   -1    0    0  503  502  0.00000000000E+00  0.00000000000E+00  0.35063938991E+03  0.35063938991E+03  0.00000000000E+00 0.  1.
         21   -1    0    0  501  503 -0.00000000000E+00 -0.00000000000E+00 -0.10160274933E+03  0.10160274933E+03  0.00000000000E+00 0.  1.
          6    2    1    2  501    0 -0.27423551698E+02  0.54581787875E+02  0.17984703833E+03  0.25647779655E+03  0.17235045741E+03 0.  0.
         24    2    3    3    0    0  0.21340862761E+02  0.80843725929E+02  0.16077748293E+03  0.19771219904E+03  0.79054248359E+02 0.  0.
         -6    2    1    2    0  502  0.27423551698E+02 -0.54581787875E+02  0.69189602255E+02  0.19576434270E+03  0.17264198232E+03 0.  0.
        -24    2    5    5    0    0  0.16641026968E+02 -0.44858902504E+02 -0.28336821095E+02  0.97051169361E+02  0.79540613099E+02 0.  0.
          5    1    3    3  501    0 -0.48764414458E+02 -0.26261938054E+02  0.19069555395E+02  0.58765597510E+02  0.47000000000E+01 0. -1.
        -13    1    4    4    0    0  0.17907539887E+01  0.86104483968E+02  0.15384846151E+03  0.17631374895E+03  0.00000000000E+00 0.  1.
         14    1    4    4    0    0  0.19550108772E+02 -0.52607580396E+01  0.69290214195E+01  0.21398450083E+02  0.00000000000E+00 0. -1.
         -5    1    5    5    0  502  0.10782524730E+02 -0.97228853708E+01  0.97526423350E+02  0.98713173340E+02  0.47000000000E+01 0.  1.
         13    1    6    6    0    0 -0.27153195683E+02  0.37028854795E+01 -0.94017399340E+01  0.28972402566E+02  0.00000000000E+00 0. -1.
        -14    1    6    6    0    0  0.43794222651E+02 -0.48561787983E+02 -0.18935081161E+02  0.68078766795E+02  0.00000000000E+00 0.  1.
</event>
<event>
12    1  0.1630640E-001  0.1789464E+03  0.7818608E-02  0.1169688E+00
         21   -1    0    0  501  502  0.00000000000E+00  0.00000000000E+00  0.71434073521E+03  0.71434073521E+03  0.00000000000E+00 0. -1.
         21   -1    0    0  502  503 -0.00000000000E+00 -0.00000000000E+00 -0.43958515741E+02  0.43958515741E+02  0.00000000000E+00 0.  1.
         -6    2    1    2    0  503 -0.29834308690E+02  0.35925434983E+02  0.33479963303E+03  0.37798689916E+03  0.16912296948E+03 0.  0.
        -24    2    3    3    0    0 -0.16833187530E+02  0.37102283177E+02  0.73847384223E+02  0.11666606134E+03  0.80607680107E+02 0.  0.
          6    2    1    2  501    0  0.29834308690E+02 -0.35925434983E+02  0.33558258644E+03  0.38031235179E+03  0.17274573728E+03 0.  0.
         24    2    5    5    0    0  0.90948029997E+01 -0.70381574271E+02  0.11657641163E+03  0.15759471164E+03  0.78801979348E+02 0.  0.
          5    1    5    5  501    0  0.20739505690E+02  0.34456139288E+02  0.21900617481E+03  0.22271764015E+03  0.47000000000E+01 0. -1.
        -11    1    6    6    0    0  0.38719231187E+02 -0.39776098033E+02  0.94553890338E+02  0.10964376415E+03  0.00000000000E+00 0.  1.
         12    1    6    6    0    0 -0.29624428187E+02 -0.30605476239E+02  0.22022521294E+02  0.47950947492E+02  0.00000000000E+00 0. -1.
         -5    1    3    3    0  503 -0.13001121160E+02 -0.11768481938E+01  0.26095224880E+03  0.26132083782E+03  0.47000000000E+01 0.  1.
         13    1    4    4    0    0  0.19928776994E+02  0.47994042370E+02  0.41618474651E+02  0.66578387543E+02  0.00000000000E+00 0. -1.
        -14    1    4    4    0    0 -0.36761964524E+02 -0.10891759193E+02  0.32228909573E+02  0.50087673796E+02  0.00000000000E+00 0.  1.
</event>
<event>
12    1  0.1630640E-001  0.2126708E+03  0.7818608E-02  0.1139475E+00
         21   -1    0    0  503  502  0.00000000000E+00  0.00000000000E+00  0.12327111927E+03  0.12327111927E+03  0.00000000000E+00 0.  1.
         21   -1    0    0  501  503 -0.00000000000E+00 -0.00000000000E+00 -0.66773605674E+03  0.66773605674E+03  0.00000000000E+00 0.  1.
          6    2    1    2  501    0  0.12510321453E+03 -0.18047583273E+02 -0.53773754470E+03  0.57826512664E+03  0.17103321362E+03 0.  0.
         24    2    3    3    0    0  0.95453867757E+02  0.42741815418E+02 -0.25279532205E+03  0.28536822497E+03  0.81186484827E+02 0.  0.
         -6    2    1    2    0  502 -0.12510321453E+03  0.18047583273E+02 -0.67273927704E+01  0.21274204937E+03  0.17098945057E+03 0.  0.
        -24    2    5    5    0    0 -0.15736437176E+03  0.27045857121E+02 -0.21847955663E+01  0.17861762428E+03  0.80027860673E+02 0.  0.
          5    1    3    3  501    0  0.29649346775E+02 -0.60789398692E+02 -0.28494222266E+03  0.29289690167E+03  0.47000000000E+01 0. -1.
        -11    1    4    4    0    0  0.19683397980E+02 -0.46873065457E+01 -0.13996048739E+03  0.14141550491E+03  0.00000000000E+00 0.  1.
         12    1    4    4    0    0  0.75770469776E+02  0.47429121964E+02 -0.11283483466E+03  0.14395272006E+03  0.00000000000E+00 0. -1.
         -5    1    5    5    0  502  0.32261157231E+02 -0.89982738474E+01 -0.45425972042E+01  0.34124425086E+02  0.47000000000E+01 0.  1.
         11    1    6    6    0    0 -0.90366887445E+02  0.42287342128E+02 -0.30460096173E+02  0.10431783697E+03  0.00000000000E+00 0. -1.
        -12    1    6    6    0    0 -0.66997484317E+02 -0.15241485007E+02  0.28275300607E+02  0.74299787311E+02  0.00000000000E+00 0.  1.
</event>
<event>
12    1  0.1630640E-001  0.2332860E+03  0.7818608E-02  0.1124355E+00
         21   -1    0    0  501  502  0.00000000000E+00  0.00000000000E+00  0.10170939862E+03  0.10170939862E+03  0.00000000000E+00 0. -1.
         21   -1    0    0  502  503 -0.00000000000E+00 -0.00000000000E+00 -0.74289553442E+03  0.74289553442E+03  0.00000000000E+00 0. -1.
         -6    2    1    2    0  503 -0.20308130281E+02  0.15537017363E+03 -0.97170223097E+02  0.25267955410E+03  0.17277903169E+03 0.  0.
        -24    2    3    3    0    0 -0.65632817074E+02  0.99581668164E+02 -0.10805815311E+03  0.17982818764E+03  0.80233641978E+02 0.  0.
          6    2    1    2  501    0  0.20308130281E+02 -0.15537017363E+03 -0.54401591270E+03  0.59192537893E+03  0.17282948227E+03 0.  0.
         24    2    5    5    0    0 -0.29982068055E+02 -0.11506080659E+03 -0.48555015471E+03  0.50478018987E+03  0.70044084152E+02 0.  0.
          5    1    5    5  501    0  0.50290198336E+02 -0.40309367039E+02 -0.58465757988E+02  0.87145189063E+02  0.47000000000E+01 0. -1.
        -13    1    6    6    0    0 -0.35604679050E+02 -0.64371396708E+02 -0.38577632331E+03  0.39272731190E+03  0.00000000000E+00 0.  1.
         14    1    6    6    0    0  0.56226109944E+01 -0.50689409886E+02 -0.99773831406E+02  0.11205287797E+03  0.00000000000E+00 0. -1.
         -5    1    3    3    0  503  0.45324686793E+02  0.55788505469E+02  0.10887930009E+02  0.72851366461E+02  0.47000000000E+01 0.  1.
         13    1    4    4    0    0 -0.59283008050E+02  0.21028910374E+02 -0.63100826172E+02  0.89097723756E+02  0.00000000000E+00 0. -1.
        -14    1    4    4    0    0 -0.63498090240E+01  0.78552757791E+02 -0.44957326935E+02  0.90730463882E+02  0.00000000000E+00 0.  1.
</event>
<event>
12    1  0.1630640E-001  0.2004380E+03  0.7818608E-02  0.1149650E+00
         21   -1    0    0  503  502  0.00000000000E+00  0.00000000000E+00  0.17323757146E+03  0.17323757146E+03  0.00000000000E+00 0. -1.
         21   -1    0    0  501  503 -0.00000000000E+00 -0.00000000000E+00 -0.68103293681E+03  0.68103293681E+03  0.00000000000E+00 0. -1.
          6    2    1    2  501    0  0.75995867082E+02 -0.65987711726E+02 -0.60107144110E+03  0.63319174109E+03  0.17179974904E+03 0.  0.
         24    2    3    3    0    0 -0.10087552478E+02  0.78108282631E+01 -0.19299771876E+03  0.20963202572E+03  0.80837485149E+02 0.  0.
         -6    2    1    2    0  502 -0.75995867082E+02  0.65987711726E+02  0.93276075749E+02  0.22107876718E+03  0.17333679666E+03 0.  0.
        -24    2    5    5    0    0 -0.75886517084E+02  0.29568259728E+02  0.12761359519E+03  0.17080408486E+03  0.79093364245E+02 0.  0.
          5    1    3    3  501    0  0.86083419560E+02 -0.73798539989E+02 -0.40807372234E+03  0.42355971538E+03  0.47000000000E+01 0. -1.
        -11    1    4    4    0    0  0.38318891793E+01  0.40855429720E+02 -0.13805245173E+03  0.14402197381E+03  0.00000000000E+00 0.  1.
         12    1    4    4    0    0 -0.13919441657E+02 -0.33044601457E+02 -0.54945267034E+02  0.65610051905E+02  0.00000000000E+00 0. -1.
         -5    1    5    5    0  502 -0.10934999805E+00  0.36419451998E+02 -0.34337519441E+02  0.50274682322E+02  0.47000000000E+01 0.  1.
         11    1    6    6    0    0 -0.82053748263E+02  0.23969633850E+02  0.64355490873E+02  0.10699995400E+03  0.00000000000E+00 0. -1.
        -12    1    6    6    0    0  0.61672311795E+01  0.55986258778E+01  0.63258104318E+02  0.63804130854E+02  0.00000000000E+00 0.  1.
</event>
<event>
12    1  0.1630640E-001  0.1934318E+03  0.7818608E-02  0.1155812E+00
         21   -1    0    0  501  502  0.00000000000E+00  0.00000000000E+00  0.44434103769E+03  0.44434103769E+03  0.00000000000E+00 0. -1.
         21   -1    0    0  502  503 -0.00000000000E+00 -0.00000000000E+00 -0.14193335332E+03  0.14193335332E+03  0.00000000000E+00 0.  1.
         -6    2    1    2    0  503 -0.74325606258E+02  0.37229040322E+02 -0.36613945809E+02  0.19686656765E+03  0.17465843021E+03 0.  0.
        -24    2    3    3    0    0 -0.35516095164E+02  0.12125946081E+02  0.47459264107E+02  0.10081065624E+03  0.80634825466E+02 0.  0.
          6    2    1    2  501    0  0.74325606258E+02 -0.37229040322E+02  0.33902163017E+03  0.38940782336E+03  0.17260501145E+03 0.  0.
         24    2    5    5    0    0  0.59322557665E+02  0.33537286151E+02  0.26646682141E+03  0.28684440540E+03  0.81432368158E+02 0.  0.
          5    1    5    5  501    0  0.15003048593E+02 -0.70766326474E+02  0.72554808761E+02  0.10256341796E+03  0.47000000000E+01 0. -1.
        -11    1    6    6    0    0  0.31056715801E+01 -0.20227714490E+02  0.11246290555E+03  0.11430971417E+03  0.00000000000E+00 0.  1.
         12    1    6    6    0    0  0.56216886085E+02  0.53765000641E+02  0.15400391586E+03  0.17253469122E+03  0.00000000000E+00 0. -1.
         -5    1    3    3    0  503 -0.38809511094E+02  0.25103094242E+02 -0.84073209916E+02  0.96055911413E+02  0.47000000000E+01 0.  1.
         11    1    4    4    0    0  0.22179243995E+02  0.15230746735E+02  0.30335094036E+02  0.40547656411E+02  0.00000000000E+00 0. -1.
        -12    1    4    4    0    0 -0.57695339159E+02 -0.31048006547E+01  0.17124170071E+02  0.60262999829E+02  0.00000000000E+00 0.  1.
</event>
<event>
12    1  0.1630640E-001  0.2202833E+03  0.7818608E-02  0.1133917E+00
         21   -1    0    0  503  502  0.00000000000E+00  0.00000000000E+00  0.48345707170E+03  0.48345707170E+03  0.00000000000E+00 0. -1.
         21   -1    0    0  501  503 -0.00000000000E+00 -0.00000000000E+00 -0.10622713180E+03  0.10622713180E+03  0.00000000000E+00 0. -1.
          6    2    1    2  501    0  0.11156828704E+03  0.78599372731E+02  0.11646740128E+03  0.24917738970E+03  0.17291434849E+03 0.  0.
         24    2    3    3    0    0  0.14766214605E+03  0.73738446258E+02  0.95644810316E+02  0.20696287136E+03  0.80275977417E+02 0.  0.
         -6    2    1    2    0  502 -0.11156828704E+03 -0.78599372731E+02  0.26076253862E+03  0.34050681379E+03  0.17123797659E+03 0.  0.
        -24    2    5    5    0    0 -0.11424596222E+03 -0.10906540400E+03  0.17438327179E+03  0.24875270357E+03  0.80752583972E+02 0.  0.
          5    1    3    3  501    0 -0.36093859011E+02  0.48609264733E+01  0.20822590960E+02  0.42214518341E+02  0.47000000000E+01 0. -1.
        -13    1    4    4    0    0 -0.82242712858E+01  0.12095480540E+02  0.14997475609E+01  0.14703350993E+02  0.00000000000E+00 0.  1.
         14    1    4    4    0    0  0.15588641733E+03  0.61642965718E+02  0.94145062755E+02  0.19225952037E+03  0.00000000000E+00 0. -1.
         -5    1    5    5    0  502  0.26776751869E+01  0.30466031267E+02  0.86379266826E+02  0.91754110224E+02  0.47000000000E+01 0.  1.
         13    1    6    6    0    0 -0.97724298084E+02 -0.87985478237E+02  0.17844640634E+03  0.22166326433E+03  0.00000000000E+00 0. -1.
        -14    1    6    6    0    0 -0.16521664140E+02 -0.21079925760E+02 -0.40631345483E+01  0.27089439240E+02  0.00000000000E+00 0.  1.
</event>
<event>
12    1  0.1630640E-001  0.2066731E+03  0.7818608E-02  0.1144756E+00
         21   -1    0    0  503  502  0.00000000000E+00  0.00000000000E+00  0.21926718938E+03  0.21926718938E+03  0.00000000000E+00 0.  1.
         21   -1    0    0  501  503 -0.00000000000E+00 -0.00000000000E+00 -0.38379699243E+03  0.38379699243E+03  0.00000000000E+00 0.  1.
          6    2    1    2  501    0 -0.44362199159E+02 -0.10487726558E+03 -0.29547936330E+03  0.36058540708E+03  0.17247184151E+03 0.  0.
         24    2    3    3    0    0  0.19217498828E+02 -0.10340110496E+03 -0.24999956057E+03  0.28225878643E+03  0.78160997076E+02 0.  0.
         -6    2    1    2    0  502  0.44362199159E+02  0.10487726558E+03  0.13094956025E+03  0.24247877473E+03  0.16935443105E+03 0.  0.
        -24    2    5    5    0    0  0.65011455445E+02  0.13227718002E+03  0.10026893783E+03  0.19621282950E+03  0.81987028701E+02 0.  0.
          5    1    3    3  501    0 -0.63579697987E+02 -0.14761606232E+01 -0.45479802729E+02  0.78326620651E+02  0.47000000000E+01 0. -1.
        -11    1    4    4    0    0  0.24806464335E+02 -0.42432708601E+02 -0.39560771421E+02  0.63094770524E+02  0.00000000000E+00 0.  1.
         12    1    4    4    0    0 -0.55889655071E+01 -0.60968396361E+02 -0.21043878915E+03  0.21916401591E+03  0.00000000000E+00 0. -1.
         -5    1    5    5    0  502 -0.20649256285E+02 -0.27399914434E+02  0.30680622419E+02  0.46265945232E+02  0.47000000000E+01 0.  1.
         11    1    6    6    0    0  0.16171366586E+02  0.44619061438E+01  0.46090123184E+02  0.49048151431E+02  0.00000000000E+00 0. -1.
        -12    1    6    6    0    0  0.48840088859E+02  0.12781527387E+03  0.54178814646E+02  0.14716467807E+03  0.00000000000E+00 0.  1.
</event>
<event>
12    1  0.1630640E-001  0.2089363E+03  0.7818608E-02  0.1142572E+00
         21   -1    0    0  501  502  0.00000000000E+00  0.00000000000E+00  0.38678264399E+02  0.38678264399E+02  0.00000000000E+00 0. -1.
         21   -1    0    0  502  503 -0.00000000000E+00 -0.00000000000E+00 -0.12859183678E+04  0.12859183678E+04  0.00000000000E+00 0. -1.
         -6    2    1    2    0  503  0.46239808806E+02  0.10693099265E+03 -0.38988550849E+03  0.44234044556E+03  0.17344164131E+03 0.  0.
        -24    2    3    3    0    0  0.60514862444E+02  0.47757770767E+02 -0.10884743772E+03  0.15474744396E+03  0.78461158989E+02 0.  0.
          6    2    1    2  501    0 -0.46239808806E+02 -0.10693099265E+03 -0.85735459491E+03  0.88225618664E+03  0.17247237559E+03 0.  0.
         24    2    5    5    0    0 -0.52430875871E+02 -0.92655303055E+02 -0.35347415818E+03  0.37811363820E+03  0.81804284510E+02 0.  0.
          5    1    5    5  501    0  0.61910670657E+01 -0.14275689590E+02 -0.50388043673E+03  0.50414254844E+03  0.47000000000E+01 0. -1.
        -13    1    6    6    0    0  0.12692823427E+02  0.67700983408E+01 -0.54873456635E+02  0.56727755475E+02  0.00000000000E+00 0.  1.
         14    1    6    6    0    0 -0.65123699299E+02 -0.99425401396E+02 -0.29860070154E+03  0.32138588273E+03  0.00000000000E+00 0. -1.
         -5    1    3    3    0  503 -0.14275053638E+02  0.59173221879E+02 -0.28103807077E+03  0.28759300160E+03  0.47000000000E+01 0.  1.
         13    1    4    4    0    0 -0.12090212578E+02  0.14376072592E+02 -0.55684958730E+02  0.58767842670E+02  0.00000000000E+00 0. -1.
        -14    1    4    4    0    0  0.72605075022E+02  0.33381698175E+02 -0.53162478987E+02  0.95979601292E+02  0.00000000000E+00 0.  1.
</event>
<event>
12    1  0.1630640E-001  0.2024644E+03  0.7818608E-02  0.1150105E+00
         21   -1    0    0  503  502  0.00000000000E+00  0.00000000000E+00  0.20149528518E+03  0.20149528518E+03  0.00000000000E+00 0.  1.
         21   -1    0    0  501  503 -0.00000000000E+00 -0.00000000000E+00 -0.42960960008E+03  0.42960960008E+03  0.00000000000E+00 0. -1.
          6    2    1    2  501    0 -0.77783361106E+01 -0.85337318676E+02 -0.35005980600E+03  0.40439298104E+03  0.18343624196E+03 0.  0.
         24    2    3    3    0    0 -0.17632358429E+02 -0.92784543230E+02 -0.36419263735E+03  0.38504382520E+03  0.81869400268E+02 0.  0.
         -6    2    1    2    0  502  0.77783361106E+01  0.85337318676E+02  0.12194549110E+03  0.22671190423E+03  0.17083507909E+03 0.  0.
        -24    2    5    5    0    0 -0.50807705129E+02  0.81149064779E+02  0.51748149332E+02  0.13506244984E+03  0.79983753238E+02 0.  0.
          5    1    3    3  501    0  0.98540223183E+01  0.74472245541E+01  0.14132831352E+02  0.19349155833E+02  0.47000000000E+01 0. -1.
        -11    1    4    4    0    0  0.32234130157E+01 -0.10208053740E+03 -0.30056234975E+03  0.31744062846E+03  0.00000000000E+00 0.  1.
         12    1    4    4    0    0 -0.20855771444E+02  0.92959941714E+01 -0.63630287597E+02  0.67603196743E+02  0.00000000000E+00 0. -1.
         -5    1    5    5    0  502  0.58586041240E+02  0.41882538966E+01  0.70197341764E+02  0.91649454388E+02  0.47000000000E+01 0.  1.
         13    1    6    6    0    0  0.59522736065E+01  0.63867694059E+02  0.36499120586E+02  0.73801745975E+02  0.00000000000E+00 0. -1.
        -14    1    6    6    0    0 -0.56759978736E+02  0.17281370720E+02  0.15249028746E+02  0.61260703863E+02  0.00000000000E+00 0.  1.
</event>
<event>
12    1  0.1630640E-001  0.2064365E+03  0.7818608E-02  0.1144823E+00
         21   -1    0    0  501  502  0.00000000000E+00  0.00000000000E+00  0.26351983502E+03  0.26351983502E+03  0.00000000000E+00 0. -1.
         21   -1    0    0  502  503 -0.00000000000E+00 -0.00000000000E+00 -0.28846340615E+03  0.28846340615E+03  0.00000000000E+00 0. -1.
         -6    2    1    2    0  503  0.92214307115E+02 -0.65485264248E+02 -0.19649564770E+03  0.28356914913E+03  0.17032065201E+03 0.  0.
        -24    2    3    3    0    0  0.18622005174E+02 -0.41588307711E+02 -0.24415711493E+02  0.94835246817E+02  0.79506167410E+02 0.  0.
          6    2    1    2  501    0 -0.92214307115E+02  0.65485264248E+02  0.17155207657E+03  0.26841409204E+03  0.17269687768E+03 0.  0.
         24    2    5    5    0    0 -0.17830805388E+01  0.74662202080E+02  0.61897613947E+02  0.12590720063E+03  0.80272565437E+02 0.  0.
          5    1    5    5  501    0 -0.90431226576E+02 -0.91769378323E+01  0.10965446262E+03  0.14250689141E+03  0.47000000000E+01 0. -1.
        -11    1    6    6    0    0  0.17541742063E+02 -0.27835463497E+01 -0.83051565124E+01  0.19607051527E+02  0.00000000000E+00 0.  1.
         12    1    6    6    0    0 -0.19324822602E+02  0.77445748430E+02  0.70202770459E+02  0.10630014910E+03  0.00000000000E+00 0. -1.
         -5    1    3    3    0  503  0.73592301941E+02 -0.23896956537E+02 -0.17207993621E+03  0.18873390231E+03  0.47000000000E+01 0.  1.
         13    1    4    4    0    0  0.21709725237E+02 -0.50556434608E+02 -0.45705642371E+02  0.71528113317E+02  0.00000000000E+00 0. -1.
        -14    1    4    4    0    0 -0.30877200629E+01  0.89681268971E+01  0.21289930878E+02  0.23307133500E+02  0.00000000000E+00 0.  1.
</event>
<event>
12    1  0.1630640E-001  0.3086975E+03  0.7818608E-02  0.1081044E+00
         21   -1    0    0  503  502  0.00000000000E+00  0.00000000000E+00  0.15137201199E+03  0.15137201199E+03  0.00000000000E+00 0.  1.
         21   -1    0    0  501  503 -0.00000000000E+00 -0.00000000000E+00 -0.65946493692E+03  0.65946493692E+03  0.00000000000E+00 0. -1.
          6    2    1    2  501    0 -0.80858698082E+02 -0.24310304378E+03 -0.16616756197E+03  0.35057924741E+03  0.17221187855E+03 0.  0.
         24    2    3    3    0    0 -0.62720912766E+02 -0.78098191955E+02 -0.12652475280E+03  0.17984781299E+03  0.79394472603E+02 0.  0.
         -6    2    1    2    0  502  0.80858698082E+02  0.24310304378E+03 -0.34192536295E+03  0.46025770150E+03  0.17113438874E+03 0.  0.
        -24    2    5    5    0    0  0.47479494313E+02  0.22886844799E+03 -0.34415032085E+03  0.42359934094E+03  0.79761453312E+02 0.  0.
          5    1    3    3  501    0 -0.18137785316E+02 -0.16500485182E+03 -0.39642809172E+02  0.17073143442E+03  0.47000000000E+01 0. -1.
        -13    1    4    4    0    0 -0.13832863031E+02  0.16336352781E+02 -0.23476190236E+02  0.31770364018E+02  0.00000000000E+00 0.  1.
         14    1    4    4    0    0 -0.48888049735E+02 -0.94434544736E+02 -0.10304856256E+03  0.14807744897E+03  0.00000000000E+00 0. -1.
         -5    1    5    5    0  502  0.33379203770E+02  0.14234595784E+02  0.22249578967E+01  0.36658360562E+02  0.47000000000E+01 0.  1.
         11    1    6    6    0    0  0.81564619742E+01  0.16596885585E+01 -0.45682989111E+02  0.46435093756E+02  0.00000000000E+00 0. -1.
        -12    1    6    6    0    0  0.39323032338E+02  0.22720875944E+03 -0.29846733174E+03  0.37716424718E+03  0.00000000000E+00 0.  1.
</event>
<event>
12    1  0.1630640E-001  0.1750743E+03  0.7818608E-02  0.1173294E+00
         21   -1    0    0  503  502  0.00000000000E+00  0.00000000000E+00  0.21152367556E+02  0.21152367556E+02  0.00000000000E+00 0.  1.
         21   -1    0    0  501  503 -0.00000000000E+00 -0.00000000000E+00 -0.15101840498E+04  0.15101840498E+04  0.00000000000E+00 0.  1.
          6    2    1    2  501    0 -0.13473774463E+02 -0.38084772319E+00 -0.92789864128E+03  0.94427056110E+03  0.17455462306E+03 0.  0.
         24    2    3    3    0    0 -0.57904005739E+02 -0.94114178265E+01 -0.33354026691E+03  0.34816690919E+03  0.80806177573E+02 0.  0.
         -6    2    1    2    0  502  0.13473774463E+02  0.38084772319E+00 -0.56113304095E+03  0.58706585624E+03  0.17203006212E+03 0.  0.
        -24    2    5    5    0    0  0.47465993208E+02  0.14811889440E+02 -0.17255120571E+03  0.19670492251E+03  0.80290070179E+02 0.  0.
          5    1    3    3  501    0  0.44430231276E+02  0.90305701033E+01 -0.59435837436E+03  0.59610365191E+03  0.47000000000E+01 0. -1.
        -11    1    4    4    0    0 -0.56653931683E+02  0.26139245122E+02 -0.17825091154E+03  0.18885527680E+03  0.00000000000E+00 0.  1.
         12    1    4    4    0    0 -0.12500740556E+01 -0.35550662948E+02 -0.15528935537E+03  0.15931163239E+03  0.00000000000E+00 0. -1.
         -5    1    5    5    0  502 -0.33992218745E+02 -0.14431041717E+02 -0.38858183524E+03  0.39036093372E+03  0.47000000000E+01 0.  1.
         13    1    6    6    0    0 -0.17872859080E+02  0.10385125579E+02 -0.84371285779E+02  0.86866586148E+02  0.00000000000E+00 0. -1.
        -14    1    6    6    0    0  0.65338852289E+02  0.44267638610E+01 -0.88179919928E+02  0.10983833636E+03  0.00000000000E+00 0.  1.
</event>
<event>
12    1  0.1630640E-001  0.2547050E+03  0.7818608E-02  0.1110701E+00
         21   -1    0    0  501  502  0.00000000000E+00  0.00000000000E+00  0.22282528629E+03  0.22282528629E+03  0.00000000000E+00 0. -1.
         21   -1    0    0  502  503 -0.00000000000E+00 -0.00000000000E+00 -0.33810470906E+03  0.33810470906E+03  0.00000000000E+00 0.  1.
         -6    2    1    2    0  503  0.97451055776E+02 -0.16032177242E+03  0.49376687199E+02  0.25944686966E+03  0.17226387304E+03 0.  0.
        -24    2    3    3    0    0  0.25033454085E+02 -0.11563103545E+03 -0.31833556186E+02  0.14172361522E+03  0.71239017603E+02 0.  0.
          6    2    1    2  501    0 -0.97451055776E+02  0.16032177242E+03 -0.16465610997E+03  0.30148312569E+03  0.16905816022E+03 0.  0.
         24    2    5    5    0    0 -0.10787674994E+03  0.91399145344E+02 -0.55399798579E+02  0.17179868097E+03  0.80339605132E+02 0.  0.
          5    1    5    5  501    0  0.10425694166E+02  0.68922627075E+02 -0.10925631139E+03  0.12968444472E+03  0.47000000000E+01 0. -1.
        -11    1    6    6    0    0 -0.61071051841E+02  0.71527220413E+02 -0.71847962050E+02  0.11835517008E+03  0.00000000000E+00 0.  1.
         12    1    6    6    0    0 -0.46805698100E+02  0.19871924931E+02  0.16448163470E+02  0.53443510894E+02  0.00000000000E+00 0. -1.
         -5    1    3    3    0  503  0.72417601690E+02 -0.44690736973E+02  0.81210243385E+02  0.11772325444E+03  0.47000000000E+01 0.  1.
         13    1    4    4    0    0  0.76499068944E+01 -0.53261115309E+02  0.21395302726E+02  0.57905323229E+02  0.00000000000E+00 0. -1.
        -14    1    4    4    0    0  0.17383547191E+02 -0.62369920137E+02 -0.53228858912E+02  0.83818291989E+02  0.00000000000E+00 0.  1.
</event>
<event>
12    1  0.1630640E-001  0.1888211E+03  0.7818608E-02  0.1159617E+00
         21   -1    0    0  501  502  0.00000000000E+00  0.00000000000E+00  0.69293305250E+03  0.69293305250E+03  0.00000000000E+00 0.  1.
         21   -1    0    0  502  503 -0.00000000000E+00 -0.00000000000E+00 -0.25512611455E+03  0.25512611455E+03  0.00000000000E+00 0.  1.
         -6    2    1    2    0  503 -0.31271670020E+02 -0.71005735625E+02 -0.20470152297E+03  0.27848898135E+03  0.17214432140E+03 0.  0.
        -24    2    3    3    0    0 -0.82373418946E+02 -0.35004250340E+02 -0.16655051237E+03  0.20510584094E+03  0.79489968725E+02 0.  0.
          6    2    1    2  501    0  0.31271670020E+02  0.71005735625E+02  0.64250846093E+03  0.66957018570E+03  0.17171889639E+03 0.  0.
         24    2    5    5    0    0  0.48083919368E+02 -0.11946698007E+02  0.42915054871E+03  0.43998916148E+03  0.83459462450E+02 0.  0.
          5    1    5    5  501    0 -0.16812249348E+02  0.82952433631E+02  0.21335791222E+03  0.22958102422E+03  0.47000000000E+01 0. -1.
        -11    1    6    6    0    0 -0.10496718817E+02  0.24568069011E+02  0.15474528062E+03  0.15703462355E+03  0.00000000000E+00 0.  1.
         12    1    6    6    0    0  0.58580638185E+02 -0.36514767018E+02  0.27440526809E+03  0.28295453793E+03  0.00000000000E+00 0. -1.
         -5    1    3    3    0  503  0.51101748926E+02 -0.36001485284E+02 -0.38151010602E+02  0.73383140406E+02  0.47000000000E+01 0.  1.
         11    1    4    4    0    0 -0.26884007406E+02 -0.17006150099E+01 -0.55771886080E+00  0.26943514915E+02  0.00000000000E+00 0. -1.
        -12    1    4    4    0    0 -0.55489411540E+02 -0.33303635330E+02 -0.16599279351E+03  0.17816232603E+03  0.00000000000E+00 0.  1.
</event>
<event>
12    1  0.1630640E-001  0.2024192E+03  0.7818608E-02  0.1148048E+00
         21   -1    0    0  501  502  0.00000000000E+00  0.00000000000E+00  0.25454378185E+03  0.25454378185E+03  0.00000000000E+00 0.  1.
         21   -1    0    0  502  503 -0.00000000000E+00 -0.00000000000E+00 -0.34296111663E+03  0.34296111663E+03  0.00000000000E+00 0. -1.
         -6    2    1    2    0  503 -0.86839175455E+02 -0.56662254254E+02 -0.26267791733E+03  0.33162213438E+03  0.17384446584E+03 0.  0.
        -24    2    3    3    0    0  0.10860798066E+02  0.32638244327E+01 -0.15446987301E+03  0.17392783965E+03  0.79128643697E+02 0.  0.
          6    2    1    2  501    0  0.86839175455E+02  0.56662254254E+02  0.17426058255E+03  0.26588276410E+03  0.17197453348E+03 0.  0.
         24    2    5    5    0    0  0.46639704175E+02  0.80261852923E+02  0.18087600502E+03  0.21856688555E+03  0.80237941339E+02 0.  0.
          5    1    5    5  501    0  0.40199471280E+02 -0.23599598668E+02 -0.66154224679E+01  0.47315878550E+02  0.47000000000E+01 0. -1.
        -11    1    6    6    0    0 -0.15978908613E+02  0.96787098130E+01  0.72514170823E+02  0.74881959872E+02  0.00000000000E+00 0.  1.
         12    1    6    6    0    0  0.62618612787E+02  0.70583143110E+02  0.10836183419E+03  0.14368492568E+03  0.00000000000E+00 0. -1.
         -5    1    3    3    0  503 -0.97699973521E+02 -0.59926078687E+02 -0.10820804433E+03  0.15769429473E+03  0.47000000000E+01 0.  1.
         13    1    4    4    0    0 -0.21390564874E+02  0.18445285330E+02 -0.12355878074E+03  0.12674603392E+03  0.00000000000E+00 0. -1.
        -14    1    4    4    0    0  0.32251362940E+02 -0.15181460898E+02 -0.30911092261E+02  0.47181805722E+02  0.00000000000E+00 0.  1.
</event>
<event>
12    1  0.1630640E-001  0.2503052E+03  0.7818608E-02  0.1113765E+00
         21   -1    0    0  501  502  0.00000000000E+00  0.00000000000E+00  0.24465018318E+03  0.24465018318E+03  0.00000000000E+00 0. -1.
         21   -1    0    0  502  503 -0.00000000000E+00 -0.00000000000E+00 -0.54990842938E+03  0.54990842938E+03  0.00000000000E+00 0. -1.
         -6    2    1    2    0  503  0.14099577897E+03 -0.11585965100E+03 -0.44565483889E+03  0.51113688052E+03  0.17131668566E+03 0.  0.
        -24    2    3    3    0    0  0.11133205474E+03 -0.31368262923E+02 -0.16580877093E+03  0.21727527543E+03  0.79606547874E+02 0.  0.
          6    2    1    2  501    0 -0.14099577897E+03  0.11585965100E+03  0.14039659269E+03  0.28342173204E+03  0.16526768146E+03 0.  0.
         24    2    5    5    0    0 -0.40572477100E+02  0.20521022378E+02  0.91617184015E+01  0.92584167878E+02  0.80128976033E+02 0.  0.
          5    1    5    5  501    0 -0.10042330187E+03  0.95338628619E+02  0.13123487429E+03  0.19083756416E+03  0.47000000000E+01 0. -1.
        -11    1    6    6    0    0 -0.18728698489E+02 -0.30676589034E+02 -0.12151374734E+01  0.35962394538E+02  0.00000000000E+00 0.  1.
         12    1    6    6    0    0 -0.21843778611E+02  0.51197611412E+02  0.10376855875E+02  0.56621773340E+02  0.00000000000E+00 0. -1.
         -5    1    3    3    0  503  0.29663724233E+02 -0.84491388074E+02 -0.27984606796E+03  0.29386160509E+03  0.47000000000E+01 0.  1.
         13    1    4    4    0    0  0.41959960216E+02 -0.49703333185E+02 -0.10350331525E+03  0.12224563738E+03  0.00000000000E+00 0. -1.
        -14    1    4    4    0    0  0.69372094522E+02  0.18335070262E+02 -0.62305455680E+02  0.95029638047E+02  0.00000000000E+00 0.  1.
</event>
<event>
12    1  0.1630640E-001  0.2716369E+03  0.7818608E-02  0.1100978E+00
         21   -1    0    0  503  502  0.00000000000E+00  0.00000000000E+00  0.86937624834E+02  0.86937624834E+02  0.00000000000E+00 0. -1.
         21   -1    0    0  501  503 -0.00000000000E+00 -0.00000000000E+00 -0.17040732746E+04  0.17040732746E+04  0.00000000000E+00 0. -1.
          6    2    1    2  501    0 -0.60713455446E+02  0.20077586024E+03 -0.16581620730E+03  0.31448973278E+03  0.16556481418E+03 0.  0.
         24    2    3    3    0    0 -0.46019421140E+02  0.20901961623E+03 -0.18081744498E+03  0.29144626757E+03  0.80243326113E+02 0.  0.
         -6    2    1    2    0  502  0.60713455446E+02 -0.20077586024E+03 -0.14513194424E+04  0.14765211666E+04  0.17259652883E+03 0.  0.
        -24    2    5    5    0    0  0.60366002525E+02 -0.13654467384E+03 -0.13140757889E+04  0.13249174844E+04  0.79515151056E+02 0.  0.
          5    1    3    3  501    0 -0.14694034306E+02 -0.82437559839E+01  0.15001237676E+02  0.23043465207E+02  0.47000000000E+01 0. -1.
        -11    1    4    4    0    0 -0.46160318515E+02  0.12346920964E+03 -0.15194863446E+03  0.20115617875E+03  0.00000000000E+00 0.  1.
         12    1    4    4    0    0  0.14089737550E+00  0.85550406591E+02 -0.28868810516E+02  0.90290088828E+02  0.00000000000E+00 0. -1.
         -5    1    5    5    0  502  0.34745292120E+00 -0.64231186404E+02 -0.13724365349E+03  0.15160368219E+03  0.47000000000E+01 0.  1.
         13    1    6    6    0    0 -0.22633257674E+01 -0.98563264325E+01 -0.38697698676E+03  0.38710910361E+03  0.00000000000E+00 0. -1.
        -14    1    6    6    0    0  0.62629328292E+02 -0.12668834741E+03 -0.92709880218E+03  0.93780838082E+03  0.00000000000E+00 0.  1.
</event>
<event>
12    1  0.1630640E-001  0.2082868E+03  0.7818608E-02  0.1143009E+00
         21   -1    0    0  501  502  0.00000000000E+00  0.00000000000E+00  0.18192810671E+03  0.18192810671E+03  0.00000000000E+00 0. -1.
         21   -1    0    0  502  503 -0.00000000000E+00 -0.00000000000E+00 -0.24517123348E+03  0.24517123348E+03  0.00000000000E+00 0. -1.
         -6    2    1    2    0  503  0.64059828455E+02  0.97583887845E+02  0.48393927107E+01  0.20834300588E+03  0.17250249734E+03 0.  0.
        -24    2    3    3    0    0  0.60621682578E+02  0.10053695342E+03 -0.54992830809E+02  0.14815557850E+03  0.71716083257E+02 0.  0.
          6    2    1    2  501    0 -0.64059828455E+02 -0.97583887845E+02 -0.68082519483E+02  0.21875633431E+03  0.17202565958E+03 0.  0.
         24    2    5    5    0    0 -0.67591085787E+01 -0.14537423547E+02  0.21087550398E+02  0.84021486952E+02  0.79736461269E+02 0.  0.
          5    1    5    5  501    0 -0.57300719876E+02 -0.83046464297E+02 -0.89170069880E+02  0.13473484736E+03  0.47000000000E+01 0. -1.
        -13    1    6    6    0    0 -0.20243691985E+01  0.11003193316E+02 -0.27077865732E+02  0.29298108239E+02  0.00000000000E+00 0.  1.
         14    1    6    6    0    0 -0.47347393802E+01 -0.25540616864E+02  0.48165416130E+02  0.54723378713E+02  0.00000000000E+00 0. -1.
         -5    1    3    3    0  503  0.34381458769E+01 -0.29530655786E+01  0.59832223520E+02  0.60187427380E+02  0.47000000000E+01 0.  1.
         13    1    4    4    0    0  0.59606655394E+02  0.10830187456E+03 -0.37813062170E+02  0.12927519898E+03  0.00000000000E+00 0. -1.
        -14    1    4    4    0    0  0.10150271843E+01 -0.77649211339E+01 -0.17179768639E+02  0.18880379522E+02  0.00000000000E+00 0.  1.
</event>
<event>
12    1  0.1630640E-001  0.2059753E+03  0.7818608E-02  0.1145087E+00
         21   -1    0    0  503  502  0.00000000000E+00  0.00000000000E+00  0.47165332502E+03  0.47165332502E+03  0.00000000000E+00 0. -1.
         21   -1    0    0  501  503 -0.00000000000E+00 -0.00000000000E+00 -0.98510732295E+02  0.98510732295E+02  0.00000000000E+00 0. -1.
          6    2    1    2  501    0 -0.10345396045E+03 -0.42836276386E+02  0.27422147522E+03  0.34296246744E+03  0.17288194843E+03 0.  0.
         24    2    3    3    0    0 -0.74286728478E+02  0.37484799242E+02  0.19388353090E+03  0.22558070604E+03  0.79826080845E+02 0.  0.
         -6    2    1    2    0  502  0.10345396045E+03  0.42836276386E+02  0.98921117505E+02  0.22720158987E+03  0.17116514378E+03 0.  0.
        -24    2    5    5    0    0  0.11685328917E+03 -0.16441094570E+02  0.54171767717E+02  0.15158450831E+03  0.78219447463E+02 0.  0.
          5    1    3    3  501    0 -0.29167231975E+02 -0.80321075628E+02  0.80337944326E+02  0.11738176140E+03  0.47000000000E+01 0. -1.
        -11    1    4    4    0    0 -0.12067554941E+02 -0.14319825716E+02  0.39885612034E+01  0.19146590069E+02  0.00000000000E+00 0.  1.
         12    1    4    4    0    0 -0.62219173537E+02  0.51804624958E+02  0.18989496969E+03  0.20643411597E+03  0.00000000000E+00 0. -1.
         -5    1    5    5    0  502 -0.13399328719E+02  0.59277370956E+02  0.44749349788E+02  0.75617081563E+02  0.47000000000E+01 0.  1.
         11    1    6    6    0    0  0.51396783817E+02  0.19209737773E+02 -0.67980449474E+01  0.55288849031E+02  0.00000000000E+00 0. -1.
        -12    1    6    6    0    0  0.65456505355E+02 -0.35650832343E+02  0.60969812664E+02  0.96295659281E+02  0.00000000000E+00 0.  1.
</event>
<event>
12    1  0.1630640E-001  0.1972265E+03  0.7818608E-02  0.1152467E+00
         21   -1    0    0  503  502  0.00000000000E+00  0.00000000000E+00  0.36579733857E+03  0.36579733857E+03  0.00000000000E+00 0.  1.
         21   -1    0    0  501  503 -0.00000000000E+00 -0.00000000000E+00 -0.12586881775E+03  0.12586881775E+03  0.00000000000E+00 0.  1.
          6    2    1    2  501    0 -0.71726115776E+02 -0.61847078920E+02  0.20452000814E+02  0.19659290840E+03  0.17105785700E+03 0.  0.
         24    2    3    3    0    0 -0.17111906716E+02 -0.36048247842E+02 -0.45369998829E+02  0.10713388341E+03  0.88469987320E+02 0.  0.
         -6    2    1    2    0  502  0.71726115776E+02  0.61847078920E+02  0.21947652000E+03  0.29507324791E+03  0.17299879175E+03 0.  0.
        -24    2    5    5    0    0  0.90893179351E+02 -0.13044312083E+01  0.18564839211E+03  0.22076361331E+03  0.77511133886E+02 0.  0.
          5    1    3    3  501    0 -0.54614209060E+02 -0.25798831078E+02  0.65821999644E+02  0.89459024997E+02  0.47000000000E+01 0. -1.
        -11    1    4    4    0    0 -0.27841884535E+02  0.19758489112E+02 -0.35863657597E+02  0.49515354817E+02  0.00000000000E+00 0.  1.
         12    1    4    4    0    0  0.10729977819E+02 -0.55806736953E+02 -0.95063412329E+01  0.57618528591E+02  0.00000000000E+00 0. -1.
         -5    1    5    5    0  502 -0.19167063575E+02  0.63151510129E+02  0.33828127892E+02  0.74309634599E+02  0.47000000000E+01 0.  1.
         13    1    6    6    0    0  0.51430898469E+00 -0.20688499424E+02  0.68393372324E+02  0.71455803823E+02  0.00000000000E+00 0. -1.
        -14    1    6    6    0    0  0.90378870367E+02  0.19384068216E+02  0.11725501979E+03  0.14930780949E+03  0.00000000000E+00 0.  1.
</event>
<event>
12    1  0.1630640E-001  0.2451295E+03  0.7818608E-02  0.1116598E+00
         21   -1    0    0  503  502  0.00000000000E+00  0.00000000000E+00  0.65554075684E+02  0.65554075684E+02  0.00000000000E+00 0.  1.
         21   -1    0    0  501  503 -0.00000000000E+00 -0.00000000000E+00 -0.13246691595E+04  0.13246691595E+04  0.00000000000E+00 0. -1.
          6    2    1    2  501    0  0.16386081388E+03  0.58469838611E+02 -0.24281673704E+03  0.34503394220E+03  0.17268284551E+03 0.  0.
         24    2    3    3    0    0  0.62278690556E+02  0.88420279966E+02 -0.10132120698E+03  0.16823170313E+03  0.79618702237E+02 0.  0.
         -6    2    1    2    0  502 -0.16386081388E+03 -0.58469838611E+02 -0.10162983468E+04  0.10451892930E+04  0.17114099494E+03 0.  0.
        -24    2    5    5    0    0 -0.14847951364E+03 -0.98443672348E+02 -0.90381294547E+03  0.92473371076E+03  0.80729627901E+02 0.  0.
          5    1    3    3  501    0  0.10158212332E+03 -0.29950441354E+02 -0.14149553006E+03  0.17680223908E+03  0.47000000000E+01 0. -1.
        -13    1    4    4    0    0  0.74079271780E+02  0.57535276719E+02 -0.47682982396E+02  0.10522220956E+03  0.00000000000E+00 0.  1.
         14    1    4    4    0    0 -0.11800581224E+02  0.30885003247E+02 -0.53638224584E+02  0.63009493565E+02  0.00000000000E+00 0. -1.
         -5    1    5    5    0  502 -0.15381300238E+02  0.39973833737E+02 -0.11248540129E+03  0.12045558220E+03  0.47000000000E+01 0.  1.
         11    1    6    6    0    0 -0.16228745818E+02 -0.31438925671E+02 -0.33701224929E+03  0.33886433039E+03  0.00000000000E+00 0. -1.
        -12    1    6    6    0    0 -0.13225076782E+03 -0.67004746677E+02 -0.56680069618E+03  0.58586938037E+03  0.00000000000E+00 0.  1.
</event>
<event>
12    1  0.1630640E-001  0.1830342E+03  0.7818608E-02  0.1165536E+00
         21   -1    0    0  501  502  0.00000000000E+00  0.00000000000E+00  0.53430376954E+02  0.53430376954E+02  0.00000000000E+00 0.  1.
         21   -1    0    0  502  503 -0.00000000000E+00 -0.00000000000E+00 -0.62752510981E+03  0.62752510981E+03  0.00000000000E+00 0.  1.
         -6    2    1    2    0  503 -0.56134723166E+02 -0.13477788109E+01 -0.33130948677E+03  0.37850693248E+03  0.17420849078E+03 0.  0.
        -24    2    3    3    0    0  0.15382543747E+02  0.15789971136E+02 -0.11092589945E+03  0.14612914202E+03  0.92537695765E+02 0.  0.
          6    2    1    2  501    0  0.56134723166E+02  0.13477788109E+01 -0.24278524608E+03  0.30244855428E+03  0.17139874159E+03 0.  0.
         24    2    5    5    0    0  0.60800014129E+02  0.46738901596E+02 -0.23001486711E+03  0.25483246932E+03  0.78432019541E+02 0.  0.
          5    1    5    5  501    0 -0.46652909639E+01 -0.45391122785E+02 -0.12770378969E+02  0.47616084955E+02  0.47000000000E+01 0. -1.
        -11    1    6    6    0    0  0.67020879575E+02  0.40926478618E+02 -0.11356424385E+03  0.13807104125E+03  0.00000000000E+00 0.  1.
         12    1    6    6    0    0 -0.62208654451E+01  0.58124229775E+01 -0.11645062326E+03  0.11676142807E+03  0.00000000000E+00 0. -1.
         -5    1    3    3    0  503 -0.71517266913E+02 -0.17137749947E+02 -0.22038358732E+03  0.23237779046E+03  0.47000000000E+01 0.  1.
         11    1    4    4    0    0  0.14600938043E+02 -0.38308226225E+02 -0.49542357210E+02  0.64305153341E+02  0.00000000000E+00 0. -1.
        -12    1    4    4    0    0  0.78160570432E+00  0.54098197361E+02 -0.61383542244E+02  0.81823988680E+02  0.00000000000E+00 0.  1.
</event>
<event>
12    1  0.1630640E-001  0.1905624E+03  0.7818608E-02  0.1157974E+00
         21   -1    0    0  501  502  0.00000000000E+00  0.00000000000E+00  0.11299254211E+03  0.11299254211E+03  0.00000000000E+00 0.  1.
         21   -1    0    0  502  503 -0.00000000000E+00 -0.00000000000E+00 -0.32257812865E+03  0.32257812865E+03  0.00000000000E+00 0.  1.
         -6    2    1    2    0  503  0.77856841563E+02  0.14725238625E+02 -0.11881374502E+03  0.22456790807E+03  0.17330758465E+03 0.  0.
        -24    2    3    3    0    0  0.11856846266E+03  0.31332178115E+02 -0.10615349099E+03  0.17857227171E+03  0.74694757876E+02 0.  0.
          6    2    1    2  501    0 -0.77856841563E+02 -0.14725238625E+02 -0.90771841522E+02  0.21100276269E+03  0.17321696862E+03 0.  0.
         24    2    5    5    0    0  0.19431676873E+02  0.13605108002E+02 -0.23623282040E+02  0.89352923399E+02  0.82844411010E+02 0.  0.
          5    1    5    5  501    0 -0.97288518436E+02 -0.28330346627E+02 -0.67148559482E+02  0.12164983929E+03  0.47000000000E+01 0. -1.
        -13    1    6    6    0    0  0.23125015651E+02 -0.30768695753E+02  0.93692022793E+00  0.38501387075E+02  0.00000000000E+00 0.  1.
         14    1    6    6    0    0 -0.36933387775E+01  0.44373803755E+02 -0.24560202268E+02  0.50851536324E+02  0.00000000000E+00 0. -1.
         -5    1    3    3    0  503 -0.40711621094E+02 -0.16606939490E+02 -0.12660254030E+02  0.45995636352E+02  0.47000000000E+01 0.  1.
         11    1    4    4    0    0  0.15139824069E+02  0.35531710568E+02 -0.18012245345E+02  0.42616401903E+02  0.00000000000E+00 0. -1.
        -12    1    4    4    0    0  0.10342863859E+03 -0.41995324530E+01 -0.88141245642E+02  0.13595586981E+03  0.00000000000E+00 0.  1.
</event>
<event>
12    1  0.1630640E-001  0.2017601E+03  0.7818608E-02  0.1148409E+00
         21   -1    0    0  503  502  0.00000000000E+00  0.00000000000E+00  0.26672073461E+03  0.26672073461E+03  0.00000000000E+00 0.  1.
         21   -1    0    0  501  503 -0.00000000000E+00 -0.00000000000E+00 -0.15418595527E+03  0.15418595527E+03  0.00000000000E+00 0. -1.
          6    2    1    2  501    0  0.70597305549E+02  0.77746201984E+02  0.31647172572E+02  0.20353618122E+03  0.17145548128E+03 0.  0.
         24    2    3    3    0    0  0.63237791839E+02  0.88537624699E+02  0.78204511689E+02  0.15495333371E+03  0.77824550600E+02 0.  0.
         -6    2    1    2    0  502 -0.70597305549E+02 -0.77746201984E+02  0.80887606770E+02  0.21737050866E+03  0.17227501744E+03 0.  0.
        -24    2    5    5    0    0 -0.48697760755E+02 -0.23347075518E+02  0.10266581816E+03  0.15463905312E+03  0.10225658265E+03 0.  0.
          5    1    3    3  501    0  0.73595137095E+01 -0.10791422715E+02 -0.46557339117E+02  0.48582847507E+02  0.47000000000E+01 0. -1.
        -11    1    4    4    0    0  0.12016466978E+02  0.80912544594E+02  0.43894978882E+02  0.92833208080E+02  0.00000000000E+00 0.  1.
         12    1    4    4    0    0  0.51221324862E+02  0.76250801050E+01  0.34309532807E+02  0.62120125633E+02  0.00000000000E+00 0. -1.
         -5    1    5    5    0  502 -0.21899544794E+02 -0.54399126466E+02 -0.21778211391E+02  0.62731455538E+02  0.47000000000E+01 0.  1.
         11    1    6    6    0    0 -0.63096221388E+02 -0.31448930862E+02  0.24329432317E+02  0.74579418627E+02  0.00000000000E+00 0. -1.
        -12    1    6    6    0    0  0.14398460634E+02  0.81018553446E+01  0.78336385843E+02  0.80059634496E+02  0.00000000000E+00 0.  1.
</event>
<event>
12    1  0.1630640E-001  0.1725644E+03  0.7818608E-02  0.1175406E+00
         21   -1    0    0  503  502  0.00000000000E+00  0.00000000000E+00  0.11788020506E+03  0.11788020506E+03  0.00000000000E+00 0.  1.
         21   -1    0    0  501  503 -0.00000000000E+00 -0.00000000000E+00 -0.25952892304E+03  0.25952892304E+03  0.00000000000E+00 0.  1.
          6    2    1    2  501    0 -0.46410335166E+01  0.19298216118E+01 -0.10429872423E+03  0.20163503369E+03  0.17249115784E+03 0.  0.
         24    2    3    3    0    0  0.37554864023E+01 -0.27072565686E+02  0.71064726156E+01  0.86115131080E+02  0.81352850945E+02 0.  0.
         -6    2    1    2    0  502  0.46410335166E+01 -0.19298216118E+01 -0.37349993756E+02  0.17577409441E+03  0.17168647829E+03 0.  0.
        -24    2    5    5    0    0  0.18822494442E+02  0.56823894573E+02 -0.41690683288E+02  0.11499544203E+03  0.88896554058E+02 0.  0.
          5    1    3    3  501    0 -0.83965199189E+01  0.29002387298E+02 -0.11140519685E+03  0.11551990261E+03  0.47000000000E+01 0. -1.
        -13    1    4    4    0    0 -0.38037860827E+02 -0.16367086603E+02 -0.38932234323E+01  0.41592277755E+02  0.00000000000E+00 0.  1.
         14    1    4    4    0    0  0.41793347229E+02 -0.10705479082E+02  0.10999696048E+02  0.44522853325E+02  0.00000000000E+00 0. -1.
         -5    1    5    5    0  502 -0.14181460925E+02 -0.58753716184E+02  0.43406895326E+01  0.60778652380E+02  0.47000000000E+01 0.  1.
         11    1    6    6    0    0  0.22795048233E+00 -0.18062152790E+02 -0.32641807112E+02  0.37306579800E+02  0.00000000000E+00 0. -1.
        -12    1    6    6    0    0  0.18594543960E+02  0.74886047363E+02 -0.90488761762E+01  0.77688862231E+02  0.00000000000E+00 0.  1.
</event>
<event>
12    1  0.1630640E-001  0.1749612E+03  0.7818608E-02  0.1172894E+00
         21   -1    0    0  503  502  0.00000000000E+00  0.00000000000E+00  0.29606202440E+03  0.29606202440E+03  0.00000000000E+00 0. -1.
         21   -1    0    0  501  503 -0.00000000000E+00 -0.00000000000E+00 -0.11176636792E+03  0.11176636792E+03  0.00000000000E+00 0. -1.
          6    2    1    2  501    0  0.32913001742E+02 -0.16701027091E+02  0.35503381697E+02  0.17852702306E+03  0.17102402714E+03 0.  0.
         24    2    3    3    0    0  0.67730585746E+01  0.36785286570E+02 -0.24791461306E+02  0.93664543301E+02  0.82215561104E+02 0.  0.
         -6    2    1    2    0  502 -0.32913001742E+02  0.16701027091E+02  0.14879227478E+03  0.22930136926E+03  0.17052210097E+03 0.  0.
        -24    2    5    5    0    0  0.33422320287E+01 -0.47076897212E+02  0.11568472482E+03  0.14867714542E+03  0.80588667007E+02 0.  0.
          5    1    3    3  501    0  0.26139943167E+02 -0.53486313661E+02  0.60294843003E+02  0.84862479757E+02  0.47000000000E+01 0. -1.
        -13    1    4    4    0    0  0.40409411436E+02  0.99697281329E+01  0.41352356514E+01  0.41826022827E+02  0.00000000000E+00 0.  1.
         14    1    4    4    0    0 -0.33636352861E+02  0.26815558437E+02 -0.28926696957E+02  0.51838520474E+02  0.00000000000E+00 0. -1.
         -5    1    5    5    0  502 -0.36255233771E+02  0.63777924303E+02  0.33107549965E+02  0.80624223834E+02  0.47000000000E+01 0.  1.
         11    1    6    6    0    0  0.39973082118E+02 -0.99680195040E+01  0.53510227259E+02  0.67531867501E+02  0.00000000000E+00 0. -1.
        -12    1    6    6    0    0 -0.36630850089E+02 -0.37108877708E+02  0.62174497556E+02  0.81145277924E+02  0.00000000000E+00 0.  1.
</event>
<event>
12    1  0.1630640E-001  0.2150632E+03  0.7818608E-02  0.1137761E+00
         21   -1    0    0  503  502  0.00000000000E+00  0.00000000000E+00  0.35942941798E+03  0.35942941798E+03  0.00000000000E+00 0. -1.
         21   -1    0    0  501  503 -0.00000000000E+00 -0.00000000000E+00 -0.12841372058E+03  0.12841372058E+03  0.00000000000E+00 0.  1.
          6    2    1    2  501    0  0.27432753739E+02 -0.12580655490E+03  0.10666586442E+03  0.24006204767E+03  0.17225659600E+03 0.  0.
         24    2    3    3    0    0 -0.43082014443E+02 -0.73413183263E+02  0.92874574456E+02  0.15101325429E+03  0.83269207675E+02 0.  0.
         -6    2    1    2    0  502 -0.27432753739E+02  0.12580655490E+03  0.12434983298E+03  0.24778109089E+03  0.17132642181E+03 0.  0.
        -24    2    5    5    0    0 -0.58010586180E+02  0.40733291681E+02  0.11511268244E+03  0.15678725099E+03  0.79415887919E+02 0.  0.
          5    1    3    3  501    0  0.70514768182E+02 -0.52393371635E+02  0.13791289964E+02  0.89048793377E+02  0.47000000000E+01 0. -1.
        -11    1    4    4    0    0 -0.41366495558E+02 -0.42231140837E+01  0.94963411356E+01  0.42652105954E+02  0.00000000000E+00 0.  1.
         12    1    4    4    0    0 -0.17155188853E+01 -0.69190069179E+02  0.83378233320E+02  0.10836114834E+03  0.00000000000E+00 0. -1.
         -5    1    5    5    0  502  0.30577832441E+02  0.85073263217E+02  0.92371505453E+01  0.90993839909E+02  0.47000000000E+01 0.  1.
         13    1    6    6    0    0 -0.71978872077E+02  0.30757872607E+02  0.11560920031E+03  0.13961551471E+03  0.00000000000E+00 0. -1.
        -14    1    6    6    0    0  0.13968285897E+02  0.99754190739E+01 -0.49651787273E+00  0.17171736272E+02  0.00000000000E+00 0.  1.
</event>
<event>
12    1  0.1630640E-001  0.1867987E+03  0.7818608E-02  0.1161833E+00
         21   -1    0    0  501  502  0.00000000000E+00  0.00000000000E+00  0.86733747157E+03  0.86733747157E+03  0.00000000000E+00 0.  1.
         21   -1    0    0  502  503 -0.00000000000E+00 -0.00000000000E+00 -0.64091180653E+02  0.64091180653E+02  0.00000000000E+00 0.  1.
         -6    2    1    2    0  503 -0.71487803263E+02 -0.67336270087E+00  0.11629276007E+03  0.22004032073E+03  0.17257687351E+03 0.  0.
        -24    2    3    3    0    0 -0.99245958071E+02  0.14735659713E+02  0.36158950417E+02  0.13371841980E+03  0.80661305712E+02 0.  0.
          6    2    1    2  501    0  0.71487803263E+02  0.67336270087E+00  0.68695353085E+03  0.71138833149E+03  0.17046185850E+03 0.  0.
         24    2    5    5    0    0  0.32271017815E+02  0.45711901259E+02  0.58925386635E+03  0.59678579810E+03  0.76171998132E+02 0.  0.
          5    1    5    5  501    0  0.39216785448E+02 -0.45038538558E+02  0.97699664498E+02  0.11460253339E+03  0.47000000000E+01 0. -1.
        -13    1    6    6    0    0  0.35325317116E+02  0.25038959466E+02  0.55481910815E+03  0.55650612781E+03  0.00000000000E+00 0.  1.
         14    1    6    6    0    0 -0.30542993012E+01  0.20672941793E+02  0.34434758203E+02  0.40279670295E+02  0.00000000000E+00 0. -1.
         -5    1    3    3    0  503  0.27758154808E+02 -0.15409022414E+02  0.80133809651E+02  0.86321900925E+02  0.47000000000E+01 0.  1.
         11    1    4    4    0    0 -0.28500519099E+01  0.17423790698E+01  0.36297281496E+02  0.36450669743E+02  0.00000000000E+00 0. -1.
        -12    1    4    4    0    0 -0.96395906161E+02  0.12993280643E+02 -0.13833107946E+00  0.97267750062E+02  0.00000000000E+00 0.  1.
</event>
<event>
12    1  0.1630640E-001  0.2646276E+03  0.7818608E-02  0.1104428E+00
         21   -1    0    0  501  502  0.00000000000E+00  0.00000000000E+00  0.22123812171E+03  0.22123812171E+03  0.00000000000E+00 0. -1.
         21   -1    0    0  502  503 -0.00000000000E+00 -0.00000000000E+00 -0.13815605974E+04  0.13815605974E+04  0.00000000000E+00 0.  1.
         -6    2    1    2    0  503  0.18511422008E+03 -0.78175414344E+02 -0.12839415100E+04  0.13109285175E+04  0.17218916074E+03 0.  0.
        -24    2    3    3    0    0  0.87152444698E+02 -0.10588904297E+03 -0.88413928942E+03  0.89834099926E+03  0.80661203911E+02 0.  0.
          6    2    1    2  501    0 -0.18511422008E+03  0.78175414344E+02  0.12361903429E+03  0.29187020160E+03  0.17183678029E+03 0.  0.
         24    2    5    5    0    0 -0.16092655380E+03  0.81120488293E+01  0.12322964028E+03  0.21759934584E+03  0.78744968174E+02 0.  0.
          5    1    5    5  501    0 -0.24187666278E+02  0.70063365514E+02  0.38939400304E+00  0.74270855757E+02  0.47000000000E+01 0. -1.
        -11    1    6    6    0    0 -0.39263796306E+02 -0.25446604865E+02  0.61020767700E+02  0.76894144707E+02  0.00000000000E+00 0.  1.
         12    1    6    6    0    0 -0.12166275749E+03  0.33558653694E+02  0.62208872584E+02  0.14070520114E+03  0.00000000000E+00 0. -1.
         -5    1    3    3    0  503  0.97961775380E+02  0.27713628630E+02 -0.39980222059E+03  0.41258751828E+03  0.47000000000E+01 0.  1.
         11    1    4    4    0    0  0.49828353570E+02 -0.78024116132E+02 -0.34539099678E+03  0.35758295286E+03  0.00000000000E+00 0. -1.
        -12    1    4    4    0    0  0.37324091128E+02 -0.27864926841E+02 -0.53874829263E+03  0.54075804639E+03  0.00000000000E+00 0.  1.
</event>
<event>
12    1  0.1630640E-001  0.1949299E+03  0.7818608E-02  0.1156952E+00
         21   -1    0    0  501  502  0.00000000000E+00  0.00000000000E+00  0.31624821382E+03  0.31624821382E+03  0.00000000000E+00 0. -1.
         21   -1    0    0  502  503 -0.00000000000E+00 -0.00000000000E+00 -0.11797844537E+03  0.11797844537E+03  0.00000000000E+00 0. -1.
         -6    2    1    2    0  503  0.58856619442E+02  0.64201452462E+01  0.55420768927E+02  0.20265521635E+03  0.18572117587E+03 0.  0.
        -24    2    3    3    0    0 -0.26946628055E+02 -0.19926275214E+02  0.69643476841E+02  0.11165682860E+03  0.80584466860E+02 0.  0.
          6    2    1    2  501    0 -0.58856619442E+02 -0.64201452462E+01  0.14284899952E+03  0.23157144285E+03  0.17237800487E+03 0.  0.
         24    2    5    5    0    0 -0.39970637595E+02  0.57089429045E+02  0.47417277628E+02  0.11529827363E+03  0.78666631465E+02 0.  0.
          5    1    5    5  501    0 -0.18885981847E+02 -0.63509574291E+02  0.95431721891E+02  0.11627316922E+03  0.47000000000E+01 0. -1.
        -13    1    6    6    0    0  0.17268432052E+02  0.72066449518E+01 -0.89447837049E+01  0.20739904352E+02  0.00000000000E+00 0.  1.
         14    1    6    6    0    0 -0.57239069647E+02  0.49882784093E+02  0.56362061333E+02  0.94558369279E+02  0.00000000000E+00 0. -1.
         -5    1    3    3    0  503  0.85803247496E+02  0.26346420461E+02 -0.14222707914E+02  0.90998387746E+02  0.47000000000E+01 0.  1.
         13    1    4    4    0    0  0.27612546873E+02 -0.16775364377E+02  0.21347387574E+02  0.38724366374E+02  0.00000000000E+00 0. -1.
        -14    1    4    4    0    0 -0.54559174928E+02 -0.31509108370E+01  0.48296089267E+02  0.72932462226E+02  0.00000000000E+00 0.  1.
</event>
<event>
12    1  0.1630640E-001  0.1721036E+03  0.7818608E-02  0.1175824E+00
         21   -1    0    0  503  502  0.00000000000E+00  0.00000000000E+00  0.88683532316E+03  0.88683532316E+03  0.00000000000E+00 0. -1.
         21   -1    0    0  501  503 -0.00000000000E+00 -0.00000000000E+00 -0.50227309128E+02  0.50227309128E+02  0.00000000000E+00 0. -1.
          6    2    1    2  501    0  0.12523220762E+02 -0.37418094014E+01  0.14666195064E+03  0.22611809283E+03  0.17160661976E+03 0.  0.
         24    2    3    3    0    0  0.25908104342E+02  0.88378625629E+01  0.66669482111E+01  0.84844974516E+02  0.80030518034E+02 0.  0.
         -6    2    1    2    0  502 -0.12523220762E+02  0.37418094014E+01  0.68994606340E+03  0.71094453945E+03  0.17101384619E+03 0.  0.
        -24    2    5    5    0    0 -0.33043427283E+02 -0.49004497032E+02  0.56404612499E+03  0.57282815300E+03  0.80565209182E+02 0.  0.
          5    1    3    3  501    0 -0.13384883580E+02 -0.12579671964E+02  0.13999500242E+03  0.14127311832E+03  0.47000000000E+01 0. -1.
        -11    1    4    4    0    0  0.29854387107E+02 -0.26942657733E+02  0.21861051594E+02  0.45772227519E+02  0.00000000000E+00 0.  1.
         12    1    4    4    0    0 -0.39462827651E+01  0.35780520295E+02 -0.15194103383E+02  0.39072746997E+02  0.00000000000E+00 0. -1.
         -5    1    5    5    0  502  0.20520206520E+02  0.52746306434E+02  0.12589993840E+03  0.13811638646E+03  0.47000000000E+01 0.  1.
         11    1    6    6    0    0 -0.42530417497E+02 -0.16315468429E+02  0.13590170549E+03  0.14333284507E+03  0.00000000000E+00 0. -1.
        -12    1    6    6    0    0  0.94869902148E+01 -0.32689028603E+02  0.42814441951E+03  0.42949530793E+03  0.00000000000E+00 0.  1.
</event>
<event>
12    1  0.1630640E-001  0.1972115E+03  0.7818608E-02  0.1153076E+00
         21   -1    0    0  501  502  0.00000000000E+00  0.00000000000E+00  0.15680518370E+03  0.15680518370E+03  0.00000000000E+00 0. -1.
         21   -1    0    0  502  503 -0.00000000000E+00 -0.00000000000E+00 -0.27223220649E+03  0.27223220649E+03  0.00000000000E+00 0. -1.
         -6    2    1    2    0  503  0.72670619070E+02 -0.42750123450E+02 -0.12803058657E+03  0.23142351809E+03  0.17336787966E+03 0.  0.
        -24    2    3    3    0    0  0.88544798752E+02  0.78006211472E+01 -0.34583161508E+02  0.12389734169E+03  0.79079233320E+02 0.  0.
          6    2    1    2  501    0 -0.72670619070E+02  0.42750123450E+02  0.12603563774E+02  0.19761387210E+03  0.17828011862E+03 0.  0.
         24    2    5    5    0    0 -0.10548220872E+02  0.55540385129E+02 -0.49711147023E+02  0.10857457553E+03  0.78238359958E+02 0.  0.
          5    1    5    5  501    0 -0.62122398198E+02 -0.12790261678E+02  0.62314710797E+02  0.89039296569E+02  0.47000000000E+01 0. -1.
        -13    1    6    6    0    0 -0.43965758602E+02  0.37415005927E+02 -0.23156427754E+02  0.62202015597E+02  0.00000000000E+00 0.  1.
         14    1    6    6    0    0  0.33417537730E+02  0.18125379201E+02 -0.26554719269E+02  0.46372559931E+02  0.00000000000E+00 0. -1.
         -5    1    3    3    0  503 -0.15874179681E+02 -0.50550744598E+02 -0.93447425060E+02  0.10752617640E+03  0.47000000000E+01 0.  1.
         13    1    4    4    0    0 -0.23403578388E+01  0.11972432251E+02  0.15749872807E+02  0.19921719359E+02  0.00000000000E+00 0. -1.
        -14    1    4    4    0    0  0.90885156590E+02 -0.41718111034E+01 -0.50333034315E+02  0.10397562233E+03  0.00000000000E+00 0.  1.
</event>
<event>
12    1  0.1630640E-001  0.1760293E+03  0.7818608E-02  0.1171925E+00
         21   -1    0    0  501  502  0.00000000000E+00  0.00000000000E+00  0.78747539390E+02  0.78747539390E+02  0.00000000000E+00 0.  1.
         21   -1    0    0  502  503 -0.00000000000E+00 -0.00000000000E+00 -0.88817966182E+03  0.88817966182E+03  0.00000000000E+00 0.  1.
         -6    2    1    2    0  503  0.31342181908E+02 -0.14205508621E+02 -0.76579862733E+03  0.78557066605E+03  0.17172537639E+03 0.  0.
        -24    2    3    3    0    0  0.21633691990E+02  0.14516451878E+02 -0.74194050187E+03  0.74670543812E+03  0.80090942083E+02 0.  0.
          6    2    1    2  501    0 -0.31342181908E+02  0.14205508621E+02 -0.43633495103E+02  0.18135653516E+03  0.17263308521E+03 0.  0.
         24    2    5    5    0    0  0.32463259866E+02  0.24685807508E+01  0.30390591137E+02  0.82814436445E+02  0.69818949592E+02 0.  0.
          5    1    5    5  501    0 -0.63805441774E+02  0.11736927870E+02 -0.74024086239E+02  0.98542098716E+02  0.47000000000E+01 0. -1.
        -11    1    6    6    0    0  0.13583850634E+02  0.30216283330E+02  0.35848107604E+02  0.48812207439E+02  0.00000000000E+00 0.  1.
         12    1    6    6    0    0  0.18879409233E+02 -0.27747702579E+02 -0.54575164678E+01  0.34002229006E+02  0.00000000000E+00 0. -1.
         -5    1    3    3    0  503  0.97084899182E+01 -0.28721960499E+02 -0.23858125462E+02  0.38865227929E+02  0.47000000000E+01 0.  1.
         11    1    4    4    0    0 -0.28150171477E+02 -0.18179119772E+01 -0.37270523456E+03  0.37377122525E+03  0.00000000000E+00 0. -1.
        -12    1    4    4    0    0  0.49783863467E+02  0.16334363856E+02 -0.36923526731E+03  0.37293421287E+03  0.00000000000E+00 0.  1.
</event>
<event>
12    1  0.1630640E-001  0.2410518E+03  0.7818608E-02  0.1119373E+00
         21   -1    0    0  503  502  0.00000000000E+00  0.00000000000E+00  0.21449504413E+03  0.21449504413E+03  0.00000000000E+00 0.  1.
         21   -1    0    0  501  503 -0.00000000000E+00 -0.00000000000E+00 -0.31314602710E+03  0.31314602710E+03  0.00000000000E+00 0. -1.
          6    2    1    2  501    0  0.16730310441E+03  0.19925683598E+02 -0.14821688180E+03  0.28154608049E+03  0.17003702472E+03 0.  0.
         24    2    3    3    0    0  0.15081394155E+03 -0.26919809022E+02 -0.66961616828E+02  0.18619986527E+03  0.81957370725E+02 0.  0.
         -6    2    1    2    0  502 -0.16730310441E+03 -0.19925683598E+02  0.49565898822E+02  0.24609499075E+03  0.17239084817E+03 0.  0.
        -24    2    5    5    0    0 -0.13037766429E+03 -0.78531672605E+02  0.46847215090E+02  0.17661383275E+03  0.76369008171E+02 0.  0.
          5    1    3    3  501    0  0.16489162858E+02  0.46845492619E+02 -0.81255264967E+02  0.95346215213E+02  0.47000000000E+01 0. -1.
        -11    1    4    4    0    0  0.13798202964E+03  0.16814771176E+01 -0.37070036896E+02  0.14288476302E+03  0.00000000000E+00 0.  1.
         12    1    4    4    0    0  0.12831911909E+02 -0.28601286139E+02 -0.29891579932E+02  0.43315102250E+02  0.00000000000E+00 0. -1.
         -5    1    5    5    0  502 -0.36925440118E+02  0.58605989007E+02  0.27186837328E+01  0.69481157998E+02  0.47000000000E+01 0.  1.
         11    1    6    6    0    0 -0.50415943230E+02 -0.16014743572E+02 -0.18335735822E+02  0.55986056760E+02  0.00000000000E+00 0. -1.
        -12    1    6    6    0    0 -0.79961721060E+02 -0.62516929033E+02  0.65182950912E+02  0.12062777599E+03  0.00000000000E+00 0.  1.
</event>
<event>
12    1  0.1630640E-001  0.1994070E+03  0.7818608E-02  0.1150252E+00
         21   -1    0    0  503  502  0.00000000000E+00  0.00000000000E+00  0.70487181340E+02  0.70487181340E+02  0.00000000000E+00 0.  1.
         21   -1    0    0  501  503 -0.00000000000E+00 -0.00000000000E+00 -0.68432517215E+03  0.68432517215E+03  0.00000000000E+00 0.  1.
          6    2    1    2  501    0  0.10129609327E+03  0.33011056429E+01 -0.46523656375E+03  0.50617014864E+03  0.17173049619E+03 0.  0.
         24    2    3    3    0    0  0.79168159471E+02  0.50014892249E+02 -0.40736120402E+03  0.42843038676E+03  0.94023182482E+02 0.  0.
         -6    2    1    2    0  502 -0.10129609327E+03 -0.33011056429E+01 -0.14860142706E+03  0.24864220485E+03  0.17166469088E+03 0.  0.
        -24    2    5    5    0    0 -0.13889518359E+03  0.31553717745E+00 -0.13209810751E+03  0.20715460122E+03  0.78556649687E+02 0.  0.
          5    1    3    3  501    0  0.22127933796E+02 -0.46713786606E+02 -0.57875359731E+02  0.77739761880E+02  0.47000000000E+01 0. -1.
        -11    1    4    4    0    0  0.95304395790E+02  0.42204955849E+02 -0.26206375873E+03  0.28203120359E+03  0.00000000000E+00 0.  1.
         12    1    4    4    0    0 -0.16136236319E+02  0.78099364000E+01 -0.14529744528E+03  0.14639918318E+03  0.00000000000E+00 0. -1.
         -5    1    5    5    0  502  0.37599090325E+02 -0.36166428203E+01 -0.16503319556E+02  0.41487603630E+02  0.47000000000E+01 0.  1.
         11    1    6    6    0    0 -0.67210528521E+02 -0.34372711459E+02 -0.40111328551E+02  0.85484835586E+02  0.00000000000E+00 0. -1.
        -12    1    6    6    0    0 -0.71684655071E+02  0.34688248636E+02 -0.91986778956E+02  0.12166976563E+03  0.00000000000E+00 0.  1.
</event>
<event>
12    1  0.1630640E-001  0.1740401E+03  0.7818608E-02  0.1173839E+00
         21   -1    0    0  503  502  0.00000000000E+00  0.00000000000E+00  0.12458034043E+03  0.12458034043E+03  0.00000000000E+00 0. -1.
         21   -1    0    0  501  503 -0.00000000000E+00 -0.00000000000E+00 -0.35974336914E+03  0.35974336914E+03  0.00000000000E+00 0. -1.
          6    2    1    2  501    0 -0.25748116826E+01 -0.19716992546E+02 -0.25603351066E+03  0.30958536601E+03  0.17290040723E+03 0.  0.
         24    2    3    3    0    0 -0.43107837033E+02 -0.65695069490E+02 -0.17095103586E+03  0.20461857497E+03  0.80438652359E+02 0.  0.
         -6    2    1    2    0  502  0.25748116826E+01  0.19716992546E+02  0.20870481946E+02  0.17473834356E+03  0.17234419702E+03 0.  0.
        -24    2    5    5    0    0 -0.29227321875E+02 -0.47236154429E+02  0.28111088668E+02  0.10011518379E+03  0.78404885629E+02 0.  0.
          5    1    3    3  501    0  0.40533025351E+02  0.45978076944E+02 -0.85082474798E+02  0.10496679104E+03  0.47000000000E+01 0. -1.
        -11    1    4    4    0    0 -0.45406376530E+02 -0.53202562565E+02 -0.57742796531E+02  0.90699957245E+02  0.00000000000E+00 0.  1.
         12    1    4    4    0    0  0.22985394965E+01 -0.12492506925E+02 -0.11320823933E+03  0.11391861772E+03  0.00000000000E+00 0. -1.
         -5    1    5    5    0  502  0.31802133558E+02  0.66953146975E+02 -0.72406067220E+01  0.74623159772E+02  0.47000000000E+01 0.  1.
         11    1    6    6    0    0 -0.95086390073E+01 -0.65179624417E+02  0.72588319593E+01  0.66268305368E+02  0.00000000000E+00 0. -1.
        -12    1    6    6    0    0 -0.19718682868E+02  0.17943469988E+02  0.20852256708E+02  0.33846878425E+02  0.00000000000E+00 0.  1.
</event>
<event>
12    1  0.1630640E-001  0.2058460E+03  0.7818608E-02  0.1144948E+00
         21   -1    0    0  503  502  0.00000000000E+00  0.00000000000E+00  0.28457515764E+03  0.28457515764E+03  0.00000000000E+00 0.  1.
         21   -1    0    0  501  503 -0.00000000000E+00 -0.00000000000E+00 -0.22105553230E+03  0.22105553230E+03  0.00000000000E+00 0. -1.
          6    2    1    2  501    0 -0.11053677104E+03  0.73166607207E+01 -0.11284605579E+03  0.23474835831E+03  0.17349538365E+03 0.  0.
         24    2    3    3    0    0 -0.70038140207E+02  0.10712164629E+02  0.86451235299E+01  0.10655372036E+03  0.79112992658E+02 0.  0.
         -6    2    1    2    0  502  0.11053677104E+03 -0.73166607207E+01  0.17636568113E+03  0.27088233163E+03  0.17320644570E+03 0.  0.
        -24    2    5    5    0    0  0.90426857396E+02 -0.39140847818E+02  0.19010260636E+03  0.23053408971E+03  0.85427999309E+02 0.  0.
          5    1    3    3  501    0 -0.40498630829E+02 -0.33955039087E+01 -0.12149117932E+03  0.12819463795E+03  0.47000000000E+01 0. -1.
        -11    1    4    4    0    0 -0.85461239932E+02  0.90334860346E+01  0.18854896887E+02  0.87981444278E+02  0.00000000000E+00 0.  1.
         12    1    4    4    0    0  0.15423099724E+02  0.16786785947E+01 -0.10209773357E+02  0.18572276084E+02  0.00000000000E+00 0. -1.
         -5    1    5    5    0  502  0.20109913641E+02  0.31824187097E+02 -0.13736925231E+02  0.40348241917E+02  0.47000000000E+01 0.  1.
         13    1    6    6    0    0  0.30039316279E+02 -0.24949987005E+02  0.10377636467E+02  0.40404921887E+02  0.00000000000E+00 0. -1.
        -14    1    6    6    0    0  0.60387541117E+02 -0.14190860813E+02  0.17972496990E+03  0.19012916782E+03  0.00000000000E+00 0.  1.
</event>
<event>
12    1  0.1630640E-001  0.1771606E+03  0.7818608E-02  0.1170864E+00
         21   -1    0    0  503  502  0.00000000000E+00  0.00000000000E+00  0.47580657226E+03  0.47580657226E+03  0.00000000000E+00 0.  1.
         21   -1    0    0  501  503 -0.00000000000E+00 -0.00000000000E+00 -0.70368806887E+02  0.70368806887E+02  0.00000000000E+00 0.  1.
          6    2    1    2  501    0 -0.32818351298E+02 -0.18220731066E+02  0.13177038915E+03  0.22079246745E+03  0.17313820782E+03 0.  0.
         24    2    3    3    0    0 -0.87000036126E+01  0.54735885371E+02  0.52287196531E+02  0.11013972015E+03  0.79530496188E+02 0.  0.
         -6    2    1    2    0  502  0.32818351298E+02  0.18220731066E+02  0.27366737622E+03  0.32538291169E+03  0.17196269127E+03 0.  0.
        -24    2    5    5    0    0  0.29452232395E+02  0.16523727895E+02  0.50354176934E+02  0.10198844991E+03  0.82009957956E+02 0.  0.
          5    1    3    3  501    0 -0.24118347686E+02 -0.72956616437E+02  0.79483192616E+02  0.11065274730E+03  0.47000000000E+01 0. -1.
        -11    1    4    4    0    0  0.36685157653E+00 -0.52985605650E+01 -0.17119564708E+02  0.17924531233E+02  0.00000000000E+00 0.  1.
         12    1    4    4    0    0 -0.90668551891E+01  0.60034445936E+02  0.69406761238E+02  0.92215188919E+02  0.00000000000E+00 0. -1.
         -5    1    5    5    0  502  0.33661189031E+01  0.16970031714E+01  0.22331319929E+03  0.22339446178E+03  0.47000000000E+01 0.  1.
         13    1    6    6    0    0 -0.11479475833E+02 -0.18352417767E+02  0.42429770598E+02  0.47632709731E+02  0.00000000000E+00 0. -1.
        -14    1    6    6    0    0  0.40931708229E+02  0.34876145662E+02  0.79244063359E+01  0.54355740180E+02  0.00000000000E+00 0.  1.
</event>
<event>
12    1  0.1630640E-001  0.1877977E+03  0.7818608E-02  0.1160511E+00
         21   -1    0    0  501  502  0.00000000000E+00  0.00000000000E+00  0.13008024307E+03  0.13008024307E+03  0.00000000000E+00 0.  1.
         21   -1    0    0  502  503 -0.00000000000E+00 -0.00000000000E+00 -0.33153865853E+03  0.33153865853E+03  0.00000000000E+00 0.  1.
         -6    2    1    2    0  503 -0.63223921981E+02 -0.39544522829E+02 -0.19955083682E+03  0.27402285950E+03  0.17235706384E+03 0.  0.
        -24    2    3    3    0    0 -0.18969138080E+02  0.24391116971E+02 -0.38198599971E+02  0.94850076208E+02  0.81133526549E+02 0.  0.
          6    2    1    2  501    0  0.63223921981E+02  0.39544522829E+02 -0.19075786414E+01  0.18759604210E+03  0.17212670496E+03 0.  0.
         24    2    5    5    0    0  0.15410349118E+01  0.23825929878E+02 -0.51764147854E+02  0.10660455974E+03  0.90083047412E+02 0.  0.
          5    1    5    5  501    0  0.61682887069E+02  0.15718592951E+02  0.49856569212E+02  0.80991482362E+02  0.47000000000E+01 0. -1.
        -11    1    6    6    0    0  0.26226400133E+02 -0.49685384100E+01  0.14408409353E+02  0.30333359490E+02  0.00000000000E+00 0.  1.
         12    1    6    6    0    0 -0.24685365221E+02  0.28794468288E+02 -0.66172557207E+02  0.76271200249E+02  0.00000000000E+00 0. -1.
         -5    1    3    3    0  503 -0.44254783901E+02 -0.63935639800E+02 -0.16135223685E+03  0.17917278329E+03  0.47000000000E+01 0.  1.
         13    1    4    4    0    0  0.23436901779E+02  0.31543067165E+02 -0.33409110395E+02  0.51579279837E+02  0.00000000000E+00 0. -1.
        -14    1    4    4    0    0 -0.42406039859E+02 -0.71519501941E+01 -0.47894895764E+01  0.43270796370E+02  0.00000000000E+00 0.  1.
</event>
<event>
12    1  0.1630640E-001  0.1919993E+03  0.7818608E-02  0.1160436E+00
         21   -1    0    0  501  502  0.00000000000E+00  0.00000000000E+00  0.55330328929E+03  0.55330328929E+03  0.00000000000E+00 0. -1.
         21   -1    0    0  502  503 -0.00000000000E+00 -0.00000000000E+00 -0.67449900730E+02  0.67449900730E+02  0.00000000000E+00 0. -1.
         -6    2    1    2    0  503  0.51785196640E+02  0.59498382435E+02  0.13839571060E+03  0.22377639788E+03  0.15716468887E+03 0.  0.
        -24    2    3    3    0    0  0.85588538791E+02  0.44170978165E+02  0.63217154802E+02  0.13980318480E+03  0.79196265908E+02 0.  0.
          6    2    1    2  501    0 -0.51785196640E+02 -0.59498382435E+02  0.34745767796E+03  0.39697679215E+03  0.17504848308E+03 0.  0.
         24    2    5    5    0    0  0.33914935892E+02 -0.89747237693E+01  0.21112532170E+03  0.22814032049E+03  0.79014782310E+02 0.  0.
          5    1    5    5  501    0 -0.85700132532E+02 -0.50523658666E+02  0.13633235625E+03  0.16883647166E+03  0.47000000000E+01 0. -1.
        -13    1    6    6    0    0  0.38524425572E+02  0.23315226239E+02  0.69539939615E+02  0.82846450388E+02  0.00000000000E+00 0.  1.
         14    1    6    6    0    0 -0.46094896803E+01 -0.32289950009E+02  0.14158538209E+03  0.14529387010E+03  0.00000000000E+00 0. -1.
         -5    1    3    3    0  503 -0.33803342151E+02  0.15327404271E+02  0.75178555801E+02  0.83973213078E+02  0.47000000000E+01 0.  1.
         13    1    4    4    0    0  0.56537213230E+02  0.13431768358E+02  0.75951942669E+02  0.95632455141E+02  0.00000000000E+00 0. -1.
        -14    1    4    4    0    0  0.29051325561E+02  0.30739209806E+02 -0.12734787867E+02  0.44170729657E+02  0.00000000000E+00 0.  1.
</event>
<event>
12    1  0.1630640E-001  0.1906427E+03  0.7818608E-02  0.1157916E+00
         21   -1    0    0  501  502  0.00000000000E+00  0.00000000000E+00  0.98780356140E+03  0.98780356140E+03  0.00000000000E+00 0. -1.
         21   -1    0    0  502  503 -0.00000000000E+00 -0.00000000000E+00 -0.40175494065E+02  0.40175494065E+02  0.00000000000E+00 0.  1.
         -6    2    1    2    0  503 -0.65963215719E+02  0.49321922985E+02  0.62340501071E+03  0.65186042227E+03  0.17176846283E+03 0.  0.
        -24    2    3    3    0    0 -0.33128980640E+02 -0.36135668883E+02  0.23109156352E+03  0.24897952443E+03  0.78639537942E+02 0.  0.
          6    2    1    2  501    0  0.65963215719E+02 -0.49321922985E+02  0.32422305662E+03  0.37611863320E+03  0.17193265506E+03 0.  0.
         24    2    5    5    0    0  0.74027440907E+02 -0.78031779777E+02  0.31837276131E+03  0.34536796556E+03  0.79679331257E+02 0.  0.
          5    1    5    5  501    0 -0.80642251881E+01  0.28709856792E+02  0.58502953174E+01  0.30750667639E+02  0.47000000000E+01 0. -1.
        -13    1    6    6    0    0  0.47474228838E+01 -0.38910998061E+02  0.40642119491E+02  0.56465792041E+02  0.00000000000E+00 0.  1.
         14    1    6    6    0    0  0.69280018023E+02 -0.39120781715E+02  0.27773064181E+03  0.28890217352E+03  0.00000000000E+00 0. -1.
         -5    1    3    3    0  503 -0.32834235079E+02  0.85457591868E+02  0.39231344719E+03  0.40288089784E+03  0.47000000000E+01 0.  1.
         11    1    4    4    0    0 -0.45258943576E+02 -0.44126057287E+02  0.22412889449E+03  0.23287172918E+03  0.00000000000E+00 0. -1.
        -12    1    4    4    0    0  0.12129962936E+02  0.79903884043E+01  0.69626690350E+01  0.16107795249E+02  0.00000000000E+00 0.  1.
</event>
<event>
12    1  0.1630640E-001  0.1906963E+03  0.7818608E-02  0.1158632E+00
         21   -1    0    0  503  502  0.00000000000E+00  0.00000000000E+00  0.45808820634E+02  0.45808820634E+02  0.00000000000E+00 0. -1.
         21   -1    0    0  501  503 -0.00000000000E+00 -0.00000000000E+00 -0.13555827801E+04  0.13555827801E+04  0.00000000000E+00 0. -1.
          6    2    1    2  501    0  0.37033509921E+02  0.58233089683E+02 -0.11152566755E+04  0.11314426801E+04  0.17777095542E+03 0.  0.
         24    2    3    3    0    0 -0.27042385391E+02  0.38407694515E+02 -0.31432306637E+03  0.32769178409E+03  0.79852825273E+02 0.  0.
         -6    2    1    2    0  502 -0.37033509921E+02 -0.58233089683E+02 -0.19451728394E+03  0.26994892057E+03  0.17399101234E+03 0.  0.
        -24    2    5    5    0    0  0.11302527881E+02 -0.95902224154E+02 -0.14043873246E+03  0.18808369003E+03  0.79545289899E+02 0.  0.
          5    1    3    3  501    0  0.64075895312E+02  0.19825395168E+02 -0.80093360911E+03  0.80375089602E+03  0.47000000000E+01 0. -1.
        -11    1    4    4    0    0 -0.14514262366E+01  0.58052596541E+02 -0.16491940474E+03  0.17484456143E+03  0.00000000000E+00 0.  1.
         12    1    4    4    0    0 -0.25590959154E+02 -0.19644902026E+02 -0.14940366163E+03  0.15284722266E+03  0.00000000000E+00 0. -1.
         -5    1    5    5    0  502 -0.48336037802E+02  0.37669134471E+02 -0.54078551481E+02  0.81865230547E+02  0.47000000000E+01 0.  1.
         13    1    6    6    0    0 -0.12077954764E+02 -0.79574001406E+02 -0.13761926534E+03  0.15942697665E+03  0.00000000000E+00 0. -1.
        -14    1    6    6    0    0  0.23380482645E+02 -0.16328222748E+02 -0.28194671218E+01  0.28656713379E+02  0.00000000000E+00 0.  1.
</event>
<event>
12    1  0.1630640E-001  0.2979623E+03  0.7818608E-02  0.1086386E+00
         21   -1    0    0  501  502  0.00000000000E+00  0.00000000000E+00  0.26720087058E+03  0.26720087058E+03  0.00000000000E+00 0.  1.
         21   -1    0    0  502  503 -0.00000000000E+00 -0.00000000000E+00 -0.95738969849E+03  0.95738969849E+03  0.00000000000E+00 0. -1.
         -6    2    1    2    0  503 -0.19068829766E+03  0.14929371576E+03 -0.84009179417E+03  0.89104530665E+03  0.17192113145E+03 0.  0.
        -24    2    3    3    0    0 -0.15910246414E+03  0.41207381449E+02 -0.46733531092E+03  0.50162290572E+03  0.78813731821E+02 0.  0.
          6    2    1    2  501    0  0.19068829766E+03 -0.14929371576E+03  0.14990296626E+03  0.33354526242E+03  0.17358255202E+03 0.  0.
         24    2    5    5    0    0  0.10377641420E+03 -0.10639711100E+03  0.16428229622E+03  0.23545015900E+03  0.79738417001E+02 0.  0.
          5    1    5    5  501    0  0.86911883460E+02 -0.42896604752E+02 -0.14379329966E+02  0.98095103425E+02  0.47000000000E+01 0. -1.
        -13    1    6    6    0    0  0.78953821752E+02 -0.26155587956E+02  0.66085240249E+02  0.10623125590E+03  0.00000000000E+00 0.  1.
         14    1    6    6    0    0  0.24822592448E+02 -0.80241523048E+02  0.98197055976E+02  0.12921890310E+03  0.00000000000E+00 0. -1.
         -5    1    3    3    0  503 -0.31585833518E+02  0.10808633431E+03 -0.37275648325E+03  0.38942240093E+03  0.47000000000E+01 0.  1.
         13    1    4    4    0    0 -0.11980551887E+03  0.34641613649E+02 -0.42735351688E+03  0.44517910119E+03  0.00000000000E+00 0. -1.
        -14    1    4    4    0    0 -0.39296945273E+02  0.65657677998E+01 -0.39981794044E+02  0.56443804528E+02  0.00000000000E+00 0.  1.
</event>
<event>
12    1  0.1630640E-001  0.1969406E+03  0.7818608E-02  0.1152766E+00
         21   -1    0    0  501  502  0.00000000000E+00  0.00000000000E+00  0.23939373865E+03  0.23939373865E+03  0.00000000000E+00 0. -1.
         21   -1    0    0  502  503 -0.00000000000E+00 -0.00000000000E+00 -0.29761587926E+03  0.29761587926E+03  0.00000000000E+00 0. -1.
         -6    2    1    2    0  503  0.22786724211E+02  0.91717351099E+02 -0.21148961565E+03  0.28898692712E+03  0.17278390905E+03 0.  0.
        -24    2    3    3    0    0  0.67498126617E+02  0.15510023858E+02 -0.13813513437E+03  0.17405374586E+03  0.80105138192E+02 0.  0.
          6    2    1    2  501    0 -0.22786724211E+02 -0.91717351099E+02  0.15326747505E+03  0.24802269079E+03  0.17056678734E+03 0.  0.
         24    2    5    5    0    0 -0.67931014557E+02 -0.37916301460E+02  0.40394900108E+02  0.11500063221E+03  0.74438758717E+02 0.  0.
          5    1    5    5  501    0  0.45144290346E+02 -0.53801049639E+02  0.11287257494E+03  0.13302205857E+03  0.47000000000E+01 0. -1.
        -11    1    6    6    0    0 -0.16588127533E+02 -0.17761038667E+02 -0.21249180265E+02  0.32282319178E+02  0.00000000000E+00 0.  1.
         12    1    6    6    0    0 -0.51342887024E+02 -0.20155262793E+02  0.61644080372E+02  0.82718313034E+02  0.00000000000E+00 0. -1.
         -5    1    3    3    0  503 -0.44711402406E+02  0.76207327241E+02 -0.73354481282E+02  0.11493318126E+03  0.47000000000E+01 0.  1.
         13    1    4    4    0    0  0.64968197216E+02  0.34516787487E+02 -0.13617816398E+03  0.15477973903E+03  0.00000000000E+00 0. -1.
        -14    1    4    4    0    0  0.25299294007E+01 -0.19006763629E+02 -0.19569703885E+01  0.19274006836E+02  0.00000000000E+00 0.  1.
</event>
<event>
12    1  0.1630640E-001  0.1890926E+03  0.7818608E-02  0.1160037E+00
         21   -1    0    0  503  502  0.00000000000E+00  0.00000000000E+00  0.48367343762E+03  0.48367343762E+03  0.00000000000E+00 0. -1.
         21   -1    0    0  501  503 -0.00000000000E+00 -0.00000000000E+00 -0.96065901210E+02  0.96065901210E+02  0.00000000000E+00 0. -1.
          6    2    1    2  501    0  0.41272560365E+02 -0.63216961329E+02  0.51963922661E+02  0.19610267697E+03  0.17336724667E+03 0.  0.
         24    2    3    3    0    0  0.77872215380E+02  0.41711092997E+01  0.28266523169E+02  0.11570153548E+03  0.80662066050E+02 0.  0.
         -6    2    1    2    0  502 -0.41272560365E+02  0.63216961329E+02  0.33564361374E+03  0.38363666186E+03  0.16976644083E+03 0.  0.
        -24    2    5    5    0    0  0.25100220526E+02  0.33226353610E+02  0.93899509621E+02  0.13111520836E+03  0.81486614317E+02 0.  0.
          5    1    3    3  501    0 -0.36599655015E+02 -0.67388070629E+02  0.23697399492E+02  0.80401141490E+02  0.47000000000E+01 0. -1.
        -13    1    4    4    0    0  0.59177892364E+01  0.33614250673E+02  0.46379827160E+01  0.34444868434E+02  0.00000000000E+00 0.  1.
         14    1    4    4    0    0  0.71954426144E+02 -0.29443141373E+02  0.23628540453E+02  0.81256667047E+02  0.00000000000E+00 0. -1.
         -5    1    5    5    0  502 -0.66372780891E+02  0.29990607719E+02  0.24174410412E+03  0.25252145349E+03  0.47000000000E+01 0.  1.
         11    1    6    6    0    0  0.21657177681E+01  0.27922383833E+02  0.10234384090E+03  0.10610660499E+03  0.00000000000E+00 0. -1.
        -12    1    6    6    0    0  0.22934502758E+02  0.53039697777E+01 -0.84443312771E+01  0.25008603377E+02  0.00000000000E+00 0.  1.
</event>
<event>
12    1  0.1630640E-001  0.2194915E+03  0.7818608E-02  0.1134607E+00
         21   -1    0    0  503  502  0.00000000000E+00  0.00000000000E+00  0.14833790387E+03  0.14833790387E+03  0.00000000000E+00 0.  1.
         21   -1    0    0  501  503 -0.00000000000E+00 -0.00000000000E+00 -0.39118729571E+03  0.39118729571E+03  0.00000000000E+00 0.  1.
          6    2    1    2  501    0 -0.13159430399E+02 -0.13069042934E+03 -0.23439577924E+03  0.31987093663E+03  0.17355943029E+03 0.  0.
         24    2    3    3    0    0 -0.14126722394E+02 -0.16495868647E+03 -0.18263793337E+03  0.25761169065E+03  0.74807993711E+02 0.  0.
         -6    2    1    2    0  502  0.13159430399E+02  0.13069042934E+03 -0.84536126006E+01  0.21965426295E+03  0.17585042718E+03 0.  0.
        -24    2    5    5    0    0 -0.40121288766E+02  0.29164696647E+02  0.23260252865E+02  0.10059894515E+03  0.84373047000E+02 0.  0.
          5    1    3    3  501    0  0.96729199471E+00  0.34268257136E+02 -0.51757845865E+02  0.62259245977E+02  0.47000000000E+01 0. -1.
        -13    1    4    4    0    0  0.15017386026E+02 -0.12881671442E+02 -0.49831843561E+02  0.53615967537E+02  0.00000000000E+00 0.  1.
         14    1    4    4    0    0 -0.29144108420E+02 -0.15207701503E+03 -0.13280608981E+03  0.20399572311E+03  0.00000000000E+00 0. -1.
         -5    1    5    5    0  502  0.53280719165E+02  0.10152573269E+03 -0.31713865466E+02  0.11905531780E+03  0.47000000000E+01 0.  1.
         13    1    6    6    0    0 -0.64364595139E+02  0.34510161942E+02  0.16597771962E+02  0.74894849081E+02  0.00000000000E+00 0. -1.
        -14    1    6    6    0    0  0.24243306374E+02 -0.53454652957E+01  0.66624809027E+01  0.25704096073E+02  0.00000000000E+00 0.  1.
</event>
<event>
12    1  0.1630640E-001  0.2715074E+03  0.7818608E-02  0.1100474E+00
         21   -1    0    0  503  502  0.00000000000E+00  0.00000000000E+00  0.25315674591E+03  0.25315674591E+03  0.00000000000E+00 0. -1.
         21   -1    0    0  501  503 -0.00000000000E+00 -0.00000000000E+00 -0.29644622021E+03  0.29644622021E+03  0.00000000000E+00 0.  1.
          6    2    1    2  501    0  0.19233845461E+03  0.84298467408E+02 -0.59623341196E+02  0.27760468402E+03  0.17149083079E+03 0.  0.
         24    2    3    3    0    0  0.13681711642E+03  0.98381296231E+02 -0.95852372668E+02  0.20966664030E+03  0.79841216907E+02 0.  0.
         -6    2    1    2    0  502 -0.19233845461E+03 -0.84298467408E+02  0.16333866900E+02  0.27199828210E+03  0.17209287472E+03 0.  0.
        -24    2    5    5    0    0 -0.51074337322E+02 -0.48985287573E+01  0.43986034499E+02  0.10753967496E+03  0.83650624279E+02 0.  0.
          5    1    3    3  501    0  0.55521338193E+02 -0.14082828823E+02  0.36229031472E+02  0.67938043714E+02  0.47000000000E+01 0. -1.
        -11    1    4    4    0    0  0.13630548574E+03  0.84629413565E+02 -0.10623790168E+03  0.19242612825E+03  0.00000000000E+00 0.  1.
         12    1    4    4    0    0  0.51163067900E+00  0.13751882667E+02  0.10385529011E+02  0.17240512047E+02  0.00000000000E+00 0. -1.
         -5    1    5    5    0  502 -0.14126411729E+03 -0.79399938651E+02 -0.27652167599E+02  0.16445860714E+03  0.47000000000E+01 0.  1.
         13    1    6    6    0    0 -0.35038559522E+02 -0.39814441948E+02  0.44318539542E+02  0.69116013977E+02  0.00000000000E+00 0. -1.
        -14    1    6    6    0    0 -0.16035777800E+02  0.34915913190E+02 -0.33250504310E+00  0.38423660981E+02  0.00000000000E+00 0.  1.
</event>
<event>
12    1  0.1630640E-001  0.1721920E+03  0.7818608E-02  0.1175835E+00
         21   -1    0    0  501  502  0.00000000000E+00  0.00000000000E+00  0.27663967583E+03  0.27663967583E+03  0.00000000000E+00 0. -1.
         21   -1    0    0  502  503 -0.00000000000E+00 -0.00000000000E+00 -0.13283790664E+03  0.13283790664E+03  0.00000000000E+00 0. -1.
         -6    2    1    2    0  503  0.12255598640E+02 -0.55057740334E+01 -0.18984264868E+02  0.17323532585E+03  0.17166701070E+03 0.  0.
        -24    2    3    3    0    0  0.47874229548E+02 -0.49060200016E+02  0.19440484945E+02  0.10494018481E+03  0.77043266114E+02 0.  0.
          6    2    1    2  501    0 -0.12255598640E+02  0.55057740334E+01  0.16278603405E+03  0.23624225662E+03  0.17067688093E+03 0.  0.
         24    2    5    5    0    0  0.14404290692E+02 -0.14337540846E+02  0.14144525541E+02  0.83858219078E+02  0.80119190187E+02 0.  0.
          5    1    5    5  501    0 -0.26659889333E+02  0.19843314880E+02  0.14864150851E+03  0.15238403754E+03  0.47000000000E+01 0. -1.
        -13    1    6    6    0    0  0.21408769600E+02 -0.42291531991E+02  0.24345276492E+02  0.53287912150E+02  0.00000000000E+00 0.  1.
         14    1    6    6    0    0 -0.70044789071E+01  0.27953991144E+02 -0.10200750951E+02  0.30570306927E+02  0.00000000000E+00 0. -1.
         -5    1    3    3    0  503 -0.35618630908E+02  0.43554425982E+02 -0.38424749813E+02  0.68295141032E+02  0.47000000000E+01 0.  1.
         13    1    4    4    0    0  0.51106553185E+01  0.15812933660E+02 -0.12639155663E+02  0.20878599680E+02  0.00000000000E+00 0. -1.
        -14    1    4    4    0    0  0.42763574230E+02 -0.64873133676E+02  0.32079640608E+02  0.84061585134E+02  0.00000000000E+00 0.  1.
</event>
<event>
12    1  0.1630640E-001  0.1836052E+03  0.7818608E-02  0.1164362E+00
         21   -1    0    0  503  502  0.00000000000E+00  0.00000000000E+00  0.20863235680E+03  0.20863235680E+03  0.00000000000E+00 0. -1.
         21   -1    0    0  501  503 -0.00000000000E+00 -0.00000000000E+00 -0.24672786293E+03  0.24672786293E+03  0.00000000000E+00 0. -1.
          6    2    1    2  501    0 -0.44445426929E+02 -0.41976701447E+02 -0.15280858400E+03  0.23886547796E+03  0.17311503048E+03 0.  0.
         24    2    3    3    0    0  0.24041713591E+02 -0.76389975139E+01 -0.13678189884E+03  0.16045303657E+03  0.79997067565E+02 0.  0.
         -6    2    1    2    0  502  0.44445426929E+02  0.41976701447E+02  0.11471307787E+03  0.21649474176E+03  0.17312840188E+03 0.  0.
        -24    2    5    5    0    0  0.29103420100E+02  0.42944084100E+02  0.14957157729E+03  0.17810831207E+03  0.81607050404E+02 0.  0.
          5    1    3    3  501    0 -0.68487140521E+02 -0.34337703933E+02 -0.16026685160E+02  0.78412441394E+02  0.47000000000E+01 0. -1.
        -13    1    4    4    0    0 -0.22290238357E+01  0.99098492960E+01  0.75803752118E+01  0.12674215900E+02  0.00000000000E+00 0.  1.
         14    1    4    4    0    0  0.26270737427E+02 -0.17548846810E+02 -0.14436227405E+03  0.14777882067E+03  0.00000000000E+00 0. -1.
         -5    1    5    5    0  502  0.15342006829E+02 -0.96738265241E+00 -0.34858499417E+02  0.38386429690E+02  0.47000000000E+01 0.  1.
         13    1    6    6    0    0 -0.28639877844E+02  0.16484273620E+02  0.46737913927E+02  0.57239902847E+02  0.00000000000E+00 0. -1.
        -14    1    6    6    0    0  0.57743297944E+02  0.26459810479E+02  0.10283366336E+03  0.12086840922E+03  0.00000000000E+00 0.  1.
</event>
<event>
12    1  0.1630640E-001  0.1889476E+03  0.7818608E-02  0.1160769E+00
         21   -1    0    0  501  502  0.00000000000E+00  0.00000000000E+00  0.20888354137E+04  0.20888354137E+04  0.00000000000E+00 0. -1.
         21   -1    0    0  502  503 -0.00000000000E+00 -0.00000000000E+00 -0.34970236498E+02  0.34970236498E+02  0.00000000000E+00 0. -1.
         -6    2    1    2    0  503 -0.26877795107E+02  0.65592827169E+02  0.26426390869E+03  0.32486397401E+03  0.17514666234E+03 0.  0.
        -24    2    3    3    0    0  0.13832006679E+02  0.92594459883E+02  0.24107492656E+03  0.27058511051E+03  0.79587206281E+02 0.  0.
          6    2    1    2  501    0  0.26877795107E+02 -0.65592827169E+02  0.17896012685E+04  0.17989416762E+04  0.16880053084E+03 0.  0.
         24    2    5    5    0    0  0.54839246182E+02 -0.89404109262E+01  0.57488145967E+03  0.58257099132E+03  0.76242989074E+02 0.  0.
          5    1    5    5  501    0 -0.27961451076E+02 -0.56652416243E+02  0.12147198089E+04  0.12163706849E+04  0.47000000000E+01 0. -1.
        -13    1    6    6    0    0  0.59389267475E+02 -0.12450011207E+02  0.23713342851E+03  0.24477408112E+03  0.00000000000E+00 0.  1.
         14    1    6    6    0    0 -0.45500212923E+01  0.35096002807E+01  0.33774803116E+03  0.33779691020E+03  0.00000000000E+00 0. -1.
         -5    1    3    3    0  503 -0.40709801785E+02 -0.27001632714E+02  0.23188982124E+02  0.54278863497E+02  0.47000000000E+01 0.  1.
         13    1    4    4    0    0  0.22487512707E+02  0.55587585031E+02  0.57362575825E+02  0.82982726772E+02  0.00000000000E+00 0. -1.
        -14    1    4    4    0    0 -0.86555060285E+01  0.37006874852E+02  0.18371235074E+03  0.18760238374E+03  0.00000000000E+00 0.  1.
</event>
<event>
12    1  0.1630640E-001  0.2252553E+03  0.7818608E-02  0.1130154E+00
         21   -1    0    0  501  502  0.00000000000E+00  0.00000000000E+00  0.10100567854E+03  0.10100567854E+03  0.00000000000E+00 0.  1.
         21   -1    0    0  502  503 -0.00000000000E+00 -0.00000000000E+00 -0.50573498859E+03  0.50573498859E+03  0.00000000000E+00 0. -1.
         -6    2    1    2    0  503  0.13231489613E+03  0.59469253573E+02 -0.23277097803E+03  0.32391709103E+03  0.17232565040E+03 0.  0.
        -24    2    3    3    0    0  0.11897487426E+03  0.61883921702E+02 -0.25421762918E+03  0.29811329962E+03  0.79122032024E+02 0.  0.
          6    2    1    2  501    0 -0.13231489613E+03 -0.59469253573E+02 -0.17195833202E+03  0.28282357610E+03  0.17139335864E+03 0.  0.
         24    2    5    5    0    0 -0.24194128950E+02 -0.80203368769E+02 -0.82378344304E+02  0.14081418194E+03  0.77617691211E+02 0.  0.
          5    1    5    5  501    0 -0.10812076718E+03  0.20734115196E+02 -0.89579987714E+02  0.14200939415E+03  0.47000000000E+01 0. -1.
        -13    1    6    6    0    0 -0.40290652755E+02 -0.69256580193E+02 -0.31069418351E+02  0.85936717160E+02  0.00000000000E+00 0.  1.
         14    1    6    6    0    0  0.16096523805E+02 -0.10946788576E+02 -0.51308925954E+02  0.54877464785E+02  0.00000000000E+00 0. -1.
         -5    1    3    3    0  503  0.13340021869E+02 -0.24146681291E+01  0.21446651149E+02  0.25803791410E+02  0.47000000000E+01 0.  1.
         11    1    4    4    0    0  0.10935793954E+03  0.68834519531E+02 -0.17245926511E+03  0.21549837155E+03  0.00000000000E+00 0. -1.
        -12    1    4    4    0    0  0.96169347232E+01 -0.69505978292E+01 -0.81758364073E+02  0.82614928067E+02  0.00000000000E+00 0.  1.
</event>
<event>
12    1  0.1630640E-001  0.1968249E+03  0.7818608E-02  0.1153104E+00
         21   -1    0    0  501  502  0.00000000000E+00  0.00000000000E+00  0.12533191055E+03  0.12533191055E+03  0.00000000000E+00 0. -1.
         21   -1    0    0  502  503 -0.00000000000E+00 -0.00000000000E+00 -0.53233328588E+03  0.53233328588E+03  0.00000000000E+00 0. -1.
         -6    2    1    2    0  503 -0.84505415187E+02  0.40997896496E+02 -0.41959241174E+03  0.46346288384E+03  0.17296837860E+03 0.  0.
        -24    2    3    3    0    0 -0.94895579211E+02  0.42613039571E+02 -0.17609488102E+03  0.21969311200E+03  0.80216047304E+02 0.  0.
          6    2    1    2  501    0  0.84505415187E+02 -0.40997896496E+02  0.12591036408E+02  0.19420231259E+03  0.16951109493E+03 0.  0.
         24    2    5    5    0    0  0.33821215854E+02 -0.88422468185E+02  0.79060581477E+01  0.12447414695E+03  0.80429472101E+02 0.  0.
          5    1    5    5  501    0  0.50684199333E+02  0.47424571689E+02  0.46849782600E+01  0.69728165638E+02  0.47000000000E+01 0. -1.
        -11    1    6    6    0    0  0.91297671743E+01 -0.42099141776E+02 -0.35921908514E+02  0.56089873402E+02  0.00000000000E+00 0.  1.
         12    1    6    6    0    0  0.24691448680E+02 -0.46323326408E+02  0.43827966661E+02  0.68384273551E+02  0.00000000000E+00 0. -1.
         -5    1    3    3    0  503  0.10390164024E+02 -0.16151430750E+01 -0.24349753072E+03  0.24376977184E+03  0.47000000000E+01 0.  1.
         13    1    4    4    0    0 -0.96399374142E+01  0.18375391594E+02 -0.10223216324E+03  0.10431681844E+03  0.00000000000E+00 0. -1.
        -14    1    4    4    0    0 -0.85255641797E+02  0.24237647977E+02 -0.73862717779E+02  0.11537629356E+03  0.00000000000E+00 0.  1.
</event>
<event>
12    1  0.1630640E-001  0.1790521E+03  0.7818608E-02  0.1168827E+00
         21   -1    0    0  501  502  0.00000000000E+00  0.00000000000E+00  0.45845732632E+03  0.45845732632E+03  0.00000000000E+00 0.  1.
         21   -1    0    0  502  503 -0.00000000000E+00 -0.00000000000E+00 -0.73819801505E+02  0.73819801505E+02  0.00000000000E+00 0.  1.
         -6    2    1    2    0  503  0.39386245648E+02  0.26952415051E+02  0.13015679060E+03  0.22136045315E+03  0.17257447973E+03 0.  0.
        -24    2    3    3    0    0  0.62965577755E+02  0.11056344574E+02  0.14723727544E+03  0.18785667841E+03  0.97593081757E+02 0.  0.
          6    2    1    2  501    0 -0.39386245648E+02 -0.26952415051E+02  0.25448073421E+03  0.31091667467E+03  0.17213664771E+03 0.  0.
         24    2    5    5    0    0 -0.90589223078E+02 -0.37905377402E+02  0.18370037781E+03  0.22274830657E+03  0.78916121919E+02 0.  0.
          5    1    5    5  501    0  0.51202977430E+02  0.10952962352E+02  0.70780356402E+02  0.88168368106E+02  0.47000000000E+01 0. -1.
        -13    1    6    6    0    0 -0.90342635276E+02 -0.50655267624E+02  0.12336354288E+03  0.16107858827E+03  0.00000000000E+00 0.  1.
         14    1    6    6    0    0 -0.24658780174E+00  0.12749890221E+02  0.60336834926E+02  0.61669718299E+02  0.00000000000E+00 0. -1.
         -5    1    3    3    0  503 -0.23579332107E+02  0.15896070476E+02 -0.17080484839E+02  0.33503774736E+02  0.47000000000E+01 0.  1.
         11    1    4    4    0    0  0.23651863949E+02 -0.42710393931E+02  0.76008663644E+02  0.90337729476E+02  0.00000000000E+00 0. -1.
        -12    1    4    4    0    0  0.39313713806E+02  0.53766738505E+02  0.71228611798E+02  0.97518948935E+02  0.00000000000E+00 0.  1.
</event>
<event>
12    1  0.1630640E-001  0.2082660E+03  0.7818608E-02  0.1143718E+00
         21   -1    0    0  501  502  0.00000000000E+00  0.00000000000E+00  0.23260479689E+03  0.23260479689E+03  0.00000000000E+00 0. -1.
         21   -1    0    0  502  503 -0.00000000000E+00 -0.00000000000E+00 -0.44619916252E+03  0.44619916252E+03  0.00000000000E+00 0. -1.
         -6    2    1    2    0  503 -0.11678763170E+03  0.40348693898E+01 -0.36702186903E+03  0.42012516375E+03  0.16776313594E+03 0.  0.
        -24    2    3    3    0    0 -0.11334502857E+03  0.48329260548E+02 -0.33460539281E+03  0.36492767708E+03  0.77644237857E+02 0.  0.
          6    2    1    2  501    0  0.11678763170E+03 -0.40348693898E+01  0.15342750340E+03  0.25867879566E+03  0.17239225458E+03 0.  0.
         24    2    5    5    0    0  0.83109641316E+02  0.44811384884E+02  0.39471565717E+02  0.13011671212E+03  0.80355967900E+02 0.  0.
          5    1    5    5  501    0  0.33677990380E+02 -0.48846254274E+02  0.11395593768E+03  0.12856208354E+03  0.47000000000E+01 0. -1.
        -13    1    6    6    0    0  0.39156449217E+02 -0.21066832611E+02  0.96921320325E+01  0.45507981441E+02  0.00000000000E+00 0.  1.
         14    1    6    6    0    0  0.43953192099E+02  0.65878217495E+02  0.29779433685E+02  0.84608730676E+02  0.00000000000E+00 0. -1.
         -5    1    3    3    0  503 -0.34426031272E+01 -0.44294391158E+02 -0.32416476216E+02  0.55197486669E+02  0.47000000000E+01 0.  1.
         11    1    4    4    0    0 -0.69166115434E+02  0.28266297629E+02 -0.97122187424E+02  0.12253837928E+03  0.00000000000E+00 0. -1.
        -12    1    4    4    0    0 -0.44178913135E+02  0.20062962918E+02 -0.23748320539E+03  0.24238929780E+03  0.00000000000E+00 0.  1.
</event>
<event>
12    1  0.1630640E-001  0.2452848E+03  0.7818608E-02  0.1116640E+00
         21   -1    0    0  501  502  0.00000000000E+00  0.00000000000E+00  0.12217281375E+03  0.12217281375E+03  0.00000000000E+00 0.  1.
         21   -1    0    0  502  503 -0.00000000000E+00 -0.00000000000E+00 -0.49468957861E+03  0.49468957861E+03  0.00000000000E+00 0.  1.
         -6    2    1    2    0  503 -0.10945488387E+03 -0.13531529229E+03 -0.22139354841E+03  0.33042359715E+03  0.17284111300E+03 0.  0.
        -24    2    3    3    0    0 -0.70580233916E+02 -0.73588476670E+02 -0.22176396207E+03  0.25732321834E+03  0.81480982459E+02 0.  0.
          6    2    1    2  501    0  0.10945488387E+03  0.13531529229E+03 -0.15112321646E+03  0.28643879521E+03  0.17005398237E+03 0.  0.
         24    2    5    5    0    0  0.29545833451E+02  0.97546513396E+02 -0.31759549954E+02  0.13783963008E+03  0.87194128567E+02 0.  0.
          5    1    5    5  501    0  0.79909050418E+02  0.37768778896E+02 -0.11936366650E+03  0.14859916514E+03  0.47000000000E+01 0. -1.
        -13    1    6    6    0    0  0.43016556666E+02  0.68223029939E+02 -0.55391798890E+02  0.97842001951E+02  0.00000000000E+00 0.  1.
         14    1    6    6    0    0 -0.13470723215E+02  0.29323483457E+02  0.23632248936E+02  0.39997628127E+02  0.00000000000E+00 0. -1.
         -5    1    3    3    0  503 -0.38874649953E+02 -0.61726815623E+02  0.37041366250E+00  0.73100378810E+02  0.47000000000E+01 0.  1.
         13    1    4    4    0    0 -0.36561516650E+02  0.99548815371E+01 -0.89886272065E+02  0.97546840399E+02  0.00000000000E+00 0. -1.
        -14    1    4    4    0    0 -0.34018717267E+02 -0.83543358207E+02 -0.13187769001E+03  0.15977637794E+03  0.00000000000E+00 0.  1.
</event>
<event>
12    1  0.1630640E-001  0.2113587E+03  0.7818608E-02  0.1144467E+00
         21   -1    0    0  503  502  0.00000000000E+00  0.00000000000E+00  0.76528861053E+02  0.76528861053E+02  0.00000000000E+00 0. -1.
         21   -1    0    0  501  503 -0.00000000000E+00 -0.00000000000E+00 -0.62418221889E+03  0.62418221889E+03  0.00000000000E+00 0. -1.
          6    2    1    2  501    0  0.82812359724E+02  0.21528183875E+02 -0.41958347876E+03  0.46981146310E+03  0.19326449643E+03 0.  0.
         24    2    3    3    0    0 -0.12316145263E+02 -0.38179452229E+02 -0.25793200954E+03  0.27291625804E+03  0.79655535613E+02 0.  0.
         -6    2    1    2    0  502 -0.82812359724E+02 -0.21528183875E+02 -0.12806987907E+03  0.23089961685E+03  0.17202147979E+03 0.  0.
        -24    2    5    5    0    0 -0.37675238106E+02  0.53549959881E+02 -0.61254475428E+02  0.12062507045E+03  0.80692472340E+02 0.  0.
          5    1    3    3  501    0  0.95128504986E+02  0.59707636104E+02 -0.16165146923E+03  0.19689520505E+03  0.47000000000E+01 0. -1.
        -11    1    4    4    0    0 -0.50045460562E+01 -0.57403728338E+02 -0.11622766316E+03  0.12972703339E+03  0.00000000000E+00 0.  1.
         12    1    4    4    0    0 -0.73115992063E+01  0.19224276109E+02 -0.14170434638E+03  0.14318922465E+03  0.00000000000E+00 0. -1.
         -5    1    5    5    0  502 -0.45137121618E+02 -0.75078143756E+02 -0.66815403645E+02  0.11027454639E+03  0.47000000000E+01 0.  1.
         13    1    6    6    0    0 -0.43758813862E+01 -0.14990275164E+02  0.80966962928E+01  0.17590144350E+02  0.00000000000E+00 0. -1.
        -14    1    6    6    0    0 -0.33299356720E+02  0.68540235046E+02 -0.69351171721E+02  0.10303492610E+03  0.00000000000E+00 0.  1.
</event>
<event>
12    1  0.1630640E-001  0.2068225E+03  0.7818608E-02  0.1145287E+00
         21   -1    0    0  503  502  0.00000000000E+00  0.00000000000E+00  0.11021325981E+03  0.11021325981E+03  0.00000000000E+00 0.  1.
         21   -1    0    0  501  503 -0.00000000000E+00 -0.00000000000E+00 -0.97145634566E+03  0.97145634566E+03  0.00000000000E+00 0.  1.
          6    2    1    2  501    0  0.10105227402E+03 -0.13429727404E+02 -0.85589453091E+03  0.88052882056E+03  0.17995453908E+03 0.  0.
         24    2    3    3    0    0  0.10648487513E+03 -0.51200024445E+01 -0.85873258552E+03  0.86918381119E+03  0.81814431130E+02 0.  0.
         -6    2    1    2    0  502 -0.10105227402E+03  0.13429727404E+02 -0.53485549333E+01  0.20114078490E+03  0.17331211339E+03 0.  0.
        -24    2    5    5    0    0 -0.56633307457E+02 -0.59039162383E+02 -0.23590127108E+02  0.11407971706E+03  0.75925842373E+02 0.  0.
          5    1    3    3  501    0 -0.54326011106E+01 -0.83097249592E+01  0.28380546094E+01  0.11345009374E+02  0.47000000000E+01 0. -1.
        -11    1    4    4    0    0  0.82598662034E+02  0.29635297528E+02 -0.67459224481E+03  0.68027603705E+03  0.00000000000E+00 0.  1.
         12    1    4    4    0    0  0.23886213100E+02 -0.34755299972E+02 -0.18414034071E+03  0.18890777413E+03  0.00000000000E+00 0. -1.
         -5    1    5    5    0  502 -0.44418966566E+02  0.72468889787E+02  0.18241572175E+02  0.87061067839E+02  0.47000000000E+01 0.  1.
         13    1    6    6    0    0 -0.62602954910E+02 -0.40530329164E+02  0.10020775697E+02  0.75247946757E+02  0.00000000000E+00 0. -1.
        -14    1    6    6    0    0  0.59696474530E+01 -0.18508833219E+02 -0.33610902805E+02  0.38831770307E+02  0.00000000000E+00 0.  1.
</event>
<event>
12    1  0.1630640E-001  0.1759684E+03  0.7818608E-02  0.1172570E+00
         21   -1    0    0  503  502  0.00000000000E+00  0.00000000000E+00  0.12775284271E+04  0.12775284271E+04  0.00000000000E+00 0.  1.
         21   -1    0    0  501  503 -0.00000000000E+00 -0.00000000000E+00 -0.46351889901E+02  0.46351889901E+02  0.00000000000E+00 0.  1.
          6    2    1    2  501    0 -0.11053434631E+02 -0.38171742562E+02  0.15096130201E+03  0.22942619574E+03  0.16813031922E+03 0.  0.
         24    2    3    3    0    0 -0.19383980229E+01 -0.84525603972E+02  0.13320479770E+03  0.17873943411E+03  0.83999595597E+02 0.  0.
         -6    2    1    2    0  502  0.11053434631E+02  0.38171742562E+02  0.10802152352E+04  0.10944541213E+04  0.17142231141E+03 0.  0.
        -24    2    5    5    0    0  0.37706771514E+02  0.47621356959E+02  0.30981777974E+03  0.32352349860E+03  0.70645617334E+02 0.  0.
          5    1    3    3  501    0 -0.91150366078E+01  0.46353861411E+02  0.17756504304E+02  0.50686761636E+02  0.47000000000E+01 0. -1.
        -13    1    4    4    0    0  0.19245420471E+02 -0.43824351349E+02  0.12297599582E+02  0.49418528264E+02  0.00000000000E+00 0.  1.
         14    1    4    4    0    0 -0.21183818493E+02 -0.40701252623E+02  0.12090719812E+03  0.12932090584E+03  0.00000000000E+00 0. -1.
         -5    1    5    5    0  502 -0.26653336883E+02 -0.94496143970E+01  0.77039745547E+03  0.77093062267E+03  0.47000000000E+01 0.  1.
         11    1    6    6    0    0 -0.14011757958E+02  0.30785089008E+02  0.71766716952E+02  0.79337965240E+02  0.00000000000E+00 0. -1.
        -12    1    6    6    0    0  0.51718529472E+02  0.16836267950E+02  0.23805106279E+03  0.24418553336E+03  0.00000000000E+00 0.  1.
</event>
<event>
12    1  0.1630640E-001  0.1839001E+03  0.7818608E-02  0.1164231E+00
         21   -1    0    0  503  502  0.00000000000E+00  0.00000000000E+00  0.25297283672E+03  0.25297283672E+03  0.00000000000E+00 0. -1.
         21   -1    0    0  501  503 -0.00000000000E+00 -0.00000000000E+00 -0.21609464210E+03  0.21609464210E+03  0.00000000000E+00 0. -1.
          6    2    1    2  501    0 -0.38723667554E+02 -0.50985711761E+02 -0.12681850154E+03  0.22286461807E+03  0.17171674474E+03 0.  0.
         24    2    3    3    0    0  0.14625648881E+02 -0.80039741072E+02 -0.11244901853E+03  0.16026383353E+03  0.80121437915E+02 0.  0.
         -6    2    1    2    0  502  0.38723667554E+02  0.50985711761E+02  0.16369669616E+03  0.24620286075E+03  0.17239540328E+03 0.  0.
        -24    2    5    5    0    0  0.55098405876E+02  0.10738539233E+02  0.25346354466E+02  0.10111366749E+03  0.80189684589E+02 0.  0.
          5    1    3    3  501    0 -0.53349316435E+02  0.29054029311E+02 -0.14369483013E+02  0.62600784542E+02  0.47000000000E+01 0. -1.
        -11    1    4    4    0    0 -0.32890317739E+02 -0.24995906686E+02 -0.36642360777E+02  0.55219842044E+02  0.00000000000E+00 0.  1.
         12    1    4    4    0    0  0.47515966620E+02 -0.55043834386E+02 -0.75806657752E+02  0.10504399149E+03  0.00000000000E+00 0. -1.
         -5    1    5    5    0  502 -0.16374738322E+02  0.40247172528E+02  0.13835034170E+03  0.14508919326E+03  0.47000000000E+01 0.  1.
         11    1    6    6    0    0  0.10502793101E+02 -0.93956766112E+01  0.45920389328E+02  0.48034045821E+02  0.00000000000E+00 0. -1.
        -12    1    6    6    0    0  0.44595612775E+02  0.20134215844E+02 -0.20574034862E+02  0.53079621673E+02  0.00000000000E+00 0.  1.
</event>
<event>
12    1  0.1630640E-001  0.1785769E+03  0.7818608E-02  0.1169367E+00
         21   -1    0    0  503  502  0.00000000000E+00  0.00000000000E+00  0.13720937475E+03  0.13720937475E+03  0.00000000000E+00 0. -1.
         21   -1    0    0  501  503 -0.00000000000E+00 -0.00000000000E+00 -0.42814502916E+03  0.42814502916E+03  0.00000000000E+00 0. -1.
          6    2    1    2  501    0  0.14742018098E+02 -0.42824097660E+02 -0.33721978379E+03  0.38158468893E+03  0.17273813072E+03 0.  0.
         24    2    3    3    0    0  0.52130920554E+02 -0.87508085940E+00 -0.29794815930E+03  0.31286787492E+03  0.79967511399E+02 0.  0.
         -6    2    1    2    0  502 -0.14742018098E+02  0.42824097660E+02  0.46284129388E+02  0.18376971498E+03  0.17198214173E+03 0.  0.
        -24    2    5    5    0    0 -0.63482822660E+02 -0.89396673901E+01  0.46887728632E+02  0.11251238039E+03  0.79690590523E+02 0.  0.
          5    1    3    3  501    0 -0.37388902455E+02 -0.41949016801E+02 -0.39271624492E+02  0.68716814010E+02  0.47000000000E+01 0. -1.
        -11    1    4    4    0    0  0.34425066425E+02 -0.34871120690E+01 -0.34670324545E+02  0.48982410649E+02  0.00000000000E+00 0.  1.
         12    1    4    4    0    0  0.17705854129E+02  0.26120312096E+01 -0.26327783476E+03  0.26388546427E+03  0.00000000000E+00 0. -1.
         -5    1    5    5    0  502  0.48740804562E+02  0.51763765050E+02 -0.60359924456E+00  0.71257334595E+02  0.47000000000E+01 0.  1.
         13    1    6    6    0    0 -0.43934982502E+02  0.19312002450E+02  0.59027465512E+02  0.76075474438E+02  0.00000000000E+00 0. -1.
        -14    1    6    6    0    0 -0.19547840158E+02 -0.28251669840E+02 -0.12139736880E+02  0.36436905949E+02  0.00000000000E+00 0.  1.
</event>
<event>
12    1  0.1630640E-001  0.1793540E+03  0.7818608E-02  0.1168460E+00
         21   -1    0    0  501  502  0.00000000000E+00  0.00000000000E+00  0.63205185409E+03  0.63205185409E+03  0.00000000000E+00 0. -1.
         21   -1    0    0  502  503 -0.00000000000E+00 -0.00000000000E+00 -0.78534475471E+02  0.78534475471E+02  0.00000000000E+00 0. -1.
         -6    2    1    2    0  503  0.37899566959E+02 -0.25500824607E+02  0.65782594356E+02  0.19092002966E+03  0.17331023851E+03 0.  0.
        -24    2    3    3    0    0 -0.37489108617E+02 -0.11546934167E+02  0.70576766045E+02  0.11395745729E+03  0.80414284877E+02 0.  0.
          6    2    1    2  501    0 -0.37899566959E+02  0.25500824607E+02  0.48773478427E+03  0.51966629991E+03  0.17343925232E+03 0.  0.
         24    2    5    5    0    0 -0.28787517509E+02 -0.27937371170E+02  0.43095441721E+03  0.44102298935E+03  0.84677916516E+02 0.  0.
          5    1    5    5  501    0 -0.91120494505E+01  0.53438195777E+02  0.56780367056E+02  0.78643310562E+02  0.47000000000E+01 0. -1.
        -13    1    6    6    0    0  0.49162896189E+01 -0.95378522663E+01  0.27190701538E+01  0.11069501885E+02  0.00000000000E+00 0.  1.
         14    1    6    6    0    0 -0.33703807128E+02 -0.18399518904E+02  0.42823534706E+03  0.42995348746E+03  0.00000000000E+00 0. -1.
         -5    1    3    3    0  503  0.75388675577E+02 -0.13953890441E+02 -0.47941716894E+01  0.76962572370E+02  0.47000000000E+01 0.  1.
         11    1    4    4    0    0 -0.17744425658E+01 -0.16046940279E+02 -0.14423402207E+02  0.21649190977E+02  0.00000000000E+00 0. -1.
        -12    1    4    4    0    0 -0.35714666052E+02  0.45000061125E+01  0.85000168252E+02  0.92308266309E+02  0.00000000000E+00 0.  1.
</event>
<event>
12    1  0.1630640E-001  0.1742301E+03  0.7818608E-02  0.1173912E+00
         21   -1    0    0  503  502  0.00000000000E+00  0.00000000000E+00  0.46190950279E+03  0.46190950279E+03  0.00000000000E+00 0.  1.
         21   -1    0    0  501  503 -0.00000000000E+00 -0.00000000000E+00 -0.79289580226E+02  0.79289580226E+02  0.00000000000E+00 0.  1.
          6    2    1    2  501    0  0.29701846316E+02  0.83111749438E+01  0.76185400331E+02  0.18869624597E+03  0.16985518160E+03 0.  0.
         24    2    3    3    0    0  0.51850443470E+02  0.56142499893E+02  0.21184377184E+02  0.11237063723E+03  0.79611139255E+02 0.  0.
         -6    2    1    2    0  502 -0.29701846316E+02 -0.83111749438E+01  0.30643452224E+03  0.35250283705E+03  0.17147844880E+03 0.  0.
        -24    2    5    5    0    0 -0.58535314385E+02  0.30706140809E+02  0.79984664368E+02  0.12086659649E+03  0.61983364705E+02 0.  0.
          5    1    3    3  501    0 -0.22148597154E+02 -0.47831324949E+02  0.55001023146E+02  0.76325608739E+02  0.47000000000E+01 0. -1.
        -13    1    4    4    0    0 -0.19927603815E+02  0.64892685613E+01 -0.44105027543E+01  0.21416641539E+02  0.00000000000E+00 0.  1.
         14    1    4    4    0    0  0.71778047285E+02  0.49653231332E+02  0.25594879939E+02  0.90953995694E+02  0.00000000000E+00 0. -1.
         -5    1    5    5    0  502  0.28833468069E+02 -0.39017315752E+02  0.22644985787E+03  0.23163624055E+03  0.47000000000E+01 0.  1.
         13    1    6    6    0    0 -0.24066314860E+02  0.35025348228E+02  0.74400676679E+02  0.85682105598E+02  0.00000000000E+00 0. -1.
        -14    1    6    6    0    0 -0.34468999525E+02 -0.43192074198E+01  0.55839876888E+01  0.35184490894E+02  0.00000000000E+00 0.  1.
</event>
<event>
12    1  0.1630640E-001  0.1776123E+03  0.7818608E-02  0.1170232E+00
         21   -1    0    0  501  502  0.00000000000E+00  0.00000000000E+00  0.46831494913E+02  0.46831494913E+02  0.00000000000E+00 0. -1.
         21   -1    0    0  502  503 -0.00000000000E+00 -0.00000000000E+00 -0.20317763770E+04  0.20317763770E+04  0.00000000000E+00 0. -1.
         -6    2    1    2    0  503  0.41756203844E+02 -0.54897821102E+01 -0.18430434927E+04  0.18515818785E+04  0.17254685892E+03 0.  0.
        -24    2    3    3    0    0  0.68806182551E+02 -0.32082835074E+02 -0.16973916389E+04  0.17009981997E+04  0.80578535609E+02 0.  0.
          6    2    1    2  501    0 -0.41756203844E+02  0.54897821102E+01 -0.14190138935E+03  0.22702599338E+03  0.17213680345E+03 0.  0.
         24    2    5    5    0    0 -0.51102373479E+02  0.64992780309E+02 -0.12072867195E+03  0.16300778000E+03  0.71837386113E+02 0.  0.
          5    1    5    5  501    0  0.93461696346E+01 -0.59502998199E+02 -0.21172717399E+02  0.64018213374E+02  0.47000000000E+01 0. -1.
        -11    1    6    6    0    0 -0.45541836018E+02  0.48465033007E+01 -0.72312235561E+02  0.85595600552E+02  0.00000000000E+00 0.  1.
         12    1    6    6    0    0 -0.55605374612E+01  0.60146277009E+02 -0.48416436388E+02  0.77412179451E+02  0.00000000000E+00 0. -1.
         -5    1    3    3    0  503 -0.27049978706E+02  0.26593052964E+02 -0.14565185379E+03  0.15058367882E+03  0.47000000000E+01 0.  1.
         11    1    4    4    0    0 -0.15202738499E+02 -0.43002454882E+01 -0.53922491772E+03  0.53945632563E+03  0.00000000000E+00 0. -1.
        -12    1    4    4    0    0  0.84008921050E+02 -0.27782589586E+02 -0.11581667212E+04  0.11615418740E+04  0.00000000000E+00 0.  1.
</event>
<event>
12    1  0.1630640E-001  0.1780582E+03  0.7818608E-02  0.1169696E+00
         21   -1    0    0  501  502  0.00000000000E+00  0.00000000000E+00  0.15805803091E+03  0.15805803091E+03  0.00000000000E+00 0. -1.
         21   -1    0    0  502  503 -0.00000000000E+00 -0.00000000000E+00 -0.20898087491E+03  0.20898087491E+03  0.00000000000E+00 0. -1.
         -6    2    1    2    0  503 -0.20758532506E+02  0.41007449395E+02 -0.62244518921E+02  0.18862108883E+03  0.17202036925E+03 0.  0.
        -24    2    3    3    0    0 -0.11729521797E+02  0.81567730011E+02 -0.82393997897E+02  0.14220179434E+03  0.81496645101E+02 0.  0.
          6    2    1    2  501    0  0.20758532506E+02 -0.41007449395E+02  0.11321674919E+02  0.17841781699E+03  0.17202386322E+03 0.  0.
         24    2    5    5    0    0  0.51725948216E+02 -0.76936762397E+02  0.32730148034E+02  0.12616545733E+03  0.79067192355E+02 0.  0.
          5    1    5    5  501    0 -0.30967415710E+02  0.35929313002E+02 -0.21408473114E+02  0.52252359656E+02  0.47000000000E+01 0. -1.
        -13    1    6    6    0    0  0.40347011029E+02 -0.89420509813E+02  0.11109327600E+02  0.98728547209E+02  0.00000000000E+00 0.  1.
         14    1    6    6    0    0  0.11378937186E+02  0.12483747415E+02  0.21620820433E+02  0.27436910125E+02  0.00000000000E+00 0. -1.
         -5    1    3    3    0  503 -0.90290107091E+01 -0.40560280616E+02  0.20149478976E+02  0.46419294491E+02  0.47000000000E+01 0.  1.
         13    1    4    4    0    0  0.18942603701E+02  0.11752215931E+02 -0.58004062305E+02  0.62140228984E+02  0.00000000000E+00 0. -1.
        -14    1    4    4    0    0 -0.30672125498E+02  0.69815514080E+02 -0.24389935592E+02  0.80061565355E+02  0.00000000000E+00 0.  1.
</event>
<event>
12    1  0.1630640E-001  0.1995745E+03  0.7818608E-02  0.1150191E+00
         21   -1    0    0  501  502  0.00000000000E+00  0.00000000000E+00  0.11247870945E+04  0.11247870945E+04  0.00000000000E+00 0. -1.
         21   -1    0    0  502  503 -0.00000000000E+00 -0.00000000000E+00 -0.39336652487E+02  0.39336652487E+02  0.00000000000E+00 0.  1.
         -6    2    1    2    0  503  0.10148027522E+03 -0.43027174571E+01  0.35650257582E+03  0.40834932317E+03  0.17128433533E+03 0.  0.
        -24    2    3    3    0    0  0.37927461501E+02  0.46555003398E+02  0.10997269192E+03  0.14868696248E+03  0.80049729334E+02 0.  0.
          6    2    1    2  501    0 -0.10148027522E+03  0.43027174571E+01  0.72894786617E+03  0.75577442379E+03  0.17179414551E+03 0.  0.
         24    2    5    5    0    0 -0.19649530493E+02  0.31608887749E+02  0.55059294654E+03  0.55759656157E+03  0.79850528257E+02 0.  0.
          5    1    5    5  501    0 -0.81830744729E+02 -0.27306170292E+02  0.17835491963E+03  0.19817786222E+03  0.47000000000E+01 0. -1.
        -13    1    6    6    0    0 -0.14407132121E+02  0.11557968168E+02  0.22557868599E+02  0.29154922737E+02  0.00000000000E+00 0.  1.
         14    1    6    6    0    0 -0.52423983725E+01  0.20050919582E+02  0.52803507794E+03  0.52844163884E+03  0.00000000000E+00 0. -1.
         -5    1    3    3    0  503  0.63552813720E+02 -0.50857720856E+02  0.24652988390E+03  0.25966236069E+03  0.47000000000E+01 0.  1.
         11    1    4    4    0    0  0.10056442458E+02  0.58706142484E+02  0.10053029741E+03  0.11684983482E+03  0.00000000000E+00 0. -1.
        -12    1    4    4    0    0  0.27871019043E+02 -0.12151139085E+02  0.94423945093E+01  0.31837127660E+02  0.00000000000E+00 0.  1.
</event>
<event>
12    1  0.1630640E-001  0.3455289E+03  0.7818608E-02  0.1064484E+00
         21   -1    0    0  503  502  0.00000000000E+00  0.00000000000E+00  0.42096926502E+03  0.42096926502E+03  0.00000000000E+00 0. -1.
         21   -1    0    0  501  503 -0.00000000000E+00 -0.00000000000E+00 -0.81438661778E+03  0.81438661778E+03  0.00000000000E+00 0.  1.
          6    2    1    2  501    0  0.16710304211E+03 -0.24861154198E+03 -0.69541866459E+03  0.77644953365E+03  0.17185934292E+03 0.  0.
         24    2    3    3    0    0  0.14935828477E+03 -0.23066080563E+03 -0.47300180698E+03  0.55255568848E+03  0.77940842910E+02 0.  0.
         -6    2    1    2    0  502 -0.16710304211E+03  0.24861154198E+03  0.30200131184E+03  0.45890634915E+03  0.17221823206E+03 0.  0.
        -24    2    5    5    0    0 -0.62150701875E+02  0.92566573108E+02  0.20698318079E+03  0.24815635210E+03  0.79424541280E+02 0.  0.
          5    1    3    3  501    0  0.17744757339E+02 -0.17950736353E+02 -0.22241685762E+03  0.22389384516E+03  0.47000000000E+01 0. -1.
        -11    1    4    4    0    0  0.37010103076E+02 -0.51863857282E+02 -0.18333077449E+03  0.19408704310E+03  0.00000000000E+00 0.  1.
         12    1    4    4    0    0  0.11234818169E+03 -0.17879694834E+03 -0.28967103248E+03  0.35846864539E+03  0.00000000000E+00 0. -1.
         -5    1    5    5    0  502 -0.10495234023E+03  0.15604496887E+03  0.95018131055E+02  0.21074999706E+03  0.47000000000E+01 0.  1.
         11    1    6    6    0    0 -0.27117792645E+02  0.48249919009E+01  0.93247267097E+01  0.29079301109E+02  0.00000000000E+00 0. -1.
        -12    1    6    6    0    0 -0.35032909230E+02  0.87741581207E+02  0.19765845408E+03  0.21907705099E+03  0.00000000000E+00 0.  1.
</event>
<event>
12    1  0.1630640E-001  0.1798739E+03  0.7818608E-02  0.1168211E+00
         21   -1    0    0  501  502  0.00000000000E+00  0.00000000000E+00  0.58670335470E+02  0.58670335470E+02  0.00000000000E+00 0.  1.
         21   -1    0    0  502  503 -0.00000000000E+00 -0.00000000000E+00 -0.11965087259E+04  0.11965087259E+04  0.00000000000E+00 0. -1.
         -6    2    1    2    0  503 -0.41013159672E+02 -0.37282599673E+02 -0.10318571466E+04  0.10474176765E+04  0.17112143777E+03 0.  0.
        -24    2    3    3    0    0 -0.68123113415E+02 -0.20525207583E+02 -0.98404161082E+03  0.98976201548E+03  0.78923461230E+02 0.  0.
          6    2    1    2  501    0  0.41013159672E+02  0.37282599673E+02 -0.10598124378E+03  0.20776138486E+03  0.16988436509E+03 0.  0.
         24    2    5    5    0    0 -0.22214974689E+02  0.70825305153E+02 -0.75206124302E+02  0.12970942752E+03  0.75225298305E+02 0.  0.
          5    1    5    5  501    0  0.63228134361E+02 -0.33542705480E+02 -0.30775119478E+02  0.78051957340E+02  0.47000000000E+01 0. -1.
        -11    1    6    6    0    0 -0.84568516515E+01  0.78223242383E+02 -0.34129019997E+02  0.85762369340E+02  0.00000000000E+00 0.  1.
         12    1    6    6    0    0 -0.13758123037E+02 -0.73979372307E+01 -0.41077104304E+02  0.43947058181E+02  0.00000000000E+00 0. -1.
         -5    1    3    3    0  503  0.27109953743E+02 -0.16757392090E+02 -0.47815535813E+02  0.57655661012E+02  0.47000000000E+01 0.  1.
         13    1    4    4    0    0 -0.57404317112E+01 -0.37120814260E+02 -0.50429478014E+03  0.50569173682E+03  0.00000000000E+00 0. -1.
        -14    1    4    4    0    0 -0.62382681704E+02  0.16595606677E+02 -0.47974683068E+03  0.48407027866E+03  0.00000000000E+00 0.  1.
</event>
<event>
12    1  0.1630640E-001  0.2484189E+03  0.7818608E-02  0.1114799E+00
         21   -1    0    0  503  502  0.00000000000E+00  0.00000000000E+00  0.11553829180E+03  0.11553829180E+03  0.00000000000E+00 0.  1.
         21   -1    0    0  501  503 -0.00000000000E+00 -0.00000000000E+00 -0.14161418891E+04  0.14161418891E+04  0.00000000000E+00 0. -1.
          6    2    1    2  501    0  0.15533853018E+03  0.88651110152E+02 -0.12584433116E+04  0.12827281530E+04  0.17240321288E+03 0.  0.
         24    2    3    3    0    0  0.48663524740E+02  0.11642414717E+02 -0.26963767767E+03  0.28519691661E+03  0.78288693738E+02 0.  0.
         -6    2    1    2    0  502 -0.15533853018E+03 -0.88651110152E+02 -0.42160285736E+02  0.24895202789E+03  0.16795994822E+03 0.  0.
        -24    2    5    5    0    0 -0.10161283413E+03  0.24798895581E+01  0.11131768762E+02  0.13040481114E+03  0.80933185913E+02 0.  0.
          5    1    3    3  501    0  0.10667500544E+03  0.77008695435E+02 -0.98880563393E+03  0.99753123643E+03  0.47000000000E+01 0. -1.
        -13    1    4    4    0    0  0.54050062924E+02  0.28218680527E+02 -0.25573101038E+03  0.26289932085E+03  0.00000000000E+00 0.  1.
         14    1    4    4    0    0 -0.53865381837E+01 -0.16576265810E+02 -0.13906667286E+02  0.22297595763E+02  0.00000000000E+00 0. -1.
         -5    1    5    5    0  502 -0.53725696057E+02 -0.91130999710E+02 -0.53292054498E+02  0.11854721674E+03  0.47000000000E+01 0.  1.
         11    1    6    6    0    0 -0.11383739032E+03 -0.85131396968E+00  0.46378007151E+00  0.11384151818E+03  0.00000000000E+00 0. -1.
        -12    1    6    6    0    0  0.12224556191E+02  0.33312035277E+01  0.10667988691E+02  0.16563292961E+02  0.00000000000E+00 0.  1.
</event>
<event>
12    1  0.1630640E-001  0.1713377E+03  0.7818608E-02  0.1176480E+00
         21   -1    0    0  503  502  0.00000000000E+00  0.00000000000E+00  0.43733436560E+02  0.43733436560E+02  0.00000000000E+00 0.  1.
         21   -1    0    0  501  503 -0.00000000000E+00 -0.00000000000E+00 -0.71165060834E+03  0.71165060834E+03  0.00000000000E+00 0.  1.
          6    2    1    2  501    0 -0.84539779813E+01  0.60892717551E+01 -0.42419814059E+03  0.45746529280E+03  0.17094409222E+03 0.  0.
         24    2    3    3    0    0  0.49946725253E+02  0.67617553704E+01 -0.20147157293E+03  0.22716047671E+03  0.92036355764E+02 0.  0.
         -6    2    1    2    0  502  0.84539779813E+01 -0.60892717551E+01 -0.24371903119E+03  0.29791875210E+03  0.17102066458E+03 0.  0.
        -24    2    5    5    0    0 -0.34911342223E+02 -0.46239851406E+02 -0.20320077802E+03  0.22611040382E+03  0.80488712573E+02 0.  0.
          5    1    3    3  501    0 -0.58400703235E+02 -0.67248361533E+00 -0.22272656766E+03  0.23030481609E+03  0.47000000000E+01 0. -1.
        -13    1    4    4    0    0 -0.20344626364E+02  0.24703598391E+02 -0.52981143289E+02  0.61896471139E+02  0.00000000000E+00 0.  1.
         14    1    4    4    0    0  0.70291351617E+02 -0.17941843021E+02 -0.14849042964E+03  0.16526400557E+03  0.00000000000E+00 0. -1.
         -5    1    5    5    0  502  0.43365320204E+02  0.40150579651E+02 -0.40518253166E+02  0.71808348277E+02  0.47000000000E+01 0.  1.
         11    1    6    6    0    0 -0.31894060605E+02 -0.87685643833E+01 -0.19069219768E+02  0.38180544335E+02  0.00000000000E+00 0. -1.
        -12    1    6    6    0    0 -0.30172816179E+01 -0.37471287022E+02 -0.18413155826E+03  0.18792985948E+03  0.00000000000E+00 0.  1.
</event>
<event>
12    1  0.1630640E-001  0.1804596E+03  0.7818608E-02  0.1168497E+00
         21   -1    0    0  503  502  0.00000000000E+00  0.00000000000E+00  0.19954346657E+03  0.19954346657E+03  0.00000000000E+00 0. -1.
         21   -1    0    0  501  503 -0.00000000000E+00 -0.00000000000E+00 -0.17335593312E+03  0.17335593312E+03  0.00000000000E+00 0. -1.
          6    2    1    2  501    0 -0.42157481528E+02  0.45303466649E+02  0.66549799002E+02  0.18798108236E+03  0.16455501888E+03 0.  0.
         24    2    3    3    0    0 -0.55068539685E+02 -0.30731502120E+02  0.66240141492E+02  0.11071402737E+03  0.62392869992E+02 0.  0.
         -6    2    1    2    0  502  0.42157481528E+02 -0.45303466649E+02 -0.40362265556E+02  0.18491831733E+03  0.16951700288E+03 0.  0.
        -24    2    5    5    0    0  0.26615699163E+02  0.55784342947E+01 -0.81426233435E+02  0.11754729759E+03  0.80297081572E+02 0.  0.
          5    1    3    3  501    0  0.12911058158E+02  0.76034968769E+02  0.30965751054E+00  0.77267054987E+02  0.47000000000E+01 0. -1.
        -11    1    4    4    0    0 -0.26672844178E+02 -0.36440239938E+02  0.68075429160E+02  0.81692078922E+02  0.00000000000E+00 0.  1.
         12    1    4    4    0    0 -0.28395695507E+02  0.57087378179E+01 -0.18352876689E+01  0.29021948447E+02  0.00000000000E+00 0. -1.
         -5    1    5    5    0  502  0.15541782365E+02 -0.50881900944E+02  0.41063967878E+02  0.67371019739E+02  0.47000000000E+01 0.  1.
         11    1    6    6    0    0 -0.14659593381E+02 -0.21241127891E+02 -0.44665934423E+01  0.26192358602E+02  0.00000000000E+00 0. -1.
        -12    1    6    6    0    0  0.41275292544E+02  0.26819562185E+02 -0.76959639992E+02  0.91354938991E+02  0.00000000000E+00 0.  1.
</event>
<event>
12    1  0.1630640E-001  0.2083948E+03  0.7818608E-02  0.1146085E+00
         21   -1    0    0  501  502  0.00000000000E+00  0.00000000000E+00  0.61876926766E+02  0.61876926766E+02  0.00000000000E+00 0.  1.
         21   -1    0    0  502  503 -0.00000000000E+00 -0.00000000000E+00 -0.12808521266E+04  0.12808521266E+04  0.00000000000E+00 0. -1.
         -6    2    1    2    0  503 -0.11650478252E+03  0.21775041829E+02 -0.10923050164E+04  0.11120065876E+04  0.17140853299E+03 0.  0.
        -24    2    3    3    0    0 -0.12412383645E+01  0.19201351478E+02 -0.67245443742E+03  0.67658850440E+03  0.72158168697E+02 0.  0.
          6    2    1    2  501    0  0.11650478252E+03 -0.21775041829E+02 -0.12667018345E+03  0.23072246580E+03  0.15211838828E+03 0.  0.
         24    2    5    5    0    0  0.52162744888E+02 -0.61561148683E+02 -0.80892267871E+02  0.14217564395E+03  0.84614583552E+02 0.  0.
          5    1    5    5  501    0  0.64342037631E+02  0.39786106853E+02 -0.45777915584E+02  0.88546821853E+02  0.47000000000E+01 0. -1.
        -13    1    6    6    0    0  0.43951953739E+02 -0.67269120795E+02 -0.95288739569E+02  0.12464691227E+03  0.00000000000E+00 0.  1.
         14    1    6    6    0    0  0.82107911491E+01  0.57079721124E+01  0.14396471697E+02  0.17528731679E+02  0.00000000000E+00 0. -1.
         -5    1    3    3    0  503 -0.11526354415E+03  0.25736903516E+01 -0.41985057895E+03  0.43541808316E+03  0.47000000000E+01 0.  1.
         11    1    4    4    0    0 -0.56701128677E+01  0.36670503314E+02 -0.62028668960E+03  0.62139556910E+03  0.00000000000E+00 0. -1.
        -12    1    4    4    0    0  0.44288745032E+01 -0.17469151836E+02 -0.52167747813E+02  0.55192935300E+02  0.00000000000E+00 0.  1.
</event>
<event>
12    1  0.1630640E-001  0.1953965E+03  0.7818608E-02  0.1154314E+00
         21   -1    0    0  503  502  0.00000000000E+00  0.00000000000E+00  0.35135402943E+03  0.35135402943E+03  0.00000000000E+00 0.  1.
         21   -1    0    0  501  503 -0.00000000000E+00 -0.00000000000E+00 -0.15239046262E+03  0.15239046262E+03  0.00000000000E+00 0.  1.
          6    2    1    2  501    0  0.86240707765E+02  0.43472881221E+02 -0.37356747564E+02  0.19893543901E+03  0.16986003422E+03 0.  0.
         24    2    3    3    0    0  0.12236656749E+03  0.48619047084E+02 -0.47298425897E+02  0.16082392196E+03  0.79308285837E+02 0.  0.
         -6    2    1    2    0  502 -0.86240707765E+02 -0.43472881221E+02  0.23632031438E+03  0.30480905305E+03  0.16653503161E+03 0.  0.
        -24    2    5    5    0    0 -0.10770179964E+03  0.33222900607E+01  0.20484583820E+03  0.24428551077E+03  0.78120919637E+02 0.  0.
          5    1    3    3  501    0 -0.36125859723E+02 -0.51461658621E+01  0.99416783330E+01  0.38111517051E+02  0.47000000000E+01 0. -1.
        -11    1    4    4    0    0  0.11672560686E+03  0.61298364659E+02 -0.24448323643E+02  0.13408981071E+03  0.00000000000E+00 0.  1.
         12    1    4    4    0    0  0.56409606237E+01 -0.12679317575E+02 -0.22850102255E+02  0.26734111243E+02  0.00000000000E+00 0. -1.
         -5    1    5    5    0  502  0.21461091870E+02 -0.46795171282E+02  0.31474476173E+02  0.60523542279E+02  0.47000000000E+01 0.  1.
         13    1    6    6    0    0  0.57829577033E+01 -0.11569287433E+02  0.47729116543E+01  0.13786649236E+02  0.00000000000E+00 0. -1.
        -14    1    6    6    0    0 -0.11348475734E+03  0.14891577494E+02  0.20007292655E+03  0.23049886153E+03  0.00000000000E+00 0.  1.
</event>
<event>
12    1  0.1630640E-001  0.1801482E+03  0.7818608E-02  0.1167720E+00
         21   -1    0    0  503  502  0.00000000000E+00  0.00000000000E+00  0.21562063315E+03  0.21562063315E+03  0.00000000000E+00 0.  1.
         21   -1    0    0  501  503 -0.00000000000E+00 -0.00000000000E+00 -0.58329871931E+03  0.58329871931E+03  0.00000000000E+00 0.  1.
          6    2    1    2  501    0  0.19333317641E+02  0.52752794031E+02 -0.52797345561E+03  0.55778045671E+03  0.17089889880E+03 0.  0.
         24    2    3    3    0    0 -0.92429014272E+01  0.91924604254E+02 -0.28408578943E+03  0.30907517987E+03  0.79291657585E+02 0.  0.
         -6    2    1    2    0  502 -0.19333317641E+02 -0.52752794031E+02  0.16029536946E+03  0.24113889575E+03  0.17116286725E+03 0.  0.
        -24    2    5    5    0    0  0.27950926360E+02 -0.55249633759E+02  0.37508985901E+02  0.10945510812E+03  0.82095799862E+02 0.  0.
          5    1    3    3  501    0  0.28576219068E+02 -0.39171810223E+02 -0.24388766618E+03  0.24870527684E+03  0.47000000000E+01 0. -1.
        -13    1    4    4    0    0 -0.21411811524E+02  0.42268085818E+02 -0.22928128219E+03  0.23412595566E+03  0.00000000000E+00 0.  1.
         14    1    4    4    0    0  0.12168910097E+02  0.49656518436E+02 -0.54804507245E+02  0.74949224215E+02  0.00000000000E+00 0. -1.
         -5    1    5    5    0  502 -0.47284244000E+02  0.24968397276E+01  0.12278638355E+03  0.13168378763E+03  0.47000000000E+01 0.  1.
         13    1    6    6    0    0  0.42811301735E+01 -0.13978128133E+01 -0.23957010821E+02  0.24376634791E+02  0.00000000000E+00 0. -1.
        -14    1    6    6    0    0  0.23669796186E+02 -0.53851820945E+02  0.61465996722E+02  0.85078473327E+02  0.00000000000E+00 0.  1.
</event>
<event>
12    1  0.1630640E-001  0.1746570E+03  0.7818608E-02  0.1173912E+00
         21   -1    0    0  503  502  0.00000000000E+00  0.00000000000E+00  0.80485672496E+02  0.80485672496E+02  0.00000000000E+00 0. -1.
         21   -1    0    0  501  503 -0.00000000000E+00 -0.00000000000E+00 -0.47328467329E+03  0.47328467329E+03  0.00000000000E+00 0. -1.
          6    2    1    2  501    0 -0.27329595044E+02 -0.13736331836E+02 -0.32307322050E+03  0.36570980252E+03  0.16861720042E+03 0.  0.
         24    2    3    3    0    0 -0.79052793588E+02  0.75517951070E+01 -0.18912574605E+03  0.22047726647E+03  0.80841223556E+02 0.  0.
         -6    2    1    2    0  502  0.27329595044E+02  0.13736331836E+02 -0.69725780287E+02  0.18806054326E+03  0.17195781435E+03 0.  0.
        -24    2    5    5    0    0 -0.89502921030E+01  0.25513302320E+02 -0.10595468553E+03  0.13524434480E+03  0.79583924826E+02 0.  0.
          5    1    3    3  501    0  0.51723198545E+02 -0.21288126943E+02 -0.13394747445E+03  0.14523253605E+03  0.47000000000E+01 0. -1.
        -11    1    4    4    0    0 -0.15146996583E+02 -0.32613753745E+02 -0.43382369452E+02  0.56348189129E+02  0.00000000000E+00 0.  1.
         12    1    4    4    0    0 -0.63905797005E+02  0.40165548852E+02 -0.14574337660E+03  0.16412907734E+03  0.00000000000E+00 0. -1.
         -5    1    5    5    0  502  0.36279887147E+02 -0.11776970484E+02  0.36228905241E+02  0.52816198463E+02  0.47000000000E+01 0.  1.
         11    1    6    6    0    0  0.34548018759E+02  0.38511977931E+01 -0.52895277888E+02  0.63295400682E+02  0.00000000000E+00 0. -1.
        -12    1    6    6    0    0 -0.43498310862E+02  0.21662104526E+02 -0.53059407640E+02  0.71948944117E+02  0.00000000000E+00 0.  1.
</event>
<event>
12    1  0.1630640E-001  0.2387596E+03  0.7818608E-02  0.1121331E+00
         21   -1    0    0  501  502  0.00000000000E+00  0.00000000000E+00  0.56494124154E+03  0.56494124154E+03  0.00000000000E+00 0. -1.
         21   -1    0    0  502  503 -0.00000000000E+00 -0.00000000000E+00 -0.21859712546E+03  0.21859712546E+03  0.00000000000E+00 0. -1.
         -6    2    1    2    0  503  0.10242020324E+03 -0.12254759552E+03 -0.11573278576E+03  0.26533039816E+03  0.17747769237E+03 0.  0.
        -24    2    3    3    0    0  0.28990253749E+02 -0.70688197733E+02  0.98776284141E+01  0.11079425103E+03  0.79627522923E+02 0.  0.
          6    2    1    2  501    0 -0.10242020324E+03  0.12254759552E+03  0.46207690184E+03  0.51820796885E+03  0.17180402952E+03 0.  0.
         24    2    5    5    0    0 -0.11854569014E+03  0.12890012772E+03  0.46155403648E+03  0.50024274185E+03  0.80884786012E+02 0.  0.
          5    1    5    5  501    0  0.16125486895E+02 -0.63525321940E+01  0.52286536313E+00  0.17965226997E+02  0.47000000000E+01 0. -1.
        -11    1    6    6    0    0 -0.14603199664E+02  0.10634441149E+01  0.12147086801E+03  0.12235013743E+03  0.00000000000E+00 0.  1.
         12    1    6    6    0    0 -0.10394249047E+03  0.12783668360E+03  0.34008316846E+03  0.37789260442E+03  0.00000000000E+00 0. -1.
         -5    1    3    3    0  503  0.73429949493E+02 -0.51859397790E+02 -0.12561041417E+03  0.15453614713E+03  0.47000000000E+01 0.  1.
         13    1    4    4    0    0  0.26018161491E+02 -0.45243783802E+02 -0.32349706261E+02  0.61403975403E+02  0.00000000000E+00 0. -1.
        -14    1    4    4    0    0  0.29720922584E+01 -0.25444413932E+02  0.42227334675E+02  0.49390275627E+02  0.00000000000E+00 0.  1.
</event>
<event>
12    1  0.1630640E-001  0.2008767E+03  0.7818608E-02  0.1149435E+00
         21   -1    0    0  503  502  0.00000000000E+00  0.00000000000E+00  0.17039778357E+04  0.17039778357E+04  0.00000000000E+00 0. -1.
         21   -1    0    0  501  503 -0.00000000000E+00 -0.00000000000E+00 -0.28851274213E+02  0.28851274213E+02  0.00000000000E+00 0. -1.
          6    2    1    2  501    0  0.91412451991E+02 -0.50952052651E+02  0.46580753295E+03  0.50727517955E+03  0.17146166331E+03 0.  0.
         24    2    3    3    0    0  0.44069835126E+02 -0.93736086733E+02  0.36369621331E+03  0.38677369183E+03  0.81180963231E+02 0.  0.
         -6    2    1    2    0  502 -0.91412451991E+02  0.50952052651E+02  0.12093190285E+04  0.12255539303E+04  0.16904903253E+03 0.  0.
        -24    2    5    5    0    0 -0.82239841431E+01  0.61866944116E+01  0.84753803893E+03  0.85161298192E+03  0.82571389953E+02 0.  0.
          5    1    3    3  501    0  0.47342616865E+02  0.42784034082E+02  0.10211131963E+03  0.12050148771E+03  0.47000000000E+01 0. -1.
        -11    1    4    4    0    0  0.22132456098E+02 -0.12642526725E+02  0.21065339373E+03  0.21218984751E+03  0.00000000000E+00 0.  1.
         12    1    4    4    0    0  0.21937379029E+02 -0.81093560008E+02  0.15304281958E+03  0.17458384432E+03  0.00000000000E+00 0. -1.
         -5    1    5    5    0  502 -0.83188467848E+02  0.44765358240E+02  0.36178098956E+03  0.37394094840E+03  0.47000000000E+01 0.  1.
         11    1    6    6    0    0 -0.25095579401E+02 -0.29698130555E+02  0.27934073647E+03  0.28203371095E+03  0.00000000000E+00 0. -1.
        -12    1    6    6    0    0  0.16871595258E+02  0.35884824966E+02  0.56819730246E+03  0.56957927097E+03  0.00000000000E+00 0.  1.
</event>
<event>
12    1  0.1630640E-001  0.1778468E+03  0.7818608E-02  0.1169972E+00
         21   -1    0    0  501  502  0.00000000000E+00  0.00000000000E+00  0.14120663327E+03  0.14120663327E+03  0.00000000000E+00 0. -1.
         21   -1    0    0  502  503 -0.00000000000E+00 -0.00000000000E+00 -0.37647615718E+03  0.37647615718E+03  0.00000000000E+00 0. -1.
         -6    2    1    2    0  503 -0.26528250004E+02  0.34814852239E+02 -0.28250025026E+03  0.33367131401E+03  0.17208815301E+03 0.  0.
        -24    2    3    3    0    0 -0.44823159843E+02  0.77643952166E+02 -0.14369996635E+03  0.18719044720E+03  0.79704982451E+02 0.  0.
          6    2    1    2  501    0  0.26528250004E+02 -0.34814852239E+02  0.47230726353E+02  0.18401147645E+03  0.17237650643E+03 0.  0.
         24    2    5    5    0    0 -0.23947635320E+02  0.34590538397E+02  0.20080809638E+02  0.93877513783E+02  0.81484686257E+02 0.  0.
          5    1    5    5  501    0  0.50475885323E+02 -0.69405390636E+02  0.27149916715E+02  0.90133962667E+02  0.47000000000E+01 0. -1.
        -13    1    6    6    0    0  0.22796821734E+02  0.35462362836E+02 -0.19318553125E+01  0.42201970618E+02  0.00000000000E+00 0.  1.
         14    1    6    6    0    0 -0.46744457054E+02 -0.87182443965E+00  0.22012664951E+02  0.51675543165E+02  0.00000000000E+00 0. -1.
         -5    1    3    3    0  503  0.18294909839E+02 -0.42829099927E+02 -0.13880028391E+03  0.14648086680E+03  0.47000000000E+01 0.  1.
         11    1    4    4    0    0 -0.79448815928E+01  0.37526273663E+02 -0.56464842070E+01  0.38771447516E+02  0.00000000000E+00 0. -1.
        -12    1    4    4    0    0 -0.36878278250E+02  0.40117678503E+02 -0.13805348215E+03  0.14841899969E+03  0.00000000000E+00 0.  1.
</event>
<event>
12    1  0.1630640E-001  0.2131322E+03  0.7818608E-02  0.1139515E+00
         21   -1    0    0  501  502  0.00000000000E+00  0.00000000000E+00  0.65218745521E+02  0.65218745521E+02  0.00000000000E+00 0.  1.
         21   -1    0    0  502  503 -0.00000000000E+00 -0.00000000000E+00 -0.82213316704E+03  0.82213316704E+03  0.00000000000E+00 0.  1.
         -6    2    1    2    0  503  0.11414461610E+03  0.50604888434E+02 -0.19886003520E+03  0.28998265466E+03  0.17016103634E+03 0.  0.
        -24    2    3    3    0    0  0.10913308866E+03 -0.10720131449E+01 -0.18697518978E+03  0.23651343814E+03  0.95224495675E+02 0.  0.
          6    2    1    2  501    0 -0.11414461610E+03 -0.50604888434E+02 -0.55805438632E+03  0.59736925790E+03  0.17272951130E+03 0.  0.
         24    2    5    5    0    0 -0.10825089713E+03 -0.91172579820E+02 -0.37324270596E+03  0.40800738025E+03  0.84434641874E+02 0.  0.
          5    1    5    5  501    0 -0.58937189662E+01  0.40567691386E+02 -0.18481168036E+03  0.18936187765E+03  0.47000000000E+01 0. -1.
        -11    1    6    6    0    0 -0.99682745850E+02 -0.53407270078E+02 -0.19335020391E+03  0.22399394561E+03  0.00000000000E+00 0.  1.
         12    1    6    6    0    0 -0.85681512824E+01 -0.37765309743E+02 -0.17989250204E+03  0.18401343464E+03  0.00000000000E+00 0. -1.
         -5    1    3    3    0  503  0.50115274341E+01  0.51676901579E+02 -0.11884845419E+02  0.53469216515E+02  0.47000000000E+01 0.  1.
         11    1    4    4    0    0  0.33023755360E+02 -0.38501061983E+02 -0.32371384668E+02  0.60173139666E+02  0.00000000000E+00 0. -1.
        -12    1    4    4    0    0  0.76109333305E+02  0.37429048838E+02 -0.15460380511E+03  0.17634029848E+03  0.00000000000E+00 0.  1.
</event>
<event>
12    1  0.1630640E-001  0.1787160E+03  0.7818608E-02  0.1169477E+00
         21   -1    0    0  503  502  0.00000000000E+00  0.00000000000E+00  0.30557616952E+03  0.30557616952E+03  0.00000000000E+00 0. -1.
         21   -1    0    0  501  503 -0.00000000000E+00 -0.00000000000E+00 -0.52111571835E+03  0.52111571835E+03  0.00000000000E+00 0. -1.
          6    2    1    2  501    0 -0.26059796314E+02  0.39632668740E+02 -0.47768842070E+03  0.50942003822E+03  0.17050714544E+03 0.  0.
         24    2    3    3    0    0 -0.75353271366E+02 -0.16667227512E+01 -0.33809274964E+03  0.35565226591E+03  0.80628366085E+02 0.  0.
         -6    2    1    2    0  502  0.26059796314E+02 -0.39632668740E+02  0.26214887187E+03  0.31727184966E+03  0.17230651220E+03 0.  0.
        -24    2    5    5    0    0  0.12995928138E+02  0.28497067027E+02  0.22075694437E+03  0.23635394552E+03  0.78412894991E+02 0.  0.
          5    1    3    3  501    0  0.49293475052E+02  0.41299391491E+02 -0.13959567107E+03  0.15376777231E+03  0.47000000000E+01 0. -1.
        -11    1    4    4    0    0 -0.19019906443E+02 -0.35672129468E+02 -0.17861737019E+03  0.18313498463E+03  0.00000000000E+00 0.  1.
         12    1    4    4    0    0 -0.56333364923E+02  0.34005406717E+02 -0.15947537945E+03  0.17251728128E+03  0.00000000000E+00 0. -1.
         -5    1    5    5    0  502  0.13063868176E+02 -0.68129735767E+02  0.41391927506E+02  0.80917904138E+02  0.47000000000E+01 0.  1.
         11    1    6    6    0    0 -0.20310457849E+01 -0.36622443817E+01  0.18801761852E+03  0.18806424981E+03  0.00000000000E+00 0. -1.
        -12    1    6    6    0    0  0.15026973923E+02  0.32159311409E+02  0.32739325845E+02  0.48289695716E+02  0.00000000000E+00 0.  1.
</event>
<event>
12    1  0.1630640E-001  0.1845043E+03  0.7818608E-02  0.1163564E+00
         21   -1    0    0  503  502  0.00000000000E+00  0.00000000000E+00  0.17551864893E+03  0.17551864893E+03  0.00000000000E+00 0.  1.
         21   -1    0    0  501  503 -0.00000000000E+00 -0.00000000000E+00 -0.60587591511E+03  0.60587591511E+03  0.00000000000E+00 0.  1.
          6    2    1    2  501    0 -0.65881381514E+01  0.66458756989E+02 -0.53737669985E+03  0.56809899713E+03  0.17176315979E+03 0.  0.
         24    2    3    3    0    0  0.36978939257E+02 -0.49288738397E+01 -0.18357309182E+03  0.20451493928E+03  0.82070363736E+02 0.  0.
         -6    2    1    2    0  502  0.65881381514E+01 -0.66458756989E+02  0.10701943366E+03  0.21329556691E+03  0.17199322584E+03 0.  0.
        -24    2    5    5    0    0  0.22282502318E+02 -0.31105203821E+02 -0.11135257347E+02  0.88881709977E+02  0.79447597811E+02 0.  0.
          5    1    3    3  501    0 -0.43567077408E+02  0.71387630829E+02 -0.35380360803E+03  0.36358405785E+03  0.47000000000E+01 0. -1.
        -11    1    4    4    0    0  0.13096873445E+02 -0.40265448366E+02 -0.57393376957E+02  0.71322045292E+02  0.00000000000E+00 0.  1.
         12    1    4    4    0    0  0.23882065811E+02  0.35336574527E+02 -0.12617971486E+03  0.13319289399E+03  0.00000000000E+00 0. -1.
         -5    1    5    5    0  502 -0.15694364167E+02 -0.35353553169E+02  0.11815469101E+03  0.12441385693E+03  0.47000000000E+01 0.  1.
         11    1    6    6    0    0  0.52730403519E+01  0.26625685286E+02  0.22191416187E+01  0.27233374029E+02  0.00000000000E+00 0. -1.
        -12    1    6    6    0    0  0.17009461966E+02 -0.57730889107E+02 -0.13354398966E+02  0.61648335948E+02  0.00000000000E+00 0.  1.
</event>
<event>
12    1  0.1630640E-001  0.1951626E+03  0.7818608E-02  0.1154383E+00
         21   -1    0    0  503  502  0.00000000000E+00  0.00000000000E+00  0.52477036907E+03  0.52477036907E+03  0.00000000000E+00 0. -1.
         21   -1    0    0  501  503 -0.00000000000E+00 -0.00000000000E+00 -0.75332574899E+02  0.75332574899E+02  0.00000000000E+00 0.  1.
          6    2    1    2  501    0 -0.40936050326E+02 -0.80284028019E+02  0.28899486862E+03  0.34745618473E+03  0.17054759114E+03 0.  0.
         24    2    3    3    0    0 -0.21330222924E+01 -0.52702894724E+02  0.28349124579E+03  0.29930253728E+03  0.80203350835E+02 0.  0.
         -6    2    1    2    0  502  0.40936050326E+02  0.80284028019E+02  0.16044292554E+03  0.25264675923E+03  0.17311027475E+03 0.  0.
        -24    2    5    5    0    0 -0.46886757937E+02  0.63258684120E+02  0.10816167675E+03  0.14892536818E+03  0.65420087012E+02 0.  0.
          5    1    3    3  501    0 -0.38803028034E+02 -0.27581133295E+02  0.55036228312E+01  0.48153647450E+02  0.47000000000E+01 0. -1.
        -11    1    4    4    0    0 -0.47544881431E+01  0.23476174132E+01 -0.39584677170E+01  0.66170939006E+01  0.00000000000E+00 0.  1.
         12    1    4    4    0    0  0.26214658507E+01 -0.55050512137E+02  0.28744971351E+03  0.29268544338E+03  0.00000000000E+00 0. -1.
         -5    1    5    5    0  502  0.87822808264E+02  0.17025343899E+02  0.52281248793E+02  0.10372139105E+03  0.47000000000E+01 0.  1.
         11    1    6    6    0    0 -0.54124183831E+02  0.36314362371E+02  0.43114404049E+02  0.78147373764E+02  0.00000000000E+00 0. -1.
        -12    1    6    6    0    0  0.72374258935E+01  0.26944321749E+02  0.65047272701E+02  0.70777994419E+02  0.00000000000E+00 0.  1.
</event>
<event>
12    1  0.1630640E-001  0.2273933E+03  0.7818608E-02  0.1128523E+00
         21   -1    0    0  503  502  0.00000000000E+00  0.00000000000E+00  0.57024834641E+03  0.57024834641E+03  0.00000000000E+00 0. -1.
         21   -1    0    0  501  503 -0.00000000000E+00 -0.00000000000E+00 -0.90602002405E+02  0.90602002405E+02  0.00000000000E+00 0. -1.
          6    2    1    2  501    0  0.15180608107E+03  0.94650261431E+01  0.23724262928E+03  0.32848419205E+03  0.16876944720E+03 0.  0.
         24    2    3    3    0    0  0.91875534084E+02  0.35803177121E+02  0.60726572953E+02  0.14016165808E+03  0.78959435653E+02 0.  0.
         -6    2    1    2    0  502 -0.15180608107E+03 -0.94650261431E+01  0.24240371473E+03  0.33236615677E+03  0.16903558288E+03 0.  0.
        -24    2    5    5    0    0 -0.14257454661E+03  0.59161300128E+01  0.10766079434E+03  0.19635312141E+03  0.81247767434E+02 0.  0.
          5    1    3    3  501    0  0.59930546988E+02 -0.26338150978E+02  0.17651605633E+03  0.18832253397E+03  0.47000000000E+01 0. -1.
        -13    1    4    4    0    0  0.28161524497E+02  0.36252478872E+02 -0.78300230882E+01  0.46568475903E+02  0.00000000000E+00 0.  1.
         14    1    4    4    0    0  0.63714009587E+02 -0.44930175090E+00  0.68556596042E+02  0.93593182180E+02  0.00000000000E+00 0. -1.
         -5    1    5    5    0  502 -0.92315344608E+01 -0.15381156156E+02  0.13474292038E+03  0.13601303535E+03  0.47000000000E+01 0.  1.
         11    1    6    6    0    0 -0.13878424270E+03 -0.17867198198E+02  0.95136707389E+02  0.16920784818E+03  0.00000000000E+00 0. -1.
        -12    1    6    6    0    0 -0.37903039081E+01  0.23783328210E+02  0.12524086956E+02  0.27145273227E+02  0.00000000000E+00 0.  1.
</event>
<event>
12    1  0.1630640E-001  0.2130574E+03  0.7818608E-02  0.1140897E+00
         21   -1    0    0  503  502  0.00000000000E+00  0.00000000000E+00  0.54926234746E+03  0.54926234746E+03  0.00000000000E+00 0. -1.
         21   -1    0    0  501  503 -0.00000000000E+00 -0.00000000000E+00 -0.12138625150E+03  0.12138625150E+03  0.00000000000E+00 0.  1.
          6    2    1    2  501    0 -0.97042028708E+02  0.55761239634E+02  0.19439760392E+02  0.21394243215E+03  0.18129255034E+03 0.  0.
         24    2    3    3    0    0 -0.38824296884E+02  0.93573681396E+02  0.49364999999E+02  0.13820145898E+03  0.79996125915E+02 0.  0.
         -6    2    1    2    0  502  0.97042028708E+02 -0.55761239634E+02  0.40843633556E+03  0.45670616680E+03  0.17097897943E+03 0.  0.
        -24    2    5    5    0    0  0.16853162974E+02  0.30756382586E+02  0.16471315138E+03  0.18589510047E+03  0.78718371223E+02 0.  0.
          5    1    3    3  501    0 -0.58217731824E+02 -0.37812441762E+02 -0.29925239607E+02  0.75740973167E+02  0.47000000000E+01 0. -1.
        -11    1    4    4    0    0 -0.75229541478E+01  0.29900352530E+02 -0.21760628724E+02  0.37737923671E+02  0.00000000000E+00 0.  1.
         12    1    4    4    0    0 -0.31301342736E+02  0.63673328867E+02  0.71125628723E+02  0.10046353531E+03  0.00000000000E+00 0. -1.
         -5    1    5    5    0  502  0.80188865734E+02 -0.86517622220E+02  0.24372318418E+03  0.27081106634E+03  0.47000000000E+01 0.  1.
         11    1    6    6    0    0  0.45834189678E+02  0.18013243833E+02  0.12947294977E+03  0.13852254192E+03  0.00000000000E+00 0. -1.
        -12    1    6    6    0    0 -0.28981026704E+02  0.12743138753E+02  0.35240201612E+02  0.47372558552E+02  0.00000000000E+00 0.  1.
</event>
<event>
12    1  0.1630640E-001  0.2032457E+03  0.7818608E-02  0.1147173E+00
         21   -1    0    0  503  502  0.00000000000E+00  0.00000000000E+00  0.45951957151E+03  0.45951957151E+03  0.00000000000E+00 0.  1.
         21   -1    0    0  501  503 -0.00000000000E+00 -0.00000000000E+00 -0.24016871034E+03  0.24016871034E+03  0.00000000000E+00 0. -1.
          6    2    1    2  501    0  0.89080819477E+02  0.57780525054E+02 -0.16726682679E+03  0.26322423293E+03  0.17330557978E+03 0.  0.
         24    2    3    3    0    0  0.10782432402E+03  0.85052814190E+02 -0.10202414977E+03  0.18991806933E+03  0.82461384095E+02 0.  0.
         -6    2    1    2    0  502 -0.89080819477E+02 -0.57780525054E+02  0.38661768796E+03  0.43646404892E+03  0.17249245745E+03 0.  0.
        -24    2    5    5    0    0  0.13837955001E+02 -0.57788018476E+02  0.18512646381E+03  0.21016098308E+03  0.79780242727E+02 0.  0.
          5    1    3    3  501    0 -0.18743504547E+02 -0.27272289135E+02 -0.65242677022E+02  0.73306163604E+02  0.47000000000E+01 0. -1.
        -13    1    4    4    0    0  0.78743542222E+02  0.57289742754E+02 -0.11207993495E+03  0.14847414551E+03  0.00000000000E+00 0.  1.
         14    1    4    4    0    0  0.29080781802E+02  0.27763071436E+02  0.10055785177E+02  0.41443923817E+02  0.00000000000E+00 0. -1.
         -5    1    5    5    0  502 -0.10291877448E+03  0.74934217130E-02  0.20149122416E+03  0.22630306584E+03  0.47000000000E+01 0.  1.
         11    1    6    6    0    0  0.13133596540E+02  0.97141670541E+01  0.39352795497E+01  0.16803059982E+02  0.00000000000E+00 0. -1.
        -12    1    6    6    0    0  0.70435846097E+00 -0.67502185530E+02  0.18119118426E+03  0.19335792310E+03  0.00000000000E+00 0.  1.
</event>
<event>
12    1  0.1630640E-001  0.1833386E+03  0.7818608E-02  0.1164886E+00
         21   -1    0    0  503  502  0.00000000000E+00  0.00000000000E+00  0.57595145156E+03  0.57595145156E+03  0.00000000000E+00 0. -1.
         21   -1    0    0  501  503 -0.00000000000E+00 -0.00000000000E+00 -0.71455044506E+02  0.71455044506E+02  0.00000000000E+00 0. -1.
          6    2    1    2  501    0  0.21702757498E+02 -0.58858829693E+02  0.11108584823E+03  0.21337321134E+03  0.17103417824E+03 0.  0.
         24    2    3    3    0    0 -0.17549512406E+02 -0.49136708065E+01 -0.10140107305E+01  0.82838582842E+02  0.80802679677E+02 0.  0.
         -6    2    1    2    0  502 -0.21702757498E+02  0.58858829693E+02  0.39341055883E+03  0.43403328472E+03  0.17227203178E+03 0.  0.
        -24    2    5    5    0    0  0.36737764501E+02  0.78627117436E+02  0.24471172233E+03  0.27297579875E+03  0.84261929251E+02 0.  0.
          5    1    3    3  501    0  0.39252269904E+02 -0.53945158887E+02  0.11209985896E+03  0.13053462850E+03  0.47000000000E+01 0. -1.
        -13    1    4    4    0    0 -0.12969392757E+02  0.22207895363E+02  0.31230219647E+02  0.40456425746E+02  0.00000000000E+00 0.  1.
         14    1    4    4    0    0 -0.45801196494E+01 -0.27121566170E+02 -0.32244230377E+02  0.42382157096E+02  0.00000000000E+00 0. -1.
         -5    1    5    5    0  502 -0.58440521999E+02 -0.19768287742E+02  0.14869883649E+03  0.16105748597E+03  0.47000000000E+01 0.  1.
         13    1    6    6    0    0 -0.16642846398E+02  0.57959360027E+02  0.93151561587E+02  0.11096614428E+03  0.00000000000E+00 0. -1.
        -14    1    6    6    0    0  0.53380610899E+02  0.20667757409E+02  0.15156016075E+03  0.16200965447E+03  0.00000000000E+00 0.  1.
</event>
<event>
12    1  0.1630640E-001  0.2278013E+03  0.7818608E-02  0.1128488E+00
         21   -1    0    0  501  502  0.00000000000E+00  0.00000000000E+00  0.32791107015E+02  0.32791107015E+02  0.00000000000E+00 0. -1.
         21   -1    0    0  502  503 -0.00000000000E+00 -0.00000000000E+00 -0.29252253862E+04  0.29252253862E+04  0.00000000000E+00 0.  1.
         -6    2    1    2    0  503 -0.95286334234E+02 -0.11200023005E+03 -0.24552299567E+04  0.24657752480E+04  0.17398246005E+03 0.  0.
        -24    2    3    3    0    0 -0.47298788315E+02 -0.13564510209E+02 -0.59218549901E+03  0.59950915315E+03  0.79412770747E+02 0.  0.
          6    2    1    2  501    0  0.95286334234E+02  0.11200023005E+03 -0.43720432252E+03  0.49224124524E+03  0.17184378621E+03 0.  0.
         24    2    5    5    0    0  0.88488107136E+02  0.11738603796E+03 -0.44765992083E+03  0.47786653290E+03  0.79670518596E+02 0.  0.
          5    1    5    5  501    0  0.67982270978E+01 -0.53858079077E+01  0.10455598318E+02  0.14374712334E+02  0.47000000000E+01 0. -1.
        -13    1    6    6    0    0  0.47013112760E+02  0.56750726345E+01 -0.14764501340E+03  0.15505318185E+03  0.00000000000E+00 0.  1.
         14    1    6    6    0    0  0.41474994376E+02  0.11171096533E+03 -0.30001490744E+03  0.32281335105E+03  0.00000000000E+00 0. -1.
         -5    1    3    3    0  503 -0.47987545919E+02 -0.98435719843E+02 -0.18630444577E+04  0.18662660949E+04  0.47000000000E+01 0.  1.
         13    1    4    4    0    0 -0.43632074968E+01 -0.29232215543E+02 -0.79943393305E+02  0.85232072240E+02  0.00000000000E+00 0. -1.
        -14    1    4    4    0    0 -0.42935580818E+02  0.15667705334E+02 -0.51224210570E+03  0.51427708091E+03  0.00000000000E+00 0.  1.
</event>
<event>
12    1  0.1630640E-001  0.2691970E+03  0.7818608E-02  0.1101778E+00
         21   -1    0    0  503  502  0.00000000000E+00  0.00000000000E+00  0.12457537620E+04  0.12457537620E+04  0.00000000000E+00 0. -1.
         21   -1    0    0  501  503 -0.00000000000E+00 -0.00000000000E+00 -0.60141581827E+02  0.60141581827E+02  0.00000000000E+00 0.  1.
          6    2    1    2  501    0 -0.22550474327E+02 -0.20576011068E+03  0.71241793566E+03  0.76148759621E+03  0.17169244915E+03 0.  0.
         24    2    3    3    0    0  0.25945111387E+02 -0.85113368144E+02  0.20158190333E+03  0.23434150618E+03  0.79769941224E+02 0.  0.
         -6    2    1    2    0  502  0.22550474327E+02  0.20576011068E+03  0.47319424454E+03  0.54440774764E+03  0.17210826705E+03 0.  0.
        -24    2    5    5    0    0 -0.14372490206E+02  0.51986049461E+02  0.27123860226E+03  0.28785767716E+03  0.79890832599E+02 0.  0.
          5    1    3    3  501    0 -0.48495585714E+02 -0.12064674254E+03  0.51083603232E+03  0.52714609003E+03  0.47000000000E+01 0. -1.
        -11    1    4    4    0    0  0.31032298988E+01 -0.92052967828E+02  0.17983037858E+03  0.20204540079E+03  0.00000000000E+00 0.  1.
         12    1    4    4    0    0  0.22841881488E+02  0.69395996840E+01  0.21751524755E+02  0.32296105382E+02  0.00000000000E+00 0. -1.
         -5    1    5    5    0  502  0.36922964533E+02  0.15377406122E+03  0.20195564228E+03  0.25655007048E+03  0.47000000000E+01 0.  1.
         11    1    6    6    0    0 -0.42069421320E+02  0.52195355465E+02  0.16576125160E+03  0.17880431727E+03  0.00000000000E+00 0. -1.
        -12    1    6    6    0    0  0.27696931114E+02 -0.20930600438E+00  0.10547735066E+03  0.10905335989E+03  0.00000000000E+00 0.  1.
</event>
<event>
12    1  0.1630640E-001  0.1748817E+03  0.7818608E-02  0.1173844E+00
         21   -1    0    0  503  502  0.00000000000E+00  0.00000000000E+00  0.50560181566E+02  0.50560181566E+02  0.00000000000E+00 0.  1.
         21   -1    0    0  501  503 -0.00000000000E+00 -0.00000000000E+00 -0.11442690517E+04  0.11442690517E+04  0.00000000000E+00 0.  1.
          6    2    1    2  501    0  0.13618491525E+02 -0.25226403018E+02 -0.95888923159E+03  0.97401272439E+03  0.16855383147E+03 0.  0.
         24    2    3    3    0    0  0.66122362512E+02 -0.43405683403E+02 -0.72169808156E+03  0.73035543565E+03  0.79465220604E+02 0.  0.
         -6    2    1    2    0  502 -0.13618491525E+02  0.25226403018E+02 -0.13481963853E+03  0.22081650885E+03  0.17251597297E+03 0.  0.
        -24    2    5    5    0    0 -0.64359686268E+02  0.31325239924E+02 -0.43518042741E+02  0.11607904637E+03  0.80355989749E+02 0.  0.
          5    1    3    3  501    0 -0.52503870987E+02  0.18179280385E+02 -0.23719115003E+03  0.24365728874E+03  0.47000000000E+01 0. -1.
        -13    1    4    4    0    0  0.35549506711E+02 -0.64851907737E+02 -0.43617586055E+03  0.44240130955E+03  0.00000000000E+00 0.  1.
         14    1    4    4    0    0  0.30572855801E+02  0.21446224334E+02 -0.28552222100E+03  0.28795412610E+03  0.00000000000E+00 0. -1.
         -5    1    5    5    0  502  0.50741194743E+02 -0.60988369054E+01 -0.91301595786E+02  0.10473746249E+03  0.47000000000E+01 0.  1.
         13    1    6    6    0    0  0.16240339376E+02 -0.75276885081E+01 -0.10192938191E+02  0.20598803516E+02  0.00000000000E+00 0. -1.
        -14    1    6    6    0    0 -0.80600025644E+02  0.38852928432E+02 -0.33325104550E+02  0.95480242851E+02  0.00000000000E+00 0.  1.
</event>
<event>
12    1  0.1630640E-001  0.2013212E+03  0.7818608E-02  0.1148997E+00
         21   -1    0    0  501  502  0.00000000000E+00  0.00000000000E+00  0.19899145765E+03  0.19899145765E+03  0.00000000000E+00 0.  1.
         21   -1    0    0  502  503 -0.00000000000E+00 -0.00000000000E+00 -0.22744285845E+03  0.22744285845E+03  0.00000000000E+00 0.  1.
         -6    2    1    2    0  503  0.66040203074E+02  0.73878685201E+02 -0.85721260834E+02  0.21881125075E+03  0.17524514357E+03 0.  0.
        -24    2    3    3    0    0  0.11212023889E+03  0.72328710243E+02 -0.81822074320E+02  0.17230247976E+03  0.72047917328E+02 0.  0.
          6    2    1    2  501    0 -0.66040203074E+02 -0.73878685201E+02  0.57269860035E+02  0.20762306535E+03  0.17322855379E+03 0.  0.
         24    2    5    5    0    0 -0.80843022366E+00 -0.55275568301E+01 -0.23136056687E+02  0.83468877413E+02  0.80003555756E+02 0.  0.
          5    1    5    5  501    0 -0.65231772851E+02 -0.68351128371E+02  0.80405916722E+02  0.12415418794E+03  0.47000000000E+01 0. -1.
        -11    1    6    6    0    0  0.58729372991E+01  0.36333882763E+02 -0.17331705232E+02  0.40682065279E+02  0.00000000000E+00 0.  1.
         12    1    6    6    0    0 -0.66813675228E+01 -0.41861439593E+02 -0.58043514552E+01  0.42786812134E+02  0.00000000000E+00 0. -1.
         -5    1    3    3    0  503 -0.46080035816E+02  0.15499749580E+01 -0.38991865144E+01  0.46508770986E+02  0.47000000000E+01 0.  1.
         13    1    4    4    0    0  0.22229931422E+02  0.50729361423E+02 -0.49747369286E+02  0.74447556792E+02  0.00000000000E+00 0. -1.
        -14    1    4    4    0    0  0.89890307468E+02  0.21599348820E+02 -0.32074705034E+02  0.97854922968E+02  0.00000000000E+00 0.  1.
</event>
<event>
12    1  0.1630640E-001  0.1992489E+03  0.7818608E-02  0.1150635E+00
         21   -1    0    0  503  502  0.00000000000E+00  0.00000000000E+00  0.10628405214E+03  0.10628405214E+03  0.00000000000E+00 0. -1.
         21   -1    0    0  501  503 -0.00000000000E+00 -0.00000000000E+00 -0.37205051946E+03  0.37205051946E+03  0.00000000000E+00 0. -1.
          6    2    1    2  501    0  0.99189995242E+02 -0.18697788577E+02 -0.14369736826E+03  0.24466603746E+03  0.17036511905E+03 0.  0.
         24    2    3    3    0    0  0.20257267242E+02  0.43205591755E+02 -0.92848121013E+02  0.13210432109E+03  0.80954913628E+02 0.  0.
         -6    2    1    2    0  502 -0.99189995242E+02  0.18697788577E+02 -0.12206909906E+03  0.23366853414E+03  0.17179015236E+03 0.  0.
        -24    2    5    5    0    0 -0.28373272155E+02  0.51858186618E+02 -0.17623239811E+02  0.10310955214E+03  0.82623768182E+02 0.  0.
          5    1    3    3  501    0  0.78932728001E+02 -0.61903380333E+02 -0.50849247246E+02  0.11256171637E+03  0.47000000000E+01 0. -1.
        -13    1    4    4    0    0 -0.19489389490E+02  0.21585860891E+02 -0.29544086889E+00  0.29083895516E+02  0.00000000000E+00 0.  1.
         14    1    4    4    0    0  0.39746656732E+02  0.21619730864E+02 -0.92552680144E+02  0.10302042558E+03  0.00000000000E+00 0. -1.
         -5    1    5    5    0  502 -0.70816723087E+02 -0.33160398041E+02 -0.10444585925E+03  0.13055898200E+03  0.47000000000E+01 0.  1.
         13    1    6    6    0    0 -0.43693065157E+02  0.64004932290E+02 -0.10885852582E+01  0.77504195487E+02  0.00000000000E+00 0. -1.
        -14    1    6    6    0    0  0.15319793002E+02 -0.12146745672E+02 -0.16534654553E+02  0.25605356651E+02  0.00000000000E+00 0.  1.
</event>
<event>
12    1  0.1630640E-001  0.1738392E+03  0.7818608E-02  0.1174720E+00
         21   -1    0    0  503  502  0.00000000000E+00  0.00000000000E+00  0.19237957236E+03  0.19237957236E+03  0.00000000000E+00 0.  1.
         21   -1    0    0  501  503 -0.00000000000E+00 -0.00000000000E+00 -0.29989081335E+03  0.29989081335E+03  0.00000000000E+00 0.  1.
          6    2    1    2  501    0  0.17105662147E+01 -0.10856624588E+02 -0.22504727852E+03  0.28242568465E+03  0.17028563488E+03 0.  0.
         24    2    3    3    0    0 -0.48062201845E+02  0.60775243756E+01 -0.66747401667E+02  0.11555736874E+03  0.80940584954E+02 0.  0.
         -6    2    1    2    0  502 -0.17105662147E+01  0.10856624588E+02  0.11753603753E+03  0.20984470106E+03  0.17349145832E+03 0.  0.
        -24    2    5    5    0    0  0.16073808443E+02  0.31245596565E+02 -0.21450879206E+01  0.87053594100E+02  0.79618290744E+02 0.  0.
          5    1    3    3  501    0  0.49772768059E+02 -0.16934148964E+02 -0.15829987685E+03  0.16686831591E+03  0.47000000000E+01 0. -1.
        -13    1    4    4    0    0  0.69660259531E+01 -0.25373837867E+02 -0.44520744140E+01  0.26686665814E+02  0.00000000000E+00 0.  1.
         14    1    4    4    0    0 -0.55028227798E+02  0.31451362243E+02 -0.62295327253E+02  0.88870702929E+02  0.00000000000E+00 0. -1.
         -5    1    5    5    0  502 -0.17784374658E+02 -0.20388971976E+02  0.11968112545E+03  0.12279110696E+03  0.47000000000E+01 0.  1.
         11    1    6    6    0    0 -0.65565867150E+01 -0.23246561396E+02 -0.12422361254E+02  0.27160753031E+02  0.00000000000E+00 0. -1.
        -12    1    6    6    0    0  0.22630395158E+02  0.54492157960E+02  0.10277273333E+02  0.59892841069E+02  0.00000000000E+00 0.  1.
</event>
<event>
12    1  0.1630640E-001  0.2283950E+03  0.7818608E-02  0.1129913E+00
         21   -1    0    0  501  502  0.00000000000E+00  0.00000000000E+00  0.58036116549E+03  0.58036116549E+03  0.00000000000E+00 0. -1.
         21   -1    0    0  502  503 -0.00000000000E+00 -0.00000000000E+00 -0.23964433634E+03  0.23964433634E+03  0.00000000000E+00 0.  1.
         -6    2    1    2    0  503 -0.14425647039E+03 -0.39403360153E+02 -0.16019978830E+03  0.26947691796E+03  0.15681608049E+03 0.  0.
        -24    2    3    3    0    0 -0.45819961088E+02 -0.29876161845E+01 -0.72837311830E+02  0.13283817870E+03  0.10115489627E+03 0.  0.
          6    2    1    2  501    0  0.14425647039E+03  0.39403360153E+02  0.50091661744E+03  0.55052858387E+03  0.17263171780E+03 0.  0.
         24    2    5    5    0    0  0.23024923433E+01  0.13795012419E+02  0.22755607540E+03  0.24140919707E+03  0.79379022013E+02 0.  0.
          5    1    5    5  501    0  0.14195397804E+03  0.25608347733E+02  0.27336054204E+03  0.30911938681E+03  0.47000000000E+01 0. -1.
        -11    1    6    6    0    0  0.17156656581E+02  0.43420004705E+02  0.14917276865E+03  0.15630790953E+03  0.00000000000E+00 0.  1.
         12    1    6    6    0    0 -0.14854164238E+02 -0.29624992286E+02  0.78383306754E+02  0.85101287539E+02  0.00000000000E+00 0. -1.
         -5    1    3    3    0  503 -0.98436509300E+02 -0.36415743968E+02 -0.87362476472E+02  0.13663873926E+03  0.47000000000E+01 0.  1.
         11    1    4    4    0    0 -0.57895585358E+02 -0.35560805686E+02 -0.22296435400E+02  0.71509445086E+02  0.00000000000E+00 0. -1.
        -12    1    4    4    0    0  0.12075624271E+02  0.32573189502E+02 -0.50540876430E+02  0.61328733610E+02  0.00000000000E+00 0.  1.
</event>
<event>
12    1  0.1630640E-001  0.1809319E+03  0.7818608E-02  0.1168319E+00
         21   -1    0    0  503  502  0.00000000000E+00  0.00000000000E+00  0.35846945969E+02  0.35846945969E+02  0.00000000000E+00 0. -1.
         21   -1    0    0  501  503 -0.00000000000E+00 -0.00000000000E+00 -0.10318463920E+04  0.10318463920E+04  0.00000000000E+00 0. -1.
          6    2    1    2  501    0  0.30247028558E+02 -0.58443504891E+00 -0.70681700178E+03  0.72960716426E+03  0.17838474103E+03 0.  0.
         24    2    3    3    0    0  0.20559390804E+02 -0.27278837410E+02 -0.16326778094E+03  0.18529632759E+03  0.80694096464E+02 0.  0.
         -6    2    1    2    0  502 -0.30247028558E+02  0.58443504891E+00 -0.28918244424E+03  0.33808617370E+03  0.17251246473E+03 0.  0.
        -24    2    5    5    0    0 -0.22567738674E+02  0.86720176700E+01 -0.45399096793E+02  0.94002599941E+02  0.78682298433E+02 0.  0.
          5    1    3    3  501    0  0.96876377542E+01  0.26694402361E+02 -0.54354922084E+03  0.54431083667E+03  0.47000000000E+01 0. -1.
        -11    1    4    4    0    0 -0.17767384569E+02 -0.42668359478E+02 -0.81675319277E+02  0.93846292596E+02  0.00000000000E+00 0.  1.
         12    1    4    4    0    0  0.38326775373E+02  0.15389522069E+02 -0.81592461665E+02  0.91450034995E+02  0.00000000000E+00 0. -1.
         -5    1    5    5    0  502 -0.76792898842E+01 -0.80875826211E+01 -0.24378334745E+03  0.24408357376E+03  0.47000000000E+01 0.  1.
         11    1    6    6    0    0 -0.35127987128E+02 -0.12854449072E+02 -0.55650601501E+02  0.67053723148E+02  0.00000000000E+00 0. -1.
        -12    1    6    6    0    0  0.12560248454E+02  0.21526466742E+02  0.10251504708E+02  0.26948876793E+02  0.00000000000E+00 0.  1.
</event>
<event>
12    1  0.1630640E-001  0.2233876E+03  0.7818608E-02  0.1131528E+00
         21   -1    0    0  501  502  0.00000000000E+00  0.00000000000E+00  0.54265942652E+03  0.54265942652E+03  0.00000000000E+00 0. -1.
         21   -1    0    0  502  503 -0.00000000000E+00 -0.00000000000E+00 -0.94461170831E+02  0.94461170831E+02  0.00000000000E+00 0.  1.
         -6    2    1    2    0  503  0.10997895332E+03 -0.89330424225E+02  0.27885228042E+03  0.35679925148E+03  0.17167357598E+03 0.  0.
        -24    2    3    3    0    0  0.70639189211E+02 -0.97029983282E+02  0.28162848519E+03  0.31634313250E+03  0.79709855735E+02 0.  0.
          6    2    1    2  501    0 -0.10997895332E+03  0.89330424225E+02  0.16934597527E+03  0.28032134588E+03  0.17270409014E+03 0.  0.
         24    2    5    5    0    0 -0.25805820458E+02  0.96983183533E+02  0.14247467734E+03  0.19150784649E+03  0.79401154447E+02 0.  0.
          5    1    5    5  501    0 -0.84173132862E+02 -0.76527593084E+01  0.26871297927E+02  0.88813499386E+02  0.47000000000E+01 0. -1.
        -11    1    6    6    0    0 -0.28760935432E+01  0.68300722533E+02  0.32749452059E+02  0.75800971121E+02  0.00000000000E+00 0.  1.
         12    1    6    6    0    0 -0.22929726915E+02  0.28682461000E+02  0.10972522528E+03  0.11570687537E+03  0.00000000000E+00 0. -1.
         -5    1    3    3    0  503  0.39339764109E+02  0.76995590571E+01 -0.27762047646E+01  0.40456118978E+02  0.47000000000E+01 0.  1.
         13    1    4    4    0    0  0.23374230589E+02 -0.43352322487E+02  0.20778211986E+03  0.21353966342E+03  0.00000000000E+00 0. -1.
        -14    1    4    4    0    0  0.47264958622E+02 -0.53677660795E+02  0.73846365326E+02  0.10280346907E+03  0.00000000000E+00 0.  1.
</event>
<event>
12    1  0.1630640E-001  0.2286207E+03  0.7818608E-02  0.1127812E+00
         21   -1    0    0  503  502  0.00000000000E+00  0.00000000000E+00  0.33368485125E+03  0.33368485125E+03  0.00000000000E+00 0. -1.
         21   -1    0    0  501  503 -0.00000000000E+00 -0.00000000000E+00 -0.17255105277E+03  0.17255105277E+03  0.00000000000E+00 0. -1.
          6    2    1    2  501    0  0.10107309880E+03  0.11206770796E+03  0.17003965736E+01  0.22751307811E+03  0.17024795709E+03 0.  0.
         24    2    3    3    0    0  0.69792859690E+02  0.14548230050E+03  0.11710554594E+02  0.18042505822E+03  0.79874410941E+02 0.  0.
         -6    2    1    2    0  502 -0.10107309880E+03 -0.11206770796E+03  0.15943340191E+03  0.27872282591E+03  0.17173369376E+03 0.  0.
        -24    2    5    5    0    0 -0.12668168305E+03 -0.10889466186E+03  0.16903316878E+03  0.25079231693E+03  0.80114155310E+02 0.  0.
          5    1    3    3  501    0  0.31280239115E+02 -0.33414592539E+02 -0.10010158020E+02  0.47088019891E+02  0.47000000000E+01 0. -1.
        -11    1    4    4    0    0  0.47880812055E+02  0.11619693409E+03  0.42446430767E+02  0.13264991195E+03  0.00000000000E+00 0.  1.
         12    1    4    4    0    0  0.21912047635E+02  0.29285366406E+02 -0.30735876173E+02  0.47775146271E+02  0.00000000000E+00 0. -1.
         -5    1    5    5    0  502  0.25608584241E+02 -0.31730460973E+01 -0.95997668688E+01  0.27930508987E+02  0.47000000000E+01 0.  1.
         11    1    6    6    0    0 -0.96680579508E+02 -0.72418741272E+02  0.66467214650E+02  0.13787494031E+03  0.00000000000E+00 0. -1.
        -12    1    6    6    0    0 -0.30001103537E+02 -0.36475920590E+02  0.10256595413E+03  0.11291737662E+03  0.00000000000E+00 0.  1.
</event>
<event>
12    1  0.1630640E-001  0.1942106E+03  0.7818608E-02  0.1154925E+00
         21   -1    0    0  503  502  0.00000000000E+00  0.00000000000E+00  0.76739783871E+02  0.76739783871E+02  0.00000000000E+00 0. -1.
         21   -1    0    0  501  503 -0.00000000000E+00 -0.00000000000E+00 -0.90443584288E+03  0.90443584288E+03  0.00000000000E+00 0. -1.
          6    2    1    2  501    0 -0.23032270726E+02  0.86549683362E+02 -0.74574784971E+03  0.77038358746E+03  0.17125911157E+03 0.  0.
         24    2    3    3    0    0  0.75031261058E+01  0.97658229717E+02 -0.70981920412E+03  0.72171359839E+03  0.86219422625E+02 0.  0.
         -6    2    1    2    0  502  0.23032270726E+02 -0.86549683362E+02 -0.81948209301E+02  0.21079203929E+03  0.17232655523E+03 0.  0.
        -24    2    5    5    0    0 -0.43942028513E+02 -0.77302509463E+02 -0.76197708412E+02  0.14277567917E+03  0.81683682315E+02 0.  0.
          5    1    3    3  501    0 -0.30535396832E+02 -0.11108546355E+02 -0.35928645594E+02  0.48669989070E+02  0.47000000000E+01 0. -1.
        -11    1    4    4    0    0  0.26718196630E+02  0.96953652382E+02 -0.44614766251E+03  0.45734189564E+03  0.00000000000E+00 0.  1.
         12    1    4    4    0    0 -0.19215070524E+02  0.70457733556E+00 -0.26367154160E+03  0.26437170275E+03  0.00000000000E+00 0. -1.
         -5    1    5    5    0  502  0.66974299239E+02 -0.92471738990E+01 -0.57505008889E+01  0.68016360121E+02  0.47000000000E+01 0.  1.
         11    1    6    6    0    0  0.58264084910E+01 -0.42398737166E+02 -0.69499647519E+02  0.81619856373E+02  0.00000000000E+00 0. -1.
        -12    1    6    6    0    0 -0.49768437004E+02 -0.34903772297E+02 -0.66980608928E+01  0.61155822798E+02  0.00000000000E+00 0.  1.
</event>
<event>
12    1  0.1630640E-001  0.1914433E+03  0.7818608E-02  0.1157829E+00
         21   -1    0    0  501  502  0.00000000000E+00  0.00000000000E+00  0.93460623711E+02  0.93460623711E+02  0.00000000000E+00 0. -1.
         21   -1    0    0  502  503 -0.00000000000E+00 -0.00000000000E+00 -0.56238090939E+03  0.56238090939E+03  0.00000000000E+00 0. -1.
         -6    2    1    2    0  503  0.44788848234E+02 -0.62498140996E+02 -0.41678178765E+03  0.45742537640E+03  0.17210130128E+03 0.  0.
        -24    2    3    3    0    0 -0.51920169161E+01 -0.25193243342E+01 -0.33453559446E+03  0.34392616220E+03  0.79610533534E+02 0.  0.
          6    2    1    2  501    0 -0.44788848234E+02  0.62498140996E+02 -0.52138498030E+02  0.19841615670E+03  0.17532395646E+03 0.  0.
         24    2    5    5    0    0 -0.28737922502E+02  0.78651390238E+02 -0.96190278364E+02  0.14860442085E+03  0.76281025618E+02 0.  0.
          5    1    5    5  501    0 -0.16050925732E+02 -0.16153249241E+02  0.44051780334E+02  0.49811735851E+02  0.47000000000E+01 0. -1.
        -13    1    6    6    0    0 -0.17407671349E+02 -0.12364393492E+02 -0.21750968462E+02  0.30479663339E+02  0.00000000000E+00 0.  1.
         14    1    6    6    0    0 -0.11330251153E+02  0.91015783730E+02 -0.74439309901E+02  0.11812475751E+03  0.00000000000E+00 0. -1.
         -5    1    3    3    0  503  0.49980865150E+02 -0.59978816662E+02 -0.82246193186E+02  0.11349921419E+03  0.47000000000E+01 0.  1.
         11    1    4    4    0    0  0.23266472411E+02 -0.13747435121E+02 -0.28075657145E+03  0.28205420245E+03  0.00000000000E+00 0. -1.
        -12    1    4    4    0    0 -0.28458489327E+02  0.11228110787E+02 -0.53779023015E+02  0.61871959748E+02  0.00000000000E+00 0.  1.
</event>
<event>
12    1  0.1630640E-001  0.1990700E+03  0.7818608E-02  0.1151075E+00
         21   -1    0    0  501  502  0.00000000000E+00  0.00000000000E+00  0.67036053414E+03  0.67036053414E+03  0.00000000000E+00 0.  1.
         21   -1    0    0  502  503 -0.00000000000E+00 -0.00000000000E+00 -0.69376323840E+02  0.69376323840E+02  0.00000000000E+00 0.  1.
         -6    2    1    2    0  503  0.50031796916E+02 -0.85583823325E+02  0.44626715855E+03  0.48761341404E+03  0.16966052349E+03 0.  0.
        -24    2    3    3    0    0 -0.23504081073E+02 -0.48569908297E+02  0.16014235657E+03  0.18984328866E+03  0.86506774669E+02 0.  0.
          6    2    1    2  501    0 -0.50031796916E+02  0.85583823325E+02  0.15471705175E+03  0.25212344394E+03  0.17262993184E+03 0.  0.
         24    2    5    5    0    0 -0.46264242110E+02  0.11148743005E+03  0.65286090299E+02  0.15882189960E+03  0.79951829549E+02 0.  0.
          5    1    5    5  501    0 -0.37675548068E+01 -0.25903606727E+02  0.89430961451E+02  0.93301544343E+02  0.47000000000E+01 0. -1.
        -11    1    6    6    0    0  0.12521443193E+02  0.21177392528E+01  0.25413522295E+02  0.28409830598E+02  0.00000000000E+00 0.  1.
         12    1    6    6    0    0 -0.58785685303E+02  0.10936969080E+03  0.39872568004E+02  0.13041206900E+03  0.00000000000E+00 0. -1.
         -5    1    3    3    0  503  0.73535877990E+02 -0.37013915028E+02  0.28612480198E+03  0.29777012538E+03  0.47000000000E+01 0.  1.
         13    1    4    4    0    0 -0.44368568009E+01  0.24405965689E+02  0.25901828990E+02  0.35864210635E+02  0.00000000000E+00 0. -1.
        -14    1    4    4    0    0 -0.19067224272E+02 -0.72975873985E+02  0.13424052758E+03  0.15397907803E+03  0.00000000000E+00 0.  1.
</event>
<event>
12    1  0.1630640E-001  0.1875778E+03  0.7818608E-02  0.1160772E+00
         21   -1    0    0  503  502  0.00000000000E+00  0.00000000000E+00  0.28124839880E+03  0.28124839880E+03  0.00000000000E+00 0. -1.
         21   -1    0    0  501  503 -0.00000000000E+00 -0.00000000000E+00 -0.15871855126E+03  0.15871855126E+03  0.00000000000E+00 0. -1.
          6    2    1    2  501    0 -0.52692226280E+02 -0.52161189343E+02 -0.40501138852E+02  0.19144224511E+03  0.17179211443E+03 0.  0.
         24    2    3    3    0    0 -0.13736945745E+02  0.20868460424E+02 -0.65260140433E+02  0.10492090794E+03  0.78264389572E+02 0.  0.
         -6    2    1    2    0  502  0.52692226280E+02  0.52161189343E+02  0.16303098640E+03  0.24852470495E+03  0.17230254224E+03 0.  0.
        -24    2    5    5    0    0  0.54814598030E+02 -0.32904977492E+02  0.75213787499E+02  0.12615351707E+03  0.78550737345E+02 0.  0.
          5    1    3    3  501    0 -0.38955280535E+02 -0.73029649767E+02  0.24759001581E+02  0.86521337172E+02  0.47000000000E+01 0. -1.
        -13    1    4    4    0    0  0.30151405390E+02 -0.55294498171E+01 -0.28723253304E+02  0.42008419901E+02  0.00000000000E+00 0.  1.
         14    1    4    4    0    0 -0.43888351134E+02  0.26397910241E+02 -0.36536887129E+02  0.62912488040E+02  0.00000000000E+00 0. -1.
         -5    1    5    5    0  502 -0.21223717500E+01  0.85066166836E+02  0.87817198897E+02  0.12237118788E+03  0.47000000000E+01 0.  1.
         11    1    6    6    0    0 -0.21660296232E+01 -0.41052720594E+02  0.17618103722E+02  0.44726000617E+02  0.00000000000E+00 0. -1.
        -12    1    6    6    0    0  0.56980627653E+02  0.81477431012E+01  0.57595683778E+02  0.81427516450E+02  0.00000000000E+00 0.  1.
</event>
<event>
12    1  0.1630640E-001  0.1834930E+03  0.7818608E-02  0.1165206E+00
         21   -1    0    0  503  502  0.00000000000E+00  0.00000000000E+00  0.52111746380E+03  0.52111746380E+03  0.00000000000E+00 0.  1.
         21   -1    0    0  501  503 -0.00000000000E+00 -0.00000000000E+00 -0.15308209978E+03  0.15308209978E+03  0.00000000000E+00 0. -1.
          6    2    1    2  501    0 -0.42134649797E+00  0.60171540582E+02 -0.73171325217E+02  0.19754422091E+03  0.17334614086E+03 0.  0.
         24    2    3    3    0    0  0.45849409381E+02 -0.58432368941E+01 -0.41466224967E+00  0.88849438603E+02  0.75879766982E+02 0.  0.
         -6    2    1    2    0  502  0.42134649797E+00 -0.60171540582E+02  0.44120668924E+03  0.47665534266E+03  0.17004758519E+03 0.  0.
        -24    2    5    5    0    0  0.12184475167E+02 -0.10227704742E+03  0.37900410160E+03  0.40048122100E+03  0.78307365410E+02 0.  0.
          5    1    3    3  501    0 -0.46270755879E+02  0.66014777476E+02 -0.72756662968E+02  0.10869478231E+03  0.47000000000E+01 0. -1.
        -11    1    4    4    0    0  0.65527848597E+02 -0.97188210163E+01 -0.93342279694E+01  0.66899045101E+02  0.00000000000E+00 0.  1.
         12    1    4    4    0    0 -0.19678439216E+02  0.38755841222E+01  0.89195657197E+01  0.21950393502E+02  0.00000000000E+00 0. -1.
         -5    1    5    5    0  502 -0.11763128669E+02  0.42105506840E+02  0.62202587631E+02  0.76174121658E+02  0.47000000000E+01 0.  1.
         11    1    6    6    0    0 -0.15494044161E+01  0.12512359762E+02  0.56283225971E+02  0.57678083589E+02  0.00000000000E+00 0. -1.
        -12    1    6    6    0    0  0.13733879583E+02 -0.11478940718E+03  0.32272087563E+03  0.34280313741E+03  0.00000000000E+00 0.  1.
</event>
<event>
12    1  0.1630640E-001  0.2407338E+03  0.7818608E-02  0.1119365E+00
         21   -1    0    0  501  502  0.00000000000E+00  0.00000000000E+00  0.23662057954E+03  0.23662057954E+03  0.00000000000E+00 0.  1.
         21   -1    0    0  502  503 -0.00000000000E+00 -0.00000000000E+00 -0.42821555822E+03  0.42821555822E+03  0.00000000000E+00 0.  1.
         -6    2    1    2    0  503 -0.16377530040E+03 -0.13473120851E+02 -0.31345990642E+03  0.39501433084E+03  0.17542900168E+03 0.  0.
        -24    2    3    3    0    0 -0.10032674569E+03 -0.75792703303E+02 -0.16821877563E+03  0.22464260337E+03  0.79729248060E+02 0.  0.
          6    2    1    2  501    0  0.16377530040E+03  0.13473120851E+02  0.12186492774E+03  0.26982180692E+03  0.17592291741E+03 0.  0.
         24    2    5    5    0    0  0.10593831740E+02 -0.17739436923E+02  0.38072395512E+02  0.92389948002E+02  0.81605626634E+02 0.  0.
          5    1    5    5  501    0  0.15318146866E+03  0.31212557775E+02  0.83792532226E+02  0.17743185892E+03  0.47000000000E+01 0. -1.
        -11    1    6    6    0    0 -0.17257747098E+01  0.15527847860E+02 -0.19364242861E+02  0.24881042163E+02  0.00000000000E+00 0.  1.
         12    1    6    6    0    0  0.12319606450E+02 -0.33267284783E+02  0.57436638374E+02  0.67508905839E+02  0.00000000000E+00 0. -1.
         -5    1    3    3    0  503 -0.63448554706E+02  0.62319582451E+02 -0.14524113079E+03  0.17037172748E+03  0.47000000000E+01 0.  1.
         13    1    4    4    0    0 -0.86477315779E+02 -0.17229639110E+02 -0.90573953539E+02  0.12640738771E+03  0.00000000000E+00 0. -1.
        -14    1    4    4    0    0 -0.13849429911E+02 -0.58563064193E+02 -0.77644822096E+02  0.98235215655E+02  0.00000000000E+00 0.  1.
</event>
<event>
12    1  0.1630640E-001  0.1985219E+03  0.7818608E-02  0.1151070E+00
         21   -1    0    0  501  502  0.00000000000E+00  0.00000000000E+00  0.71215724057E+02  0.71215724057E+02  0.00000000000E+00 0. -1.
         21   -1    0    0  502  503 -0.00000000000E+00 -0.00000000000E+00 -0.55288730989E+03  0.55288730989E+03  0.00000000000E+00 0. -1.
         -6    2    1    2    0  503  0.86128696029E+02  0.41978717853E+02 -0.23158917141E+03  0.30503194039E+03  0.17386942030E+03 0.  0.
        -24    2    3    3    0    0  0.11494455811E+03 -0.11312944338E+02 -0.16463937577E+03  0.21461778054E+03  0.74929523679E+02 0.  0.
          6    2    1    2  501    0 -0.86128696029E+02 -0.41978717853E+02 -0.25008241442E+03  0.31907109355E+03  0.17344965755E+03 0.  0.
         24    2    5    5    0    0 -0.10670202884E+03 -0.77233960769E+02 -0.17277719587E+03  0.23152464307E+03  0.80008082599E+02 0.  0.
          5    1    5    5  501    0  0.20573332814E+02  0.35255242916E+02 -0.77305218560E+02  0.87546450486E+02  0.47000000000E+01 0. -1.
        -13    1    6    6    0    0 -0.14170956018E+02 -0.38827596666E+02 -0.98462406195E+02  0.10678597142E+03  0.00000000000E+00 0.  1.
         14    1    6    6    0    0 -0.92531072825E+02 -0.38406364103E+02 -0.74314789670E+02  0.12473867165E+03  0.00000000000E+00 0. -1.
         -5    1    3    3    0  503 -0.28815862085E+02  0.53291662192E+02 -0.66949795636E+02  0.90414159856E+02  0.47000000000E+01 0.  1.
         13    1    4    4    0    0  0.98822796579E+02 -0.12442623504E+02 -0.78070891293E+02  0.12655365688E+03  0.00000000000E+00 0. -1.
        -14    1    4    4    0    0  0.16121761535E+02  0.11296791651E+01 -0.86568484478E+02  0.88064123654E+02  0.00000000000E+00 0.  1.
</event>
<event>
12    1  0.1630640E-001  0.2086024E+03  0.7818608E-02  0.1143401E+00
         21   -1    0    0  501  502  0.00000000000E+00  0.00000000000E+00  0.33041784690E+03  0.33041784690E+03  0.00000000000E+00 0. -1.
         21   -1    0    0  502  503 -0.00000000000E+00 -0.00000000000E+00 -0.70433222005E+03  0.70433222005E+03  0.00000000000E+00 0.  1.
         -6    2    1    2    0  503  0.98822440901E+02  0.49547957749E+02 -0.65407827612E+03  0.68545535767E+03  0.17265509294E+03 0.  0.
        -24    2    3    3    0    0  0.20962419162E+01 -0.10689697791E+02 -0.27400987702E+03  0.28864481004E+03  0.90087456329E+02 0.  0.
          6    2    1    2  501    0 -0.98822440901E+02 -0.49547957749E+02  0.28016390298E+03  0.34929470928E+03  0.17690140320E+03 0.  0.
         24    2    5    5    0    0 -0.13811243034E+02 -0.54071788079E+02  0.22734428210E+03  0.24899829282E+03  0.84854101407E+02 0.  0.
          5    1    5    5  501    0 -0.85011197867E+02  0.45238303302E+01  0.52819620877E+02  0.10029641645E+03  0.47000000000E+01 0. -1.
        -11    1    6    6    0    0  0.50483648532E+01 -0.54814789453E+02  0.63363948649E+02  0.83935315087E+02  0.00000000000E+00 0.  1.
         12    1    6    6    0    0 -0.18859607887E+02  0.74300137336E+00  0.16398033345E+03  0.16506297774E+03  0.00000000000E+00 0. -1.
         -5    1    3    3    0  503  0.96726198985E+02  0.60237655540E+02 -0.38006839911E+03  0.39681054763E+03  0.47000000000E+01 0.  1.
         11    1    4    4    0    0 -0.39703009402E+02  0.58140284456E+01 -0.18037146954E+03  0.18478094844E+03  0.00000000000E+00 0. -1.
        -12    1    4    4    0    0  0.41799251318E+02 -0.16503726236E+02 -0.93638407475E+02  0.10386386159E+03  0.00000000000E+00 0.  1.
</event>
<event>
12    1  0.1630640E-001  0.2081128E+03  0.7818608E-02  0.1143788E+00
         21   -1    0    0  501  502  0.00000000000E+00  0.00000000000E+00  0.47545794591E+03  0.47545794591E+03  0.00000000000E+00 0. -1.
         21   -1    0    0  502  503 -0.00000000000E+00 -0.00000000000E+00 -0.98494100271E+02  0.98494100271E+02  0.00000000000E+00 0.  1.
         -6    2    1    2    0  503  0.11543320247E+03 -0.19745484635E+02  0.10344891579E+03  0.23240616976E+03  0.17203558111E+03 0.  0.
        -24    2    3    3    0    0  0.55497145247E+02  0.52710201545E+02  0.76710441568E+02  0.13453281578E+03  0.79726333158E+02 0.  0.
          6    2    1    2  501    0 -0.11543320247E+03  0.19745484635E+02  0.27351492986E+03  0.34154587643E+03  0.16771541507E+03 0.  0.
         24    2    5    5    0    0 -0.23511981414E+02 -0.52595863048E+01  0.53650407407E+02  0.10188515230E+03  0.83197004315E+02 0.  0.
          5    1    5    5  501    0 -0.91921221060E+02  0.25005070939E+02  0.21986452245E+03  0.23966072412E+03  0.47000000000E+01 0. -1.
        -13    1    6    6    0    0 -0.45857171699E+02  0.21338912171E+02  0.40294051219E+02  0.64667147243E+02  0.00000000000E+00 0.  1.
         14    1    6    6    0    0  0.22345190286E+02 -0.26598498476E+02  0.13356356187E+02  0.37218005061E+02  0.00000000000E+00 0. -1.
         -5    1    3    3    0  503  0.59936057226E+02 -0.72455686180E+02  0.26738474219E+02  0.97873353979E+02  0.47000000000E+01 0.  1.
         13    1    4    4    0    0  0.24099162037E+01 -0.72965687891E+01  0.49238771928E+02  0.49834769722E+02  0.00000000000E+00 0. -1.
        -14    1    4    4    0    0  0.53087229044E+02  0.60006770334E+02  0.27471669640E+02  0.84698046060E+02  0.00000000000E+00 0.  1.
</event>
<event>
12    1  0.1630640E-001  0.1872663E+03  0.7818608E-02  0.1162096E+00
         21   -1    0    0  503  502  0.00000000000E+00  0.00000000000E+00  0.84131015468E+03  0.84131015468E+03  0.00000000000E+00 0.  1.
         21   -1    0    0  501  503 -0.00000000000E+00 -0.00000000000E+00 -0.45190071582E+02  0.45190071582E+02  0.00000000000E+00 0.  1.
          6    2    1    2  501    0  0.51561734950E+02  0.46053675408E+02  0.25199294014E+03  0.31104995171E+03  0.16873670924E+03 0.  0.
         24    2    3    3    0    0 -0.21147223099E+02  0.61530424804E+02  0.11081914339E+03  0.15143086375E+03  0.80107588478E+02 0.  0.
         -6    2    1    2    0  502 -0.51561734950E+02 -0.46053675408E+02  0.54412714295E+03  0.57545027455E+03  0.17403768918E+03 0.  0.
        -24    2    5    5    0    0 -0.47245107231E+02 -0.60100206081E+02  0.15767871175E+03  0.18869399693E+03  0.69990809475E+02 0.  0.
          5    1    3    3  501    0  0.72708958049E+02 -0.15476749396E+02  0.14117379675E+03  0.15961908796E+03  0.47000000000E+01 0. -1.
        -11    1    4    4    0    0 -0.14916109799E+02 -0.11577966357E+02  0.43741214831E+00  0.18887322888E+02  0.00000000000E+00 0.  1.
         12    1    4    4    0    0 -0.62311132994E+01  0.73108391161E+02  0.11038173124E+03  0.13254354086E+03  0.00000000000E+00 0. -1.
         -5    1    5    5    0  502 -0.43166277197E+01  0.14046530673E+02  0.38644843120E+03  0.38675627762E+03  0.47000000000E+01 0.  1.
         13    1    6    6    0    0 -0.37520630232E+02  0.47443313032E+01  0.51365701093E+02  0.63786688433E+02  0.00000000000E+00 0. -1.
        -14    1    6    6    0    0 -0.97244769986E+01 -0.64844537385E+02  0.10631301066E+03  0.12490730850E+03  0.00000000000E+00 0.  1.
</event>
<event>
12    1  0.1630640E-001  0.1950860E+03  0.7818608E-02  0.1155167E+00
         21   -1    0    0  503  502  0.00000000000E+00  0.00000000000E+00  0.34054343794E+03  0.34054343794E+03  0.00000000000E+00 0.  1.
         21   -1    0    0  501  503 -0.00000000000E+00 -0.00000000000E+00 -0.11444505721E+03  0.11444505721E+03  0.00000000000E+00 0.  1.
          6    2    1    2  501    0 -0.29601121105E+02  0.74671693333E+02  0.16276779212E+03  0.24988047857E+03  0.17174053471E+03 0.  0.
         24    2    3    3    0    0 -0.40193269499E+02 -0.20452103241E+02  0.88562005450E+02  0.12868097751E+03  0.81742141663E+02 0.  0.
         -6    2    1    2    0  502  0.29601121105E+02 -0.74671693333E+02  0.63330588613E+02  0.20510801658E+03  0.17778202062E+03 0.  0.
        -24    2    5    5    0    0  0.38056232810E+02 -0.24647450641E+02 -0.35856790403E+02  0.93599541891E+02  0.73616514080E+02 0.  0.
          5    1    3    3  501    0  0.10592148395E+02  0.95123796574E+02  0.74205786673E+02  0.12119950106E+03  0.47000000000E+01 0. -1.
        -13    1    4    4    0    0  0.23549609329E+02 -0.30706741012E+00  0.10165253534E+02  0.25651720593E+02  0.00000000000E+00 0.  1.
         14    1    4    4    0    0 -0.63742878829E+02 -0.20145035831E+02  0.78396751916E+02  0.10302925692E+03  0.00000000000E+00 0. -1.
         -5    1    5    5    0  502 -0.84551117057E+01 -0.50024242692E+02  0.99187379016E+02  0.11150847469E+03  0.47000000000E+01 0.  1.
         11    1    6    6    0    0  0.13143416096E+02  0.25371448834E+02 -0.21906279020E+02  0.36004789447E+02  0.00000000000E+00 0. -1.
        -12    1    6    6    0    0  0.24912816714E+02 -0.50018899474E+02 -0.13950511384E+02  0.57594752444E+02  0.00000000000E+00 0.  1.
</event>
<event>
12    1  0.1630640E-001  0.1902713E+03  0.7818608E-02  0.1158328E+00
         21   -1    0    0  503  502  0.00000000000E+00  0.00000000000E+00  0.74039420587E+02  0.74039420587E+02  0.00000000000E+00 0. -1.
         21   -1    0    0  501  503 -0.00000000000E+00 -0.00000000000E+00 -0.12735646684E+04  0.12735646684E+04  0.00000000000E+00 0. -1.
          6    2    1    2  501    0 -0.70378848147E+02  0.38452168245E+02 -0.11287556011E+04  0.11445979453E+04  0.17199853987E+03 0.  0.
         24    2    3    3    0    0 -0.73513287180E+02  0.62491835473E+02 -0.10980963489E+04  0.11052303183E+04  0.80056430411E+02 0.  0.
         -6    2    1    2    0  502  0.70378848147E+02 -0.38452168245E+02 -0.70769646648E+02  0.20300614369E+03  0.17254390739E+03 0.  0.
        -24    2    5    5    0    0  0.93257463407E+02 -0.78503134024E+02 -0.50145422877E+02  0.15226208490E+03  0.76219961490E+02 0.  0.
          5    1    3    3  501    0  0.31344390327E+01 -0.24039667227E+02 -0.30659252227E+02  0.39367627000E+02  0.47000000000E+01 0. -1.
        -13    1    4    4    0    0 -0.36273924469E+02  0.66837630348E+02 -0.92497199502E+03  0.92809280678E+03  0.00000000000E+00 0.  1.
         14    1    4    4    0    0 -0.37239362711E+02 -0.43457948757E+01 -0.17312435389E+03  0.17713751150E+03  0.00000000000E+00 0. -1.
         -5    1    5    5    0  502 -0.22878615260E+02  0.40050965778E+02 -0.20624223771E+02  0.50744058787E+02  0.47000000000E+01 0.  1.
         13    1    6    6    0    0  0.10195044422E+03 -0.83143171851E+02 -0.38636599163E+02  0.13711114797E+03  0.00000000000E+00 0. -1.
        -14    1    6    6    0    0 -0.86929808173E+01  0.46400378268E+01 -0.11508823713E+02  0.15150936928E+02  0.00000000000E+00 0.  1.
</event>
<event>
12    1  0.1630640E-001  0.3716643E+03  0.7818608E-02  0.1054123E+00
         21   -1    0    0  503  502  0.00000000000E+00  0.00000000000E+00  0.23412938621E+03  0.23412938621E+03  0.00000000000E+00 0.  1.
         21   -1    0    0  501  503 -0.00000000000E+00 -0.00000000000E+00 -0.73762663506E+03  0.73762663506E+03  0.00000000000E+00 0. -1.
          6    2    1    2  501    0  0.23115734210E+03  0.23446846738E+03 -0.33773253883E+02  0.37319564250E+03  0.17240990661E+03 0.  0.
         24    2    3    3    0    0  0.16662646090E+03  0.84364558882E+02 -0.49109241766E+02  0.20902286613E+03  0.79981777115E+02 0.  0.
         -6    2    1    2    0  502 -0.23115734210E+03 -0.23446846738E+03 -0.46972399497E+03  0.59856037878E+03  0.17095238105E+03 0.  0.
        -24    2    5    5    0    0 -0.18094577138E+03 -0.24933353121E+03 -0.39698530664E+03  0.50880973122E+03  0.79883833990E+02 0.  0.
          5    1    3    3  501    0  0.64530881200E+02  0.15010390850E+03  0.15335987884E+02  0.16417277637E+03  0.47000000000E+01 0. -1.
        -11    1    4    4    0    0  0.17432373157E+03  0.72660071823E+02 -0.42749952458E+02  0.19363834295E+03  0.00000000000E+00 0.  1.
         12    1    4    4    0    0 -0.76972706655E+01  0.11704487059E+02 -0.63592893082E+01  0.15384523182E+02  0.00000000000E+00 0. -1.
         -5    1    5    5    0  502 -0.50211570724E+02  0.14865063823E+02 -0.72738688325E+02  0.89750647553E+02  0.47000000000E+01 0.  1.
         11    1    6    6    0    0 -0.13843208189E+03 -0.22920982549E+03 -0.36159798660E+03  0.44994854074E+03  0.00000000000E+00 0. -1.
        -12    1    6    6    0    0 -0.42513689488E+02 -0.20123705713E+02 -0.35387320047E+02  0.58861190487E+02  0.00000000000E+00 0.  1.
</event>
<event>
12    1  0.1630640E-001  0.2392931E+03  0.7818608E-02  0.1120454E+00
         21   -1    0    0  503  502  0.00000000000E+00  0.00000000000E+00  0.11676801999E+04  0.11676801999E+04  0.00000000000E+00 0.  1.
         21   -1    0    0  501  503 -0.00000000000E+00 -0.00000000000E+00 -0.17263167272E+03  0.17263167272E+03  0.00000000000E+00 0.  1.
          6    2    1    2  501    0  0.13695737446E+03  0.90819789279E+02 -0.70376472281E+02  0.24834500671E+03  0.17238572437E+03 0.  0.
         24    2    3    3    0    0  0.92427067487E+01  0.14541682432E+02  0.20167398369E+01  0.82838955182E+02  0.81002080838E+02 0.  0.
         -6    2    1    2    0  502 -0.13695737446E+03 -0.90819789279E+02  0.10654249994E+04  0.10919668659E+04  0.17394151374E+03 0.  0.
        -24    2    5    5    0    0 -0.98848998556E+02 -0.36060486994E+02  0.35052714357E+03  0.37394746236E+03  0.76785044042E+02 0.  0.
          5    1    3    3  501    0  0.12771466771E+03  0.76278106847E+02 -0.72393212117E+02  0.16550605153E+03  0.47000000000E+01 0. -1.
        -11    1    4    4    0    0  0.17807564527E+02  0.41100829234E+02 -0.18231516572E+02  0.48360890341E+02  0.00000000000E+00 0.  1.
         12    1    4    4    0    0 -0.85648577778E+01 -0.26559146802E+02  0.20248256409E+02  0.34478064841E+02  0.00000000000E+00 0. -1.
         -5    1    5    5    0  502 -0.38108375904E+02 -0.54759302285E+02  0.71489785588E+03  0.71801940353E+03  0.47000000000E+01 0.  1.
         11    1    6    6    0    0 -0.57137160492E+00 -0.22371823426E+02  0.24626688301E+02  0.33276098413E+02  0.00000000000E+00 0. -1.
        -12    1    6    6    0    0 -0.98277626951E+02 -0.13688663568E+02  0.32590045527E+03  0.34067136395E+03  0.00000000000E+00 0.  1.
</event>
<event>
12    1  0.1630640E-001  0.1933928E+03  0.7818608E-02  0.1155477E+00
         21   -1    0    0  503  502  0.00000000000E+00  0.00000000000E+00  0.18333191537E+03  0.18333191537E+03  0.00000000000E+00 0. -1.
         21   -1    0    0  501  503 -0.00000000000E+00 -0.00000000000E+00 -0.19916237680E+04  0.19916237680E+04  0.00000000000E+00 0. -1.
          6    2    1    2  501    0  0.17348091504E+02 -0.86248698453E+02 -0.19344350668E+04  0.19440598784E+04  0.17201740782E+03 0.  0.
         24    2    3    3    0    0  0.11540299114E+02  0.11908991920E+02 -0.55916815401E+03  0.56527424087E+03  0.81184606576E+02 0.  0.
         -6    2    1    2    0  502 -0.17348091504E+02  0.86248698453E+02  0.12614321425E+03  0.23089580497E+03  0.17222359880E+03 0.  0.
        -24    2    5    5    0    0  0.39238988868E+02  0.15721494697E+02  0.10847389933E+03  0.13864354849E+03  0.75289993091E+02 0.  0.
          5    1    3    3  501    0  0.58077923903E+01 -0.98157690373E+02 -0.13752669128E+04  0.13787856375E+04  0.47000000000E+01 0. -1.
        -13    1    4    4    0    0  0.33688609343E+01  0.30473998592E+02 -0.52226342240E+03  0.52316259058E+03  0.00000000000E+00 0.  1.
         14    1    4    4    0    0  0.81714381795E+01 -0.18565006672E+02 -0.36904731614E+02  0.42111650290E+02  0.00000000000E+00 0. -1.
         -5    1    5    5    0  502 -0.56587080372E+02  0.70527203756E+02  0.17669314923E+02  0.92252256475E+02  0.47000000000E+01 0.  1.
         13    1    6    6    0    0 -0.20355801753E+01  0.38551775839E+02  0.40970504865E+02  0.56293563361E+02  0.00000000000E+00 0. -1.
        -14    1    6    6    0    0  0.41274569043E+02 -0.22830281142E+02  0.67503394466E+02  0.82349985131E+02  0.00000000000E+00 0.  1.
</event>
<event>
12    1  0.1630640E-001  0.3309397E+03  0.7818608E-02  0.1070844E+00
         21   -1    0    0  501  502  0.00000000000E+00  0.00000000000E+00  0.24895127215E+03  0.24895127215E+03  0.00000000000E+00 0.  1.
         21   -1    0    0  502  503 -0.00000000000E+00 -0.00000000000E+00 -0.92818989457E+03  0.92818989457E+03  0.00000000000E+00 0. -1.
         -6    2    1    2    0  503  0.24710641667E+03  0.13647064144E+03 -0.76741150546E+03  0.83572813278E+03  0.17272890923E+03 0.  0.
        -24    2    3    3    0    0  0.16540592504E+03  0.28367223434E+02 -0.33784119496E+03  0.38526829997E+03  0.78301791462E+02 0.  0.
          6    2    1    2  501    0 -0.24710641667E+03 -0.13647064144E+03  0.88172883034E+02  0.34141303394E+03  0.17059479860E+03 0.  0.
         24    2    5    5    0    0 -0.17558493133E+03 -0.11933557781E+03  0.12486453094E+03  0.25908867366E+03  0.80403616127E+02 0.  0.
          5    1    5    5  501    0 -0.71521485331E+02 -0.17135063627E+02 -0.36691647911E+02  0.82324360283E+02  0.47000000000E+01 0. -1.
        -11    1    6    6    0    0 -0.76512542215E+02 -0.42677714448E+02  0.83427925696E+01  0.88006582791E+02  0.00000000000E+00 0.  1.
         12    1    6    6    0    0 -0.99072389120E+02 -0.76657863361E+02  0.11652173838E+03  0.17108209087E+03  0.00000000000E+00 0. -1.
         -5    1    3    3    0  503  0.81700491623E+02  0.10810341800E+03 -0.42957031050E+03  0.45045983282E+03  0.47000000000E+01 0.  1.
         11    1    4    4    0    0  0.64602533841E+01  0.98482768630E+01 -0.86581011826E+02  0.87378458671E+02  0.00000000000E+00 0. -1.
        -12    1    4    4    0    0  0.15894567166E+03  0.18518946571E+02 -0.25126018313E+03  0.29788984130E+03  0.00000000000E+00 0.  1.
</event>
<event>
12    1  0.1630640E-001  0.1851259E+03  0.7818608E-02  0.1163445E+00
         21   -1    0    0  501  502  0.00000000000E+00  0.00000000000E+00  0.14220463066E+04  0.14220463066E+04  0.00000000000E+00 0.  1.
         21   -1    0    0  502  503 -0.00000000000E+00 -0.00000000000E+00 -0.34581799467E+02  0.34581799467E+02  0.00000000000E+00 0.  1.
         -6    2    1    2    0  503  0.46681458621E+02 -0.44177560482E+02  0.29021765065E+03  0.34423521374E+03  0.17361100830E+03 0.  0.
        -24    2    3    3    0    0  0.27273666662E+02  0.28409088234E+02  0.84125426586E+02  0.12482332077E+03  0.83383720362E+02 0.  0.
          6    2    1    2  501    0 -0.46681458621E+02  0.44177560482E+02  0.10972468565E+04  0.11123928924E+04  0.17127891697E+03 0.  0.
         24    2    5    5    0    0 -0.62679684974E+02 -0.94844745421E+01  0.94595935367E+03  0.95100653678E+03  0.74536139102E+02 0.  0.
          5    1    5    5  501    0  0.15998226353E+02  0.53662035024E+02  0.15128750284E+03  0.16138635558E+03  0.47000000000E+01 0. -1.
        -13    1    6    6    0    0 -0.22428773944E+02 -0.64006030908E+01  0.63897239381E+02  0.68021135105E+02  0.00000000000E+00 0.  1.
         14    1    6    6    0    0 -0.40250911030E+02 -0.30838714513E+01  0.88206211429E+03  0.88298540167E+03  0.00000000000E+00 0. -1.
         -5    1    3    3    0  503  0.19407791959E+02 -0.72586648715E+02  0.20609222406E+03  0.21941189298E+03  0.47000000000E+01 0.  1.
         13    1    4    4    0    0 -0.29640180408E+02  0.13066942046E+02  0.38293358845E+02  0.50156421330E+02  0.00000000000E+00 0. -1.
        -14    1    4    4    0    0  0.56913847070E+02  0.15342146188E+02  0.45832067741E+02  0.74666899436E+02  0.00000000000E+00 0.  1.
</event>
<event>
12    1  0.1630640E-001  0.1730569E+03  0.7818608E-02  0.1177593E+00
         21   -1    0    0  503  502  0.00000000000E+00  0.00000000000E+00  0.80001972312E+02  0.80001972312E+02  0.00000000000E+00 0. -1.
         21   -1    0    0  501  503 -0.00000000000E+00 -0.00000000000E+00 -0.44177861378E+03  0.44177861378E+03  0.00000000000E+00 0. -1.
          6    2    1    2  501    0  0.37680819667E+01  0.98856114940E+01 -0.29440571796E+03  0.33607237716E+03  0.16173432586E+03 0.  0.
         24    2    3    3    0    0  0.28825909567E+02  0.82136117064E+01 -0.29817089021E+03  0.31024686982E+03  0.80304694673E+02 0.  0.
         -6    2    1    2    0  502 -0.37680819667E+01 -0.98856114940E+01 -0.67370923509E+02  0.18570820894E+03  0.17273324456E+03 0.  0.
        -24    2    5    5    0    0  0.46008867536E+02 -0.21289421540E+02  0.10211102215E+02  0.92709003024E+02  0.76945677408E+02 0.  0.
          5    1    3    3  501    0 -0.25057827600E+02  0.16719997876E+01  0.37651722414E+01  0.25825507340E+02  0.47000000000E+01 0. -1.
        -11    1    4    4    0    0  0.31684450530E+02  0.41522517875E+02 -0.18714419353E+03  0.19429609638E+03  0.00000000000E+00 0.  1.
         12    1    4    4    0    0 -0.28585409626E+01 -0.33308906168E+02 -0.11102669667E+03  0.11595077344E+03  0.00000000000E+00 0. -1.
         -5    1    5    5    0  502 -0.49776949503E+02  0.11403810046E+02 -0.77582025724E+02  0.92999205915E+02  0.47000000000E+01 0.  1.
         13    1    6    6    0    0  0.41229756435E+02  0.13087664492E+02  0.30107067528E+02  0.52703086178E+02  0.00000000000E+00 0. -1.
        -14    1    6    6    0    0  0.47791111013E+01 -0.34377086032E+02 -0.19895965314E+02  0.40005916846E+02  0.00000000000E+00 0.  1.
</event>
<event>
12    1  0.1630640E-001  0.2230943E+03  0.7818608E-02  0.1131730E+00
         21   -1    0    0  501  502  0.00000000000E+00  0.00000000000E+00  0.13876394699E+04  0.13876394699E+04  0.00000000000E+00 0.  1.
         21   -1    0    0  502  503 -0.00000000000E+00 -0.00000000000E+00 -0.12954021548E+03  0.12954021548E+03  0.00000000000E+00 0. -1.
         -6    2    1    2    0  503  0.47096613391E+01  0.14058627760E+03 -0.16145114353E+02  0.22367771900E+03  0.17315996910E+03 0.  0.
        -24    2    3    3    0    0 -0.51787636064E+02  0.66824801258E+02 -0.49876115041E+02  0.12472030183E+03  0.76941624131E+02 0.  0.
          6    2    1    2  501    0 -0.47096613391E+01 -0.14058627760E+03  0.12742443687E+04  0.12935019663E+04  0.17222643041E+03 0.  0.
         24    2    5    5    0    0 -0.66285990105E+02 -0.10098754497E+03  0.70804613184E+03  0.72257093955E+03  0.78658255472E+02 0.  0.
          5    1    5    5  501    0  0.61576328766E+02 -0.39598732634E+02  0.56619823688E+03  0.57093102678E+03  0.47000000000E+01 0. -1.
        -11    1    6    6    0    0 -0.68661694510E+02 -0.54149369798E+02  0.57252387333E+03  0.57916333454E+03  0.00000000000E+00 0.  1.
         12    1    6    6    0    0  0.23757044045E+01 -0.46838175171E+02  0.13552225851E+03  0.14340760501E+03  0.00000000000E+00 0. -1.
         -5    1    3    3    0  503  0.56497297403E+02  0.73761476345E+02  0.33731000688E+02  0.98957417175E+02  0.47000000000E+01 0.  1.
         13    1    4    4    0    0 -0.20882225666E+02  0.72578564433E+02 -0.54240267865E+02  0.92982374792E+02  0.00000000000E+00 0. -1.
        -14    1    4    4    0    0 -0.30905410398E+02 -0.57537631754E+01  0.43641528240E+01  0.31737927034E+02  0.00000000000E+00 0.  1.
</event>
<event>
12    1  0.1630640E-001  0.1758857E+03  0.7818608E-02  0.1172543E+00
         21   -1    0    0  501  502  0.00000000000E+00  0.00000000000E+00  0.74742971934E+03  0.74742971934E+03  0.00000000000E+00 0. -1.
         21   -1    0    0  502  503 -0.00000000000E+00 -0.00000000000E+00 -0.46773937494E+02  0.46773937494E+02  0.00000000000E+00 0. -1.
         -6    2    1    2    0  503 -0.23531187731E+02  0.27459520367E+02  0.21011938562E+03  0.27401809865E+03  0.17212791789E+03 0.  0.
        -24    2    3    3    0    0  0.38623574173E+02  0.56915428367E+02  0.11834862770E+03  0.15923644962E+03  0.81355410036E+02 0.  0.
          6    2    1    2  501    0  0.23531187731E+02 -0.27459520367E+02  0.49053639623E+03  0.52018555819E+03  0.16929062841E+03 0.  0.
         24    2    5    5    0    0  0.29163703179E+01 -0.81090592725E+02  0.29111073962E+03  0.31259474642E+03  0.79911346627E+02 0.  0.
          5    1    5    5  501    0  0.20614817413E+02  0.53631072358E+02  0.19942565660E+03  0.20759081177E+03  0.47000000000E+01 0. -1.
        -13    1    6    6    0    0  0.39449666819E+02 -0.38732523856E+02  0.11113515633E+03  0.12412698171E+03  0.00000000000E+00 0.  1.
         14    1    6    6    0    0 -0.36533296501E+02 -0.42358068869E+02  0.17997558330E+03  0.18846776471E+03  0.00000000000E+00 0. -1.
         -5    1    3    3    0  503 -0.62154761904E+02 -0.29455908000E+02  0.91770757923E+02  0.11478164903E+03  0.47000000000E+01 0.  1.
         11    1    4    4    0    0 -0.85290695396E+01 -0.13089101473E+02  0.23777052202E+01  0.15802629107E+02  0.00000000000E+00 0. -1.
        -12    1    4    4    0    0  0.47152643713E+02  0.70004529840E+02  0.11597092247E+03  0.14343382051E+03  0.00000000000E+00 0.  1.
</event>
<event>
12    1  0.1630640E-001  0.1826771E+03  0.7818608E-02  0.1167016E+00
         21   -1    0    0  503  502  0.00000000000E+00  0.00000000000E+00  0.11934698650E+03  0.11934698650E+03  0.00000000000E+00 0. -1.
         21   -1    0    0  501  503 -0.00000000000E+00 -0.00000000000E+00 -0.31748376062E+03  0.31748376062E+03  0.00000000000E+00 0. -1.
          6    2    1    2  501    0 -0.37375613600E+02  0.20331450532E+02 -0.18312853171E+03  0.25353818502E+03  0.17010363830E+03 0.  0.
         24    2    3    3    0    0  0.16355257754E+02 -0.36388877983E+02 -0.59375782055E+02  0.10711060821E+03  0.79721728528E+02 0.  0.
         -6    2    1    2    0  502  0.37375613600E+02 -0.20331450532E+02 -0.15008242414E+02  0.18329256210E+03  0.17765306529E+03 0.  0.
        -24    2    5    5    0    0  0.86873887981E+02 -0.37757486365E+02 -0.33218413544E+02  0.12754808951E+03  0.78691498583E+02 0.  0.
          5    1    3    3  501    0 -0.53730871355E+02  0.56720328515E+02 -0.12375274965E+03  0.14642757681E+03  0.47000000000E+01 0. -1.
        -13    1    4    4    0    0 -0.27682645821E+02 -0.34572747036E+02 -0.22681944968E+02  0.49760168255E+02  0.00000000000E+00 0.  1.
         14    1    4    4    0    0  0.44037903575E+02 -0.18161309469E+01 -0.36693837088E+02  0.57350439956E+02  0.00000000000E+00 0. -1.
         -5    1    5    5    0  502 -0.49498274381E+02  0.17426035833E+02  0.18210171130E+02  0.55744472588E+02  0.47000000000E+01 0.  1.
         13    1    6    6    0    0  0.31072069173E+02  0.15197098638E+02  0.13965206347E+02  0.37302175245E+02  0.00000000000E+00 0. -1.
        -14    1    6    6    0    0  0.55801818808E+02 -0.52954585003E+02 -0.47183619891E+02  0.90245914263E+02  0.00000000000E+00 0.  1.
</event>
<event>
12    1  0.1630640E-001  0.1853895E+03  0.7818608E-02  0.1163295E+00
         21   -1    0    0  501  502  0.00000000000E+00  0.00000000000E+00  0.10429369572E+04  0.10429369572E+04  0.00000000000E+00 0. -1.
         21   -1    0    0  502  503 -0.00000000000E+00 -0.00000000000E+00 -0.63170139093E+02  0.63170139093E+02  0.00000000000E+00 0. -1.
         -6    2    1    2    0  503 -0.45939414141E+02  0.56451550139E+02  0.10626890988E+03  0.21368747541E+03  0.17050527457E+03 0.  0.
        -24    2    3    3    0    0  0.24629895585E+01  0.80004949877E+02  0.36532589691E+02  0.12546729814E+03  0.89445818635E+02 0.  0.
          6    2    1    2  501    0  0.45939414141E+02 -0.56451550139E+02  0.87349790818E+03  0.89241962084E+03  0.16768117598E+03 0.  0.
         24    2    5    5    0    0  0.36893521775E+02 -0.39191058655E+02  0.23898009180E+03  0.25758523138E+03  0.79634139169E+02 0.  0.
          5    1    5    5  501    0  0.90458923669E+01 -0.17260491483E+02  0.63451781639E+03  0.63483438946E+03  0.47000000000E+01 0. -1.
        -11    1    6    6    0    0  0.34479438047E+02 -0.58289345893E+02  0.12667308529E+03  0.14364034959E+03  0.00000000000E+00 0.  1.
         12    1    6    6    0    0  0.24140837278E+01  0.19098287238E+02  0.11230700651E+03  0.11394488179E+03  0.00000000000E+00 0. -1.
         -5    1    3    3    0  503 -0.48402403700E+02 -0.23553399738E+02  0.69736320194E+02  0.88220177269E+02  0.47000000000E+01 0.  1.
         11    1    4    4    0    0 -0.25599622434E+02  0.63580204830E+02 -0.94089053029E+01  0.69183167129E+02  0.00000000000E+00 0. -1.
        -12    1    4    4    0    0  0.28062611992E+02  0.16424745046E+02  0.45941494993E+02  0.56284131013E+02  0.00000000000E+00 0.  1.
</event>
<event>
12    1  0.1630640E-001  0.2081518E+03  0.7818608E-02  0.1143407E+00
         21   -1    0    0  501  502  0.00000000000E+00  0.00000000000E+00  0.25258500894E+02  0.25258500894E+02  0.00000000000E+00 0.  1.
         21   -1    0    0  502  503 -0.00000000000E+00 -0.00000000000E+00 -0.17017537197E+04  0.17017537197E+04  0.00000000000E+00 0. -1.
         -6    2    1    2    0  503 -0.11479971669E+03  0.32489743944E+02 -0.80898864370E+03  0.83488284646E+03  0.16832166606E+03 0.  0.
        -24    2    3    3    0    0 -0.31115486697E+02  0.22878569553E+01 -0.61881084414E+03  0.62487120447E+03  0.81016995412E+02 0.  0.
          6    2    1    2  501    0  0.11479971669E+03 -0.32489743944E+02 -0.86750657514E+03  0.89212937417E+03  0.17056554143E+03 0.  0.
         24    2    5    5    0    0  0.58672280371E+01 -0.50554276582E+02 -0.33597013239E+03  0.34922450737E+03  0.80570884574E+02 0.  0.
          5    1    5    5  501    0  0.10893248865E+03  0.18064532638E+02 -0.53153644275E+03  0.54290486680E+03  0.47000000000E+01 0. -1.
        -11    1    6    6    0    0  0.31878963748E+02 -0.31195103310E+02 -0.83366486737E+02  0.94548262337E+02  0.00000000000E+00 0.  1.
         12    1    6    6    0    0 -0.26011735711E+02 -0.19359173272E+02 -0.25260364566E+03  0.25467624503E+03  0.00000000000E+00 0. -1.
         -5    1    3    3    0  503 -0.83684229995E+02  0.30201886989E+02 -0.19017779956E+03  0.21001164200E+03  0.47000000000E+01 0.  1.
         13    1    4    4    0    0 -0.51754691793E+02  0.22579687662E+02 -0.45903951817E+03  0.46249937260E+03  0.00000000000E+00 0. -1.
        -14    1    4    4    0    0  0.20639205097E+02 -0.20291830706E+02 -0.15977132597E+03  0.16237183186E+03  0.00000000000E+00 0.  1.
</event>
<event>
12    1  0.1630640E-001  0.2338836E+03  0.7818608E-02  0.1123992E+00
         21   -1    0    0  503  502  0.00000000000E+00  0.00000000000E+00  0.21109533556E+04  0.21109533556E+04  0.00000000000E+00 0.  1.
         21   -1    0    0  501  503 -0.00000000000E+00 -0.00000000000E+00 -0.76682285259E+02  0.76682285259E+02  0.00000000000E+00 0. -1.
          6    2    1    2  501    0 -0.15630831034E+03  0.11498012410E+02  0.12704318184E+03  0.26616070152E+03  0.17360027883E+03 0.  0.
         24    2    3    3    0    0 -0.39254532775E+02 -0.28357107210E+02  0.60976497706E+01  0.93129117320E+02  0.79314609545E+02 0.  0.
         -6    2    1    2    0  502  0.15630831034E+03 -0.11498012410E+02  0.19072278885E+04  0.19214749394E+04  0.17315666804E+03 0.  0.
        -24    2    5    5    0    0  0.12798177892E+03  0.13049856445E+02  0.83668941833E+03  0.85027015204E+03  0.79752831932E+02 0.  0.
          5    1    3    3  501    0 -0.11705377756E+03  0.39855119620E+02  0.12094553207E+03  0.17303158420E+03  0.47000000000E+01 0. -1.
        -11    1    4    4    0    0  0.11591033097E+02  0.46207241453E+01  0.26412080266E+02  0.29211318421E+02  0.00000000000E+00 0.  1.
         12    1    4    4    0    0 -0.50845565872E+02 -0.32977831355E+02 -0.20314430496E+02  0.63917798899E+02  0.00000000000E+00 0. -1.
         -5    1    5    5    0  502  0.28326531415E+02 -0.24547868855E+02  0.10705384702E+04  0.10712047873E+04  0.47000000000E+01 0.  1.
         11    1    6    6    0    0  0.39094804265E+02 -0.14214856839E+02  0.10905091439E+03  0.11671575645E+03  0.00000000000E+00 0. -1.
        -12    1    6    6    0    0  0.88886974657E+02  0.27264713283E+02  0.72763850395E+03  0.73355439558E+03  0.00000000000E+00 0.  1.
</event>
<event>
12    1  0.1630640E-001  0.2671361E+03  0.7818608E-02  0.1103121E+00
         21   -1    0    0  501  502  0.00000000000E+00  0.00000000000E+00  0.52411327350E+03  0.52411327350E+03  0.00000000000E+00 0.  1.
         21   -1    0    0  502  503 -0.00000000000E+00 -0.00000000000E+00 -0.18723691906E+03  0.18723691906E+03  0.00000000000E+00 0. -1.
         -6    2    1    2    0  503  0.18833823004E+03 -0.65249671390E+02  0.35572187800E+03  0.44485925617E+03  0.17785638812E+03 0.  0.
        -24    2    3    3    0    0  0.48690642657E+02  0.27857264862E+02  0.10922463047E+03  0.14660880221E+03  0.80108146267E+02 0.  0.
          6    2    1    2  501    0 -0.18833823004E+03  0.65249671390E+02 -0.18845523557E+02  0.26649093639E+03  0.17587909742E+03 0.  0.
         24    2    5    5    0    0 -0.11624089294E+02  0.81153336840E+01 -0.95137365345E+01  0.80476441438E+02  0.78644569749E+02 0.  0.
          5    1    5    5  501    0 -0.17671414074E+03  0.57134337706E+02 -0.93317870226E+01  0.18601449495E+03  0.47000000000E+01 0. -1.
        -11    1    6    6    0    0 -0.23069704897E+02 -0.30021155288E+02  0.48008226903E+01  0.38164498521E+02  0.00000000000E+00 0.  1.
         12    1    6    6    0    0  0.11445615603E+02  0.38136488972E+02 -0.14314559225E+02  0.42311942917E+02  0.00000000000E+00 0. -1.
         -5    1    3    3    0  503  0.13964758738E+03 -0.93106936252E+02  0.24649724754E+03  0.29825045395E+03  0.47000000000E+01 0.  1.
         11    1    4    4    0    0  0.10314382082E+02 -0.27978511539E+02  0.38057258526E+02  0.48348097297E+02  0.00000000000E+00 0. -1.
        -12    1    4    4    0    0  0.38376260574E+02  0.55835776401E+02  0.71167371941E+02  0.98260704918E+02  0.00000000000E+00 0.  1.
</event>
<event>
12    1  0.1630640E-001  0.1789117E+03  0.7818608E-02  0.1169191E+00
         21   -1    0    0  501  502  0.00000000000E+00  0.00000000000E+00  0.40428199715E+02  0.40428199715E+02  0.00000000000E+00 0.  1.
         21   -1    0    0  502  503 -0.00000000000E+00 -0.00000000000E+00 -0.78637904131E+03  0.78637904131E+03  0.00000000000E+00 0.  1.
         -6    2    1    2    0  503 -0.30764723168E+02 -0.39346890438E+02 -0.38561049709E+03  0.42509394042E+03  0.17179859353E+03 0.  0.
        -24    2    3    3    0    0 -0.54561253391E+02 -0.68683212631E+02 -0.17681781269E+03  0.21285970730E+03  0.79689409826E+02 0.  0.
          6    2    1    2  501    0  0.30764723168E+02  0.39346890438E+02 -0.36034034450E+03  0.40171330060E+03  0.17039297528E+03 0.  0.
         24    2    5    5    0    0 -0.48649424617E+02  0.24320688994E+02 -0.18935400711E+03  0.21252870511E+03  0.79719809682E+02 0.  0.
          5    1    5    5  501    0  0.79414147785E+02  0.15026201445E+02 -0.17098633739E+03  0.18918459550E+03  0.47000000000E+01 0. -1.
        -13    1    6    6    0    0  0.17735345555E+02  0.79981809051E+01 -0.13028473120E+02  0.23414834862E+02  0.00000000000E+00 0.  1.
         14    1    6    6    0    0 -0.66384770172E+02  0.16322508089E+02 -0.17632553399E+03  0.18911387024E+03  0.00000000000E+00 0. -1.
         -5    1    3    3    0  503  0.23796530223E+02  0.29336322192E+02 -0.20879268440E+03  0.21223423312E+03  0.47000000000E+01 0.  1.
         13    1    4    4    0    0 -0.30688202552E+01 -0.17864079789E+02 -0.11865671556E+03  0.12003315855E+03  0.00000000000E+00 0. -1.
        -14    1    4    4    0    0 -0.51492433135E+02 -0.50819132842E+02 -0.58161097127E+02  0.92826548745E+02  0.00000000000E+00 0.  1.
</event>
<event>
12    1  0.1630640E-001  0.1953095E+03  0.7818608E-02  0.1154808E+00
         21   -1    0    0  503  502  0.00000000000E+00  0.00000000000E+00  0.20965094413E+03  0.20965094413E+03  0.00000000000E+00 0.  1.
         21   -1    0    0  501  503 -0.00000000000E+00 -0.00000000000E+00 -0.17866130450E+03  0.17866130450E+03  0.00000000000E+00 0.  1.
          6    2    1    2  501    0  0.81456442090E+02  0.17575409574E+02  0.31076091269E+02  0.19776634248E+03  0.17664018736E+03 0.  0.
         24    2    3    3    0    0  0.85871081050E+02 -0.49348043244E+02  0.22055313183E+02  0.12993049642E+03  0.81156793471E+02 0.  0.
         -6    2    1    2    0  502 -0.81456442090E+02 -0.17575409574E+02 -0.86451642999E-01  0.19054590615E+03  0.17135836104E+03 0.  0.
        -24    2    5    5    0    0 -0.38445943129E+02 -0.70705616781E+00 -0.67660597284E+02  0.10855322644E+03  0.75678636836E+02 0.  0.
          5    1    3    3  501    0 -0.44146389600E+01  0.66923452817E+02  0.90207780856E+01  0.67835846066E+02  0.47000000000E+01 0. -1.
        -13    1    4    4    0    0 -0.96389462390E-01 -0.17418373273E+00 -0.21669209239E+02  0.21670123672E+02  0.00000000000E+00 0.  1.
         14    1    4    4    0    0  0.85967470512E+02 -0.49173859511E+02  0.43724522423E+02  0.10826037274E+03  0.00000000000E+00 0. -1.
         -5    1    5    5    0  502 -0.43010498961E+02 -0.16868353406E+02  0.67574145641E+02  0.81992679713E+02  0.47000000000E+01 0.  1.
         11    1    6    6    0    0  0.13796819093E+02  0.23220601862E+02 -0.16747334817E+02  0.31780840005E+02  0.00000000000E+00 0. -1.
        -12    1    6    6    0    0 -0.52242762222E+02 -0.23927658030E+02 -0.50913262466E+02  0.76772386431E+02  0.00000000000E+00 0.  1.
</event>
<event>
12    1  0.1630640E-001  0.2133095E+03  0.7818608E-02  0.1139444E+00
         21   -1    0    0  503  502  0.00000000000E+00  0.00000000000E+00  0.17556046798E+03  0.17556046798E+03  0.00000000000E+00 0.  1.
         21   -1    0    0  501  503 -0.00000000000E+00 -0.00000000000E+00 -0.35454603920E+03  0.35454603920E+03  0.00000000000E+00 0.  1.
          6    2    1    2  501    0  0.98369925644E+02  0.77787439911E+02 -0.22868873393E+03  0.31108289684E+03  0.16954793895E+03 0.  0.
         24    2    3    3    0    0  0.32832635443E+02  0.12763086450E+02 -0.19396783608E+03  0.21233608070E+03  0.78880995227E+02 0.  0.
         -6    2    1    2    0  502 -0.98369925644E+02 -0.77787439911E+02  0.49703162705E+02  0.21902361034E+03  0.17254973029E+03 0.  0.
        -24    2    5    5    0    0 -0.79466907946E+02 -0.58648074311E+02 -0.34120062027E+02  0.13086430908E+03  0.78782629299E+02 0.  0.
          5    1    3    3  501    0  0.65537290201E+02  0.65024353462E+02 -0.34720897847E+02  0.98746816138E+02  0.47000000000E+01 0. -1.
        -11    1    4    4    0    0  0.58116955045E+02  0.69623995915E+01 -0.11217089860E+03  0.12652417146E+03  0.00000000000E+00 0.  1.
         12    1    4    4    0    0 -0.25284319602E+02  0.58006868583E+01 -0.81796937485E+02  0.85811909242E+02  0.00000000000E+00 0. -1.
         -5    1    5    5    0  502 -0.18903017698E+02 -0.19139365600E+02  0.83823224732E+02  0.88159301257E+02  0.47000000000E+01 0.  1.
         13    1    6    6    0    0 -0.74086069971E+02 -0.65366852734E+02 -0.32903283385E+01  0.98855437183E+02  0.00000000000E+00 0. -1.
        -14    1    6    6    0    0 -0.53808379754E+01  0.67187784223E+01 -0.30829733689E+02  0.32008871897E+02  0.00000000000E+00 0.  1.
</event>
<event>
12    1  0.1630640E-001  0.2425841E+03  0.7818608E-02  0.1118097E+00
         21   -1    0    0  501  502  0.00000000000E+00  0.00000000000E+00  0.60019872649E+03  0.60019872649E+03  0.00000000000E+00 0.  1.
         21   -1    0    0  502  503 -0.00000000000E+00 -0.00000000000E+00 -0.10205620048E+03  0.10205620048E+03  0.00000000000E+00 0. -1.
         -6    2    1    2    0  503 -0.16983460587E+03  0.12921071364E+02  0.17912417049E+03  0.30148100094E+03  0.17261106002E+03 0.  0.
        -24    2    3    3    0    0 -0.10287753001E+03  0.45052297849E+01  0.19233701318E+03  0.23255534818E+03  0.80525648399E+02 0.  0.
          6    2    1    2  501    0  0.16983460587E+03 -0.12921071364E+02  0.31901835552E+03  0.40077392603E+03  0.17273181870E+03 0.  0.
         24    2    5    5    0    0  0.61695204334E+02  0.53893310898E+02  0.13910874914E+03  0.18043816337E+03  0.80597143340E+02 0.  0.
          5    1    5    5  501    0  0.10813940153E+03 -0.66814382262E+02  0.17990960638E+03  0.22033576267E+03  0.47000000000E+01 0. -1.
        -13    1    6    6    0    0 -0.13091666409E+01  0.51341060532E+02  0.70922894932E+02  0.87565263886E+02  0.00000000000E+00 0.  1.
         14    1    6    6    0    0  0.63004370975E+02  0.25522503655E+01  0.68185854205E+02  0.92872899479E+02  0.00000000000E+00 0. -1.
         -5    1    3    3    0  503 -0.66957075858E+02  0.84158415791E+01 -0.13212842696E+02  0.68925652765E+02  0.47000000000E+01 0.  1.
         11    1    4    4    0    0 -0.88407867542E+02  0.21625491967E+02  0.90758655432E+02  0.12853305599E+03  0.00000000000E+00 0. -1.
        -12    1    4    4    0    0 -0.14469662469E+02 -0.17120262182E+02  0.10157835775E+03  0.10402229219E+03  0.00000000000E+00 0.  1.
</event>
<event>
12    1  0.1630640E-001  0.1871232E+03  0.7818608E-02  0.1162308E+00
         21   -1    0    0  501  502  0.00000000000E+00  0.00000000000E+00  0.35660230606E+03  0.35660230606E+03  0.00000000000E+00 0. -1.
         21   -1    0    0  502  503 -0.00000000000E+00 -0.00000000000E+00 -0.17840484912E+03  0.17840484912E+03  0.00000000000E+00 0. -1.
         -6    2    1    2    0  503 -0.39686822381E+02 -0.44456732580E+02 -0.92616254903E+02  0.20878906139E+03  0.17737997785E+03 0.  0.
        -24    2    3    3    0    0 -0.51652571876E+02 -0.25609178411E+02  0.17198923978E+02  0.96629028525E+02  0.75614469299E+02 0.  0.
          6    2    1    2  501    0  0.39686822381E+02  0.44456732580E+02  0.27081371185E+03  0.32621809379E+03  0.17183344625E+03 0.  0.
         24    2    5    5    0    0  0.82446506923E+02  0.14987503974E+02  0.11682919367E+03  0.16364457843E+03  0.78156482636E+02 0.  0.
          5    1    5    5  501    0 -0.42759684542E+02  0.29469228606E+02  0.15398451818E+03  0.16257351536E+03  0.47000000000E+01 0. -1.
        -11    1    6    6    0    0  0.21420990355E+02 -0.31233405694E+02  0.42808515601E+02  0.57157269590E+02  0.00000000000E+00 0.  1.
         12    1    6    6    0    0  0.61025516567E+02  0.46220909669E+02  0.74020678065E+02  0.10648730884E+03  0.00000000000E+00 0. -1.
         -5    1    3    3    0  503  0.11965749495E+02 -0.18847554170E+02 -0.10981517888E+03  0.11216003286E+03  0.47000000000E+01 0.  1.
         13    1    4    4    0    0 -0.29943353331E+02 -0.20756703377E+02 -0.28200345442E+02  0.46072818742E+02  0.00000000000E+00 0. -1.
        -14    1    4    4    0    0 -0.21709218545E+02 -0.48524750341E+01  0.45399269420E+02  0.50556209783E+02  0.00000000000E+00 0.  1.
</event>
<event>
12    1  0.1630640E-001  0.2227819E+03  0.7818608E-02  0.1131873E+00
         21   -1    0    0  501  502  0.00000000000E+00  0.00000000000E+00  0.44877472403E+03  0.44877472403E+03  0.00000000000E+00 0.  1.
         21   -1    0    0  502  503 -0.00000000000E+00 -0.00000000000E+00 -0.13339979114E+03  0.13339979114E+03  0.00000000000E+00 0. -1.
         -6    2    1    2    0  503  0.14116054289E+03  0.13654181555E+01  0.36923612198E+02  0.22556978651E+03  0.17201805780E+03 0.  0.
        -24    2    3    3    0    0  0.15865595848E+02  0.35275493485E+02  0.34456021693E+02  0.95658678565E+02  0.80419449026E+02 0.  0.
          6    2    1    2  501    0 -0.14116054289E+03 -0.13654181555E+01  0.27845132069E+03  0.35660472867E+03  0.17234741448E+03 0.  0.
         24    2    5    5    0    0 -0.10789788217E+03  0.63644849820E+02  0.21338133421E+03  0.25868163292E+03  0.75445169066E+02 0.  0.
          5    1    5    5  501    0 -0.33262660723E+02 -0.65010267976E+02  0.65069986487E+02  0.97923095754E+02  0.47000000000E+01 0. -1.
        -11    1    6    6    0    0 -0.96282723573E+02  0.27572841916E+02  0.11096283568E+03  0.14947700617E+03  0.00000000000E+00 0.  1.
         12    1    6    6    0    0 -0.11615158595E+02  0.36072007904E+02  0.10241849853E+03  0.10920462675E+03  0.00000000000E+00 0. -1.
         -5    1    3    3    0  503  0.12529494704E+03 -0.33910075329E+02  0.24675905051E+01  0.12991110794E+03  0.47000000000E+01 0.  1.
         11    1    4    4    0    0  0.46438757746E+02  0.13910943680E+02  0.62136761924E+01  0.48874148043E+02  0.00000000000E+00 0. -1.
        -12    1    4    4    0    0 -0.30573161898E+02  0.21364549805E+02  0.28242345501E+02  0.46784530522E+02  0.00000000000E+00 0.  1.
</event>
<event>
12    1  0.1630640E-001  0.4077229E+03  0.7818608E-02  0.1041176E+00
         21   -1    0    0  501  502  0.00000000000E+00  0.00000000000E+00  0.16015871429E+03  0.16015871429E+03  0.00000000000E+00 0.  1.
         21   -1    0    0  502  503 -0.00000000000E+00 -0.00000000000E+00 -0.14412911407E+04  0.14412911407E+04  0.00000000000E+00 0. -1.
         -6    2    1    2    0  503  0.35363140983E+03  0.10813239071E+03 -0.10645023593E+04  0.11397501927E+04  0.17063833333E+03 0.  0.
        -24    2    3    3    0    0  0.35902647503E+03  0.94844223434E+02 -0.10563479726E+04  0.11225960054E+04  0.80344979054E+02 0.  0.
          6    2    1    2  501    0 -0.35363140983E+03 -0.10813239071E+03 -0.21663006707E+03  0.46169966227E+03  0.17172712146E+03 0.  0.
         24    2    5    5    0    0 -0.20549090740E+03 -0.42114452079E+02 -0.19454878010E+03  0.29795092208E+03  0.83218892277E+02 0.  0.
          5    1    5    5  501    0 -0.14814050243E+03 -0.66017938635E+02 -0.22081286973E+02  0.16374874019E+03  0.47000000000E+01 0. -1.
        -11    1    6    6    0    0 -0.18252314718E+03 -0.49052751978E+02 -0.13082765705E+03  0.22986245362E+03  0.00000000000E+00 0.  1.
         12    1    6    6    0    0 -0.22967760220E+02  0.69382998991E+01 -0.63721123048E+02  0.68088468462E+02  0.00000000000E+00 0. -1.
         -5    1    3    3    0  503 -0.53950652032E+01  0.13288167280E+02 -0.81543867080E+01  0.17154187267E+02  0.47000000000E+01 0.  1.
         11    1    4    4    0    0  0.19377331415E+03  0.92369844566E+02 -0.59611490093E+03  0.63358761081E+03  0.00000000000E+00 0. -1.
        -12    1    4    4    0    0  0.16525316088E+03  0.24743788676E+01 -0.46023307171E+03  0.48900839464E+03  0.00000000000E+00 0.  1.
</event>
<event>
12    1  0.1630640E-001  0.1905768E+03  0.7818608E-02  0.1158138E+00
         21   -1    0    0  501  502  0.00000000000E+00  0.00000000000E+00  0.24998739271E+03  0.24998739271E+03  0.00000000000E+00 0.  1.
         21   -1    0    0  502  503 -0.00000000000E+00 -0.00000000000E+00 -0.18032570537E+03  0.18032570537E+03  0.00000000000E+00 0.  1.
         -6    2    1    2    0  503 -0.69844783583E+02  0.40925021550E+02 -0.60971323822E+02  0.19926220378E+03  0.17156565024E+03 0.  0.
        -24    2    3    3    0    0 -0.11475914436E+03  0.27223099524E+02 -0.49322327440E+02  0.15065323765E+03  0.79705380430E+02 0.  0.
          6    2    1    2  501    0  0.69844783583E+02 -0.40925021550E+02  0.13063301116E+03  0.23105089431E+03  0.17252936264E+03 0.  0.
         24    2    5    5    0    0  0.52927228071E+02 -0.39798851440E+02  0.16600875576E+03  0.19154133534E+03  0.68876237596E+02 0.  0.
          5    1    5    5  501    0  0.16917555512E+02 -0.11261701108E+01 -0.35375744606E+02  0.39509558970E+02  0.47000000000E+01 0. -1.
        -13    1    6    6    0    0  0.13894989212E+02 -0.44508054896E+02  0.46990968096E+02  0.66198102378E+02  0.00000000000E+00 0.  1.
         14    1    6    6    0    0  0.39032238860E+02  0.47092034559E+01  0.11901778767E+03  0.12534323296E+03  0.00000000000E+00 0. -1.
         -5    1    3    3    0  503  0.44914360775E+02  0.13701922026E+02 -0.11648996382E+02  0.48608966125E+02  0.47000000000E+01 0.  1.
         13    1    4    4    0    0 -0.86722104750E+02 -0.15314851645E+02 -0.15279943261E+02  0.89379778469E+02  0.00000000000E+00 0. -1.
        -14    1    4    4    0    0 -0.28037039608E+02  0.42537951169E+02 -0.34042384179E+02  0.61273459183E+02  0.00000000000E+00 0.  1.
</event>
<event>
12    1  0.1630640E-001  0.1892848E+03  0.7818608E-02  0.1159127E+00
         21   -1    0    0  501  502  0.00000000000E+00  0.00000000000E+00  0.72617175554E+02  0.72617175554E+02  0.00000000000E+00 0.  1.
         21   -1    0    0  502  503 -0.00000000000E+00 -0.00000000000E+00 -0.50599911964E+03  0.50599911964E+03  0.00000000000E+00 0.  1.
         -6    2    1    2    0  503  0.14699246507E+02  0.76017605375E+02 -0.17059307353E+03  0.25475410610E+03  0.17263520401E+03 0.  0.
        -24    2    3    3    0    0 -0.48542015803E+02  0.80339508451E+02 -0.98174393759E+02  0.15839700317E+03  0.81490092086E+02 0.  0.
          6    2    1    2  501    0 -0.14699246507E+02 -0.76017605375E+02 -0.26278887055E+03  0.32386218909E+03  0.17272516569E+03 0.  0.
         24    2    5    5    0    0 -0.43117042344E+02  0.18807530490E+02 -0.13171950270E+03  0.15954345400E+03  0.76754698745E+02 0.  0.
          5    1    5    5  501    0  0.28417795838E+02 -0.94825135865E+02 -0.13106936785E+03  0.16431873509E+03  0.47000000000E+01 0. -1.
        -13    1    6    6    0    0  0.20901201403E+02  0.64906500306E+01 -0.17473116569E+02  0.28005330931E+02  0.00000000000E+00 0.  1.
         14    1    6    6    0    0 -0.64018243748E+02  0.12316880460E+02 -0.11424638613E+03  0.13153812307E+03  0.00000000000E+00 0. -1.
         -5    1    3    3    0  503  0.63241262309E+02 -0.43219030762E+01 -0.72418679773E+02  0.96357102928E+02  0.47000000000E+01 0.  1.
         11    1    4    4    0    0 -0.16657199810E+01  0.14884660739E+02 -0.72295712900E+02  0.73830873299E+02  0.00000000000E+00 0. -1.
        -12    1    4    4    0    0 -0.46876295822E+02  0.65454847712E+02 -0.25878680858E+02  0.84566129874E+02  0.00000000000E+00 0.  1.
</event>
<event>
12    1  0.1630640E-001  0.1825501E+03  0.7818608E-02  0.1165520E+00
         21   -1    0    0  503  502  0.00000000000E+00  0.00000000000E+00  0.59514887695E+02  0.59514887695E+02  0.00000000000E+00 0.  1.
         21   -1    0    0  501  503 -0.00000000000E+00 -0.00000000000E+00 -0.61931097876E+03  0.61931097876E+03  0.00000000000E+00 0. -1.
          6    2    1    2  501    0 -0.39609606828E+02  0.48683188241E+02 -0.17343888872E+03  0.25180469039E+03  0.17142222788E+03 0.  0.
         24    2    3    3    0    0 -0.51021485457E+02  0.40505204673E+02 -0.28417817700E+02  0.10602982483E+03  0.78682194980E+02 0.  0.
         -6    2    1    2    0  502  0.39609606828E+02 -0.48683188241E+02 -0.38635720235E+03  0.42702117607E+03  0.17069336025E+03 0.  0.
        -24    2    5    5    0    0  0.76611522204E+02 -0.75472021886E+02 -0.30407601534E+03  0.33279237429E+03  0.81995059952E+02 0.  0.
          5    1    3    3  501    0  0.11411878630E+02  0.81779835676E+01 -0.14502107102E+03  0.14577486556E+03  0.47000000000E+01 0. -1.
        -11    1    4    4    0    0 -0.56337590310E+02  0.14469984810E+02 -0.46008449913E+02  0.74162537752E+02  0.00000000000E+00 0.  1.
         12    1    4    4    0    0  0.53161048530E+01  0.26035219863E+02  0.17590632213E+02  0.31867287079E+02  0.00000000000E+00 0. -1.
         -5    1    5    5    0  502 -0.37001915377E+02  0.26788833645E+02 -0.82281187005E+02  0.94228801778E+02  0.47000000000E+01 0.  1.
         13    1    6    6    0    0  0.33517241308E+02 -0.42015738059E+02 -0.25095492618E+03  0.25664587018E+03  0.00000000000E+00 0. -1.
        -14    1    6    6    0    0  0.43094280896E+02 -0.33456283827E+02 -0.53121089165E+02  0.76146504106E+02  0.00000000000E+00 0.  1.
</event>
<event>
12    1  0.1630640E-001  0.1882348E+03  0.7818608E-02  0.1160105E+00
         21   -1    0    0  501  502  0.00000000000E+00  0.00000000000E+00  0.47367871663E+03  0.47367871663E+03  0.00000000000E+00 0. -1.
         21   -1    0    0  502  503 -0.00000000000E+00 -0.00000000000E+00 -0.22216366315E+03  0.22216366315E+03  0.00000000000E+00 0. -1.
         -6    2    1    2    0  503  0.59923630500E+02  0.49175182121E+02 -0.15765058285E+03  0.24553219979E+03  0.17153225595E+03 0.  0.
        -24    2    3    3    0    0  0.69865132796E+02 -0.18437255589E+02 -0.13352758585E+03  0.17290793259E+03  0.82743385219E+02 0.  0.
          6    2    1    2  501    0 -0.59923630500E+02 -0.49175182121E+02  0.40916563633E+03  0.45031017999E+03  0.17132921589E+03 0.  0.
         24    2    5    5    0    0 -0.64869091354E+02 -0.72169240410E+02  0.40736530261E+03  0.42625783081E+03  0.79579207584E+02 0.  0.
          5    1    5    5  501    0  0.49454608534E+01  0.22994058289E+02  0.18003337222E+01  0.24052349182E+02  0.47000000000E+01 0. -1.
        -13    1    6    6    0    0 -0.21087211436E+01  0.15379494456E+02  0.29458949141E+02  0.33298727289E+02  0.00000000000E+00 0.  1.
         14    1    6    6    0    0 -0.62760370210E+02 -0.87548734866E+02  0.37790635347E+03  0.39295910352E+03  0.00000000000E+00 0. -1.
         -5    1    3    3    0  503 -0.99415022952E+01  0.67612437709E+02 -0.24122997003E+02  0.72624267193E+02  0.47000000000E+01 0.  1.
         13    1    4    4    0    0 -0.11731612444E+02 -0.20391809045E+02 -0.54216554257E+02  0.59100688339E+02  0.00000000000E+00 0. -1.
        -14    1    4    4    0    0  0.81596745239E+02  0.19545534562E+01 -0.79311031588E+02  0.11380724425E+03  0.00000000000E+00 0.  1.
</event>
<event>
12    1  0.1630640E-001  0.1911044E+03  0.7818608E-02  0.1157637E+00
         21   -1    0    0  503  502  0.00000000000E+00  0.00000000000E+00  0.48001990982E+02  0.48001990982E+02  0.00000000000E+00 0. -1.
         21   -1    0    0  501  503 -0.00000000000E+00 -0.00000000000E+00 -0.83106381111E+03  0.83106381111E+03  0.00000000000E+00 0.  1.
          6    2    1    2  501    0  0.31340359084E+02 -0.72465730085E+02 -0.26036097672E+03  0.32252553746E+03  0.17320907589E+03 0.  0.
         24    2    3    3    0    0 -0.12588967239E+02 -0.61960026088E+02 -0.67102979473E+02  0.12400375269E+03  0.82925230770E+02 0.  0.
         -6    2    1    2    0  502 -0.31340359084E+02  0.72465730085E+02 -0.52270084340E+03  0.55654026463E+03  0.17403273920E+03 0.  0.
        -24    2    5    5    0    0 -0.23631708067E+02  0.48079781228E+02 -0.12560909356E+03  0.15859800048E+03  0.80657041738E+02 0.  0.
          5    1    3    3  501    0  0.43929326323E+02 -0.10505703996E+02 -0.19325799725E+03  0.19852178477E+03  0.47000000000E+01 0. -1.
        -11    1    4    4    0    0 -0.18740798098E+02  0.15424405830E+02 -0.28088410645E+02  0.37122616033E+02  0.00000000000E+00 0.  1.
         12    1    4    4    0    0  0.61518308595E+01 -0.77384431918E+02 -0.39014568827E+02  0.86881136658E+02  0.00000000000E+00 0. -1.
         -5    1    5    5    0  502 -0.77086510171E+01  0.24385948857E+02 -0.39709174984E+03  0.39794226415E+03  0.47000000000E+01 0.  1.
         11    1    6    6    0    0 -0.22865393570E+01  0.67722059874E+02 -0.85368230668E+02  0.10899192843E+03  0.00000000000E+00 0. -1.
        -12    1    6    6    0    0 -0.21345168710E+02 -0.19642278646E+02 -0.40240862895E+02  0.49606072050E+02  0.00000000000E+00 0.  1.
</event>
<event>
12    1  0.1630640E-001  0.1856000E+03  0.7818608E-02  0.1162671E+00
         21   -1    0    0  501  502  0.00000000000E+00  0.00000000000E+00  0.55254511822E+02  0.55254511822E+02  0.00000000000E+00 0.  1.
         21   -1    0    0  502  503 -0.00000000000E+00 -0.00000000000E+00 -0.64064274097E+03  0.64064274097E+03  0.00000000000E+00 0.  1.
         -6    2    1    2    0  503 -0.36648267971E+02  0.55374644944E+02 -0.23091798021E+03  0.29577661506E+03  0.17248549382E+03 0.  0.
        -24    2    3    3    0    0 -0.39005996047E+01 -0.24539675113E+02 -0.15675156154E+03  0.18184042242E+03  0.88755151112E+02 0.  0.
          6    2    1    2  501    0  0.36648267971E+02 -0.55374644944E+02 -0.35447024894E+03  0.40012063774E+03  0.17331451329E+03 0.  0.
         24    2    5    5    0    0  0.52333319399E+02  0.23502689261E+02 -0.17488086595E+03  0.20329053036E+03  0.86328267310E+02 0.  0.
          5    1    5    5  501    0 -0.15685051428E+02 -0.78877334205E+02 -0.17958938298E+03  0.19683010738E+03  0.47000000000E+01 0. -1.
        -11    1    6    6    0    0  0.62650263102E+02  0.31702620110E+01 -0.16822246838E+03  0.17953803189E+03  0.00000000000E+00 0.  1.
         12    1    6    6    0    0 -0.10316943703E+02  0.20332427250E+02 -0.66583975712E+01  0.23752498468E+02  0.00000000000E+00 0. -1.
         -5    1    3    3    0  503 -0.32747668366E+02  0.79914320057E+02 -0.74166418677E+02  0.11393619264E+03  0.47000000000E+01 0.  1.
         11    1    4    4    0    0 -0.17553794145E+01  0.28363055388E+02 -0.18789261725E+02  0.34067295519E+02  0.00000000000E+00 0. -1.
        -12    1    4    4    0    0 -0.21452201901E+01 -0.52902730500E+02 -0.13796229981E+03  0.14777312690E+03  0.00000000000E+00 0.  1.
</event>
<event>
12    1  0.1630640E-001  0.2896720E+03  0.7818608E-02  0.1091039E+00
         21   -1    0    0  503  502  0.00000000000E+00  0.00000000000E+00  0.21958543458E+04  0.21958543458E+04  0.00000000000E+00 0. -1.
         21   -1    0    0  501  503 -0.00000000000E+00 -0.00000000000E+00 -0.41945518617E+02  0.41945518617E+02  0.00000000000E+00 0. -1.
          6    2    1    2  501    0  0.19627974921E+03 -0.12385391025E+03  0.71415236636E+03  0.76919218347E+03  0.16666577841E+03 0.  0.
         24    2    3    3    0    0  0.71654004262E+02 -0.62031651262E+02  0.49348111141E+03  0.50828710346E+03  0.76484966781E+02 0.  0.
         -6    2    1    2    0  502 -0.19627974921E+03  0.12385391025E+03  0.14397564608E+04  0.14686076810E+04  0.17333298312E+03 0.  0.
        -24    2    5    5    0    0 -0.15760173144E+03  0.44716474144E+02  0.69399663076E+03  0.71764926866E+03  0.80939980819E+02 0.  0.
          5    1    3    3  501    0  0.12462574495E+03 -0.61822258986E+02  0.22067125496E+03  0.26090508001E+03  0.47000000000E+01 0. -1.
        -13    1    4    4    0    0  0.23295384467E+02 -0.71859543115E+01  0.28119069995E+02  0.37215520609E+02  0.00000000000E+00 0.  1.
         14    1    4    4    0    0  0.48358619795E+02 -0.54845696950E+02  0.46536204141E+03  0.47107158285E+03  0.00000000000E+00 0. -1.
         -5    1    5    5    0  502 -0.38678017773E+02  0.79137436104E+02  0.74575983007E+03  0.75095841230E+03  0.47000000000E+01 0.  1.
         11    1    6    6    0    0 -0.59184200034E+02  0.31665687593E+02  0.43732724174E+03  0.44244841696E+03  0.00000000000E+00 0. -1.
        -12    1    6    6    0    0 -0.98417531404E+02  0.13050786551E+02  0.25666938902E+03  0.27520085170E+03  0.00000000000E+00 0.  1.
</event>
<event>
12    1  0.1630640E-001  0.2463240E+03  0.7818608E-02  0.1115810E+00
         21   -1    0    0  501  502  0.00000000000E+00  0.00000000000E+00  0.70768702945E+03  0.70768702945E+03  0.00000000000E+00 0. -1.
         21   -1    0    0  502  503 -0.00000000000E+00 -0.00000000000E+00 -0.87402828215E+02  0.87402828215E+02  0.00000000000E+00 0. -1.
         -6    2    1    2    0  503 -0.36139035901E+02 -0.17027930645E+03  0.37104110984E+03  0.44536168947E+03  0.17428269317E+03 0.  0.
        -24    2    3    3    0    0 -0.14771205605E+02 -0.18097409088E+03  0.37133660920E+03  0.42100722571E+03  0.79914934060E+02 0.  0.
          6    2    1    2  501    0  0.36139035901E+02  0.17027930645E+03  0.24924309139E+03  0.34972816819E+03  0.17287741580E+03 0.  0.
         24    2    5    5    0    0  0.28313424480E+02  0.46623888911E+02  0.36344586115E+02  0.10335494312E+03  0.79911690659E+02 0.  0.
          5    1    5    5  501    0  0.78256114213E+01  0.12365541754E+03  0.21289850528E+03  0.24637322507E+03  0.47000000000E+01 0. -1.
        -11    1    6    6    0    0  0.29483393608E+00 -0.22300970698E+02  0.97753483942E+01  0.24351132568E+02  0.00000000000E+00 0.  1.
         12    1    6    6    0    0  0.28018590544E+02  0.68924859609E+02  0.26569237720E+02  0.79003810549E+02  0.00000000000E+00 0. -1.
         -5    1    3    3    0  503 -0.21367830296E+02  0.10694784425E+02 -0.29549935612E+00  0.24354463766E+02  0.47000000000E+01 0.  1.
         13    1    4    4    0    0  0.32942817888E+02 -0.72039756719E+02  0.13832879406E+03  0.15940455158E+03  0.00000000000E+00 0. -1.
        -14    1    4    4    0    0 -0.47714023493E+02 -0.10893433416E+03  0.23300781513E+03  0.26160267413E+03  0.00000000000E+00 0.  1.
</event>
<event>
12    1  0.1630640E-001  0.2052399E+03  0.7818608E-02  0.1145598E+00
         21   -1    0    0  503  502  0.00000000000E+00  0.00000000000E+00  0.25708280702E+04  0.25708280702E+04  0.00000000000E+00 0.  1.
         21   -1    0    0  501  503 -0.00000000000E+00 -0.00000000000E+00 -0.16844628210E+02  0.16844628210E+02  0.00000000000E+00 0.  1.
          6    2    1    2  501    0 -0.52691413846E+02  0.10005232210E+03  0.10484107853E+04  0.10683110980E+04  0.17127923115E+03 0.  0.
         24    2    3    3    0    0 -0.65536482432E+01  0.11252832923E+03  0.53461425117E+03  0.55227494355E+03  0.80558305163E+02 0.  0.
         -6    2    1    2    0  502  0.52691413846E+02 -0.10005232210E+03  0.15055726567E+04  0.15193616004E+04  0.17006997420E+03 0.  0.
        -24    2    5    5    0    0  0.46430673884E+02  0.39297658510E+01  0.51199006049E+03  0.52032209325E+03  0.80187331624E+02 0.  0.
          5    1    3    3  501    0 -0.46137765603E+02 -0.12476007128E+02  0.51379653418E+03  0.51603615445E+03  0.47000000000E+01 0. -1.
        -11    1    4    4    0    0 -0.29125311696E+02  0.66493965674E+01  0.13411664886E+03  0.13740368903E+03  0.00000000000E+00 0.  1.
         12    1    4    4    0    0  0.22571663453E+02  0.10587893266E+03  0.40049760231E+03  0.41487125452E+03  0.00000000000E+00 0. -1.
         -5    1    5    5    0  502  0.62607399629E+01 -0.10398208795E+03  0.99358259617E+03  0.99903950717E+03  0.47000000000E+01 0.  1.
         11    1    6    6    0    0 -0.22029719574E+02 -0.68164315169E+01  0.10838923062E+03  0.11081515058E+03  0.00000000000E+00 0. -1.
        -12    1    6    6    0    0  0.68460393458E+02  0.10746197368E+02  0.40360082987E+03  0.40950694268E+03  0.00000000000E+00 0.  1.
</event>
<event>
12    1  0.1630640E-001  0.1713677E+03  0.7818608E-02  0.1176554E+00
         21   -1    0    0  503  502  0.00000000000E+00  0.00000000000E+00  0.26884052639E+02  0.26884052639E+02  0.00000000000E+00 0. -1.
         21   -1    0    0  501  503 -0.00000000000E+00 -0.00000000000E+00 -0.13744241794E+04  0.13744241794E+04  0.00000000000E+00 0. -1.
          6    2    1    2  501    0  0.22818642344E+01 -0.11714928956E+02 -0.99366743501E+03  0.10083361888E+04  0.17095160653E+03 0.  0.
         24    2    3    3    0    0  0.58038120652E+02 -0.18088887100E+02 -0.41500972203E+03  0.42694455980E+03  0.79705435714E+02 0.  0.
         -6    2    1    2    0  502 -0.22818642344E+01  0.11714928956E+02 -0.35387269177E+03  0.39297204325E+03  0.17046612079E+03 0.  0.
        -24    2    5    5    0    0  0.42682357549E+02 -0.40852640221E+02 -0.16983954959E+03  0.19631137614E+03  0.78752536082E+02 0.  0.
          5    1    3    3  501    0 -0.55756256417E+02  0.63739581431E+01 -0.57865771298E+03  0.58139162899E+03  0.47000000000E+01 0. -1.
        -13    1    4    4    0    0  0.71132184309E+02  0.82479539147E+00 -0.23674374408E+03  0.24720046175E+03  0.00000000000E+00 0.  1.
         14    1    4    4    0    0 -0.13094063657E+02 -0.18913682491E+02 -0.17826597795E+03  0.17974409805E+03  0.00000000000E+00 0. -1.
         -5    1    5    5    0  502 -0.44964221783E+02  0.52567569177E+02 -0.18403314218E+03  0.19666066711E+03  0.47000000000E+01 0.  1.
         13    1    6    6    0    0  0.44909902246E+02  0.11163767322E+02 -0.75288275212E+02  0.88373374978E+02  0.00000000000E+00 0. -1.
        -14    1    6    6    0    0 -0.22275446976E+01 -0.52016407542E+02 -0.94551274376E+02  0.10793800116E+03  0.00000000000E+00 0.  1.
</event>
<event>
12    1  0.1630640E-001  0.1964985E+03  0.7818608E-02  0.1152842E+00
         21   -1    0    0  501  502  0.00000000000E+00  0.00000000000E+00  0.49254744490E+02  0.49254744490E+02  0.00000000000E+00 0. -1.
         21   -1    0    0  502  503 -0.00000000000E+00 -0.00000000000E+00 -0.10321149674E+04  0.10321149674E+04  0.00000000000E+00 0.  1.
         -6    2    1    2    0  503 -0.89908585148E+02  0.12828496649E+02 -0.75719833081E+03  0.78214581128E+03  0.17365089666E+03 0.  0.
        -24    2    3    3    0    0 -0.17564486447E+02 -0.46324506590E+02 -0.26493722938E+03  0.28107113781E+03  0.79716860854E+02 0.  0.
          6    2    1    2  501    0  0.89908585148E+02 -0.12828496649E+02 -0.22566189214E+03  0.29922390065E+03  0.17425133901E+03 0.  0.
         24    2    5    5    0    0 -0.14996903821E+02 -0.12080863616E+02 -0.14752661686E+03  0.16833107497E+03  0.78742578888E+02 0.  0.
          5    1    5    5  501    0  0.10490548897E+03 -0.74763303335E+00 -0.78135275282E+02  0.13089282568E+03  0.47000000000E+01 0. -1.
        -11    1    6    6    0    0 -0.10418403550E+02  0.33094770332E+02 -0.51329036636E+02  0.61955443327E+02  0.00000000000E+00 0.  1.
         12    1    6    6    0    0 -0.45785002706E+01 -0.45175633948E+02 -0.96197580225E+02  0.10637563165E+03  0.00000000000E+00 0. -1.
         -5    1    3    3    0  503 -0.72344098701E+02  0.59153003239E+02 -0.49226110143E+03  0.50107467347E+03  0.47000000000E+01 0.  1.
         13    1    4    4    0    0  0.98402662270E+01  0.15638656073E+02 -0.21341707559E+02  0.28228830736E+02  0.00000000000E+00 0. -1.
        -14    1    4    4    0    0 -0.27404752674E+02 -0.61963162663E+02 -0.24359552182E+03  0.25284230707E+03  0.00000000000E+00 0.  1.
</event>
<event>
12    1  0.1630640E-001  0.1967912E+03  0.7818608E-02  0.1152810E+00
         21   -1    0    0  501  502  0.00000000000E+00  0.00000000000E+00  0.14824731073E+04  0.14824731073E+04  0.00000000000E+00 0. -1.
         21   -1    0    0  502  503 -0.00000000000E+00 -0.00000000000E+00 -0.32048554662E+02  0.32048554662E+02  0.00000000000E+00 0.  1.
         -6    2    1    2    0  503  0.96250989386E+02 -0.28037068107E+01  0.10587370209E+04  0.10768708707E+04  0.17162365492E+03 0.  0.
        -24    2    3    3    0    0  0.11180206842E+03 -0.46701068483E+02  0.88759419948E+03  0.89944266055E+03  0.80578808396E+02 0.  0.
          6    2    1    2  501    0 -0.96250989386E+02  0.28037068107E+01  0.39168753170E+03  0.43765079126E+03  0.16984398392E+03 0.  0.
         24    2    5    5    0    0 -0.26928832147E+02 -0.50630353009E+02  0.27164739764E+03  0.28901538492E+03  0.80305600239E+02 0.  0.
          5    1    5    5  501    0 -0.69322157238E+02  0.53434059819E+02  0.12004013406E+03  0.14863540634E+03  0.47000000000E+01 0. -1.
        -11    1    6    6    0    0 -0.11638134624E+02  0.62656237620E+01  0.24452123685E+01  0.13441848168E+02  0.00000000000E+00 0.  1.
         12    1    6    6    0    0 -0.15290697523E+02 -0.56895976771E+02  0.26920218527E+03  0.27557353675E+03  0.00000000000E+00 0. -1.
         -5    1    3    3    0  503 -0.15551079035E+02  0.43897361673E+02  0.17114282144E+03  0.17742821014E+03  0.47000000000E+01 0.  1.
         13    1    4    4    0    0  0.14644712475E+02 -0.33212171911E+01  0.40410474058E+03  0.40438365378E+03  0.00000000000E+00 0. -1.
        -14    1    4    4    0    0  0.97157355946E+02 -0.43379851292E+02  0.48348945890E+03  0.49505900677E+03  0.00000000000E+00 0.  1.
</event>
<event>
12    1  0.1630640E-001  0.2070799E+03  0.7818608E-02  0.1144064E+00
         21   -1    0    0  503  502  0.00000000000E+00  0.00000000000E+00  0.16592636682E+04  0.16592636682E+04  0.00000000000E+00 0. -1.
         21   -1    0    0  501  503 -0.00000000000E+00 -0.00000000000E+00 -0.43286474400E+02  0.43286474400E+02  0.00000000000E+00 0. -1.
          6    2    1    2  501    0  0.11257762805E+03  0.20477836758E+02  0.26509559388E+03  0.33588881554E+03  0.17161747689E+03 0.  0.
         24    2    3    3    0    0  0.23935801836E+02 -0.34625583507E+02  0.17549484576E+03  0.19825108690E+03  0.82056071857E+02 0.  0.
         -6    2    1    2    0  502 -0.11257762805E+03 -0.20477836758E+02  0.13508815999E+04  0.13666613271E+04  0.17259496440E+03 0.  0.
        -24    2    5    5    0    0 -0.12016432954E+02 -0.58231280182E+02  0.59901237902E+03  0.60714352490E+03  0.79196925211E+02 0.  0.
          5    1    3    3  501    0  0.88641826217E+02  0.55103420265E+02  0.89600748119E+02  0.13763772863E+03  0.47000000000E+01 0. -1.
        -11    1    4    4    0    0  0.38852369991E+01 -0.59394065512E+02  0.10112579088E+03  0.11734213082E+03  0.00000000000E+00 0.  1.
         12    1    4    4    0    0  0.20050564837E+02  0.24768482005E+02  0.74369054880E+02  0.80908956085E+02  0.00000000000E+00 0. -1.
         -5    1    5    5    0  502 -0.10056119510E+03  0.37753443424E+02  0.75186922093E+03  0.75951780219E+03  0.47000000000E+01 0.  1.
         11    1    6    6    0    0 -0.42526123577E+02 -0.17180091573E+02  0.22294490447E+03  0.22761383342E+03  0.00000000000E+00 0. -1.
        -12    1    6    6    0    0  0.30509690623E+02 -0.41051188609E+02  0.37606747454E+03  0.37952969148E+03  0.00000000000E+00 0.  1.
</event>
<event>
12    1  0.1630640E-001  0.1955748E+03  0.7818608E-02  0.1153794E+00
         21   -1    0    0  501  502  0.00000000000E+00  0.00000000000E+00  0.16475441928E+03  0.16475441928E+03  0.00000000000E+00 0. -1.
         21   -1    0    0  502  503 -0.00000000000E+00 -0.00000000000E+00 -0.23080118961E+03  0.23080118961E+03  0.00000000000E+00 0. -1.
         -6    2    1    2    0  503 -0.10056783981E+02 -0.90686551883E+02 -0.36881101070E+02  0.19781805474E+03  0.17160005119E+03 0.  0.
        -24    2    3    3    0    0  0.69117856131E+01 -0.11695036474E+03 -0.65268500548E+02  0.15532505921E+03  0.78362850006E+02 0.  0.
          6    2    1    2  501    0  0.10056783981E+02  0.90686551883E+02 -0.29165669265E+02  0.19773755415E+03  0.17298645744E+03 0.  0.
         24    2    5    5    0    0 -0.56773867115E+02  0.54435472830E+02 -0.41852704770E+02  0.12051367488E+03  0.81150503682E+02 0.  0.
          5    1    5    5  501    0  0.66830651096E+02  0.36251079053E+02  0.12687035505E+02  0.77223879262E+02  0.47000000000E+01 0. -1.
        -11    1    6    6    0    0  0.13673416613E+02  0.11572539920E+02 -0.33037514459E+02  0.37581423120E+02  0.00000000000E+00 0.  1.
         12    1    6    6    0    0 -0.70447283728E+02  0.42862932910E+02 -0.88151903108E+01  0.82932251763E+02  0.00000000000E+00 0. -1.
         -5    1    3    3    0  503 -0.16968569594E+02  0.26263812861E+02  0.28387399478E+02  0.42492995531E+02  0.47000000000E+01 0.  1.
         13    1    4    4    0    0  0.37877245272E+02 -0.32918265033E+02 -0.13854152220E+02  0.52059921397E+02  0.00000000000E+00 0. -1.
        -14    1    4    4    0    0 -0.30965459659E+02 -0.84032099712E+02 -0.51414348328E+02  0.10326513781E+03  0.00000000000E+00 0.  1.
</event>
<event>
12    1  0.1630640E-001  0.1753838E+03  0.7818608E-02  0.1172563E+00
         21   -1    0    0  503  502  0.00000000000E+00  0.00000000000E+00  0.45144240139E+02  0.45144240139E+02  0.00000000000E+00 0. -1.
         21   -1    0    0  501  503 -0.00000000000E+00 -0.00000000000E+00 -0.69524292526E+03  0.69524292526E+03  0.00000000000E+00 0. -1.
          6    2    1    2  501    0 -0.13930212455E+02 -0.27320068092E+02 -0.38408558440E+03  0.42223358207E+03  0.17268185992E+03 0.  0.
         24    2    3    3    0    0 -0.17149308201E+02  0.51127986999E+02 -0.20103632395E+03  0.22300110059E+03  0.80035726347E+02 0.  0.
         -6    2    1    2    0  502  0.13930212455E+02  0.27320068092E+02 -0.26601310072E+03  0.31815358333E+03  0.17180889351E+03 0.  0.
        -24    2    5    5    0    0  0.56441544907E+02  0.68846618690E+01 -0.80008965933E+02  0.12620450838E+03  0.79329041000E+02 0.  0.
          5    1    3    3  501    0  0.32190957458E+01 -0.78448055091E+02 -0.18304926046E+03  0.19923248148E+03  0.47000000000E+01 0. -1.
        -11    1    4    4    0    0 -0.20268605430E+02  0.48222056778E+02 -0.20819692396E+03  0.21466751564E+03  0.00000000000E+00 0.  1.
         12    1    4    4    0    0  0.31192972289E+01  0.29059302214E+01  0.71606000088E+01  0.83335849512E+01  0.00000000000E+00 0. -1.
         -5    1    5    5    0  502 -0.42511332451E+02  0.20435406223E+02 -0.18600413479E+03  0.19194907495E+03  0.47000000000E+01 0.  1.
         13    1    6    6    0    0  0.36818487872E+01  0.16368338461E+02 -0.69605657425E+02  0.71599064659E+02  0.00000000000E+00 0. -1.
        -14    1    6    6    0    0  0.52759696119E+02 -0.94836765922E+01 -0.10403308508E+02  0.54605443723E+02  0.00000000000E+00 0.  1.
</event>
<event>
12    1  0.1630640E-001  0.1894608E+03  0.7818608E-02  0.1159015E+00
         21   -1    0    0  501  502  0.00000000000E+00  0.00000000000E+00  0.27656829543E+03  0.27656829543E+03  0.00000000000E+00 0. -1.
         21   -1    0    0  502  503 -0.00000000000E+00 -0.00000000000E+00 -0.26020841063E+03  0.26020841063E+03  0.00000000000E+00 0. -1.
         -6    2    1    2    0  503  0.29814149465E+02 -0.71728017619E+02 -0.18197277201E+03  0.26269653084E+03  0.17280505068E+03 0.  0.
        -24    2    3    3    0    0  0.81497959245E+02 -0.42156118143E+02 -0.88107430031E+02  0.15143779699E+03  0.82167094830E+02 0.  0.
          6    2    1    2  501    0 -0.29814149465E+02  0.71728017619E+02  0.19833265681E+03  0.27408017522E+03  0.17248277500E+03 0.  0.
         24    2    5    5    0    0 -0.33402464194E+02 -0.25596988703E+02  0.78470903188E+02  0.11956816003E+03  0.79799322055E+02 0.  0.
          5    1    5    5  501    0  0.35883147291E+01  0.97325006322E+02  0.11986175362E+03  0.15451201519E+03  0.47000000000E+01 0. -1.
        -13    1    6    6    0    0  0.18722545594E+02  0.99781327671E+00 -0.32781609107E+01  0.19033541021E+02  0.00000000000E+00 0.  1.
         14    1    6    6    0    0 -0.52125009788E+02 -0.26594801979E+02  0.81749064099E+02  0.10053461901E+03  0.00000000000E+00 0. -1.
         -5    1    3    3    0  503 -0.51683809781E+02 -0.29571899476E+02 -0.93865341981E+02  0.11125873385E+03  0.47000000000E+01 0.  1.
         11    1    4    4    0    0  0.46465252328E+02 -0.45856956647E+02 -0.95268065095E+02  0.11548975874E+03  0.00000000000E+00 0. -1.
        -12    1    4    4    0    0  0.35032706917E+02  0.37008385043E+01  0.71606350638E+01  0.35948038251E+02  0.00000000000E+00 0.  1.
</event>
<event>
12    1  0.1630640E-001  0.1910499E+03  0.7818608E-02  0.1157536E+00
         21   -1    0    0  503  502  0.00000000000E+00  0.00000000000E+00  0.72153878567E+03  0.72153878567E+03  0.00000000000E+00 0.  1.
         21   -1    0    0  501  503 -0.00000000000E+00 -0.00000000000E+00 -0.61624194821E+02  0.61624194821E+02  0.00000000000E+00 0.  1.
          6    2    1    2  501    0 -0.82294806989E+02 -0.22082116015E+02  0.16412921028E+03  0.25186991060E+03  0.17099707335E+03 0.  0.
         24    2    3    3    0    0 -0.12215470041E+03 -0.25892785635E+01  0.12323864869E+03  0.19134793243E+03  0.80608879903E+02 0.  0.
         -6    2    1    2    0  502  0.82294806989E+02  0.22082116015E+02  0.49578538057E+03  0.53129306988E+03  0.17090677990E+03 0.  0.
        -24    2    5    5    0    0  0.57207057494E+02 -0.42106082837E+02  0.19264034386E+03  0.22037744897E+03  0.80064650710E+02 0.  0.
          5    1    3    3  501    0  0.39859893417E+02 -0.19492837452E+02  0.40890561581E+02  0.60521978170E+02  0.47000000000E+01 0. -1.
        -13    1    4    4    0    0 -0.15691926083E+02 -0.12295095051E+02  0.68306680170E+02  0.71156225746E+02  0.00000000000E+00 0.  1.
         14    1    4    4    0    0 -0.10646277432E+03  0.97058164875E+01  0.54931968524E+02  0.12019170669E+03  0.00000000000E+00 0. -1.
         -5    1    5    5    0  502  0.25087749495E+02  0.64188198852E+02  0.30314503671E+03  0.31091562091E+03  0.47000000000E+01 0.  1.
         13    1    6    6    0    0 -0.71693872515E+01  0.13435212812E+02  0.82298294794E+01  0.17309972563E+02  0.00000000000E+00 0. -1.
        -14    1    6    6    0    0  0.64376444745E+02 -0.55541295649E+02  0.18441051438E+03  0.20306747641E+03  0.00000000000E+00 0.  1.
</event>
<event>
12    1  0.1630640E-001  0.1886236E+03  0.7818608E-02  0.1160186E+00
         21   -1    0    0  501  502  0.00000000000E+00  0.00000000000E+00  0.76408818446E+02  0.76408818446E+02  0.00000000000E+00 0. -1.
         21   -1    0    0  502  503 -0.00000000000E+00 -0.00000000000E+00 -0.86239679435E+03  0.86239679435E+03  0.00000000000E+00 0. -1.
         -6    2    1    2    0  503  0.22218209211E+02  0.67961627093E+02 -0.71459720798E+03  0.73907240748E+03  0.17454633273E+03 0.  0.
        -24    2    3    3    0    0 -0.14791238453E+02  0.20365486970E+02 -0.62724498427E+03  0.63282932414E+03  0.80019681346E+02 0.  0.
          6    2    1    2  501    0 -0.22218209211E+02 -0.67961627093E+02 -0.71390767925E+02  0.19973320532E+03  0.17229126497E+03 0.  0.
         24    2    5    5    0    0  0.18823027089E+02 -0.52630718401E+01  0.19102364331E+02  0.82146688686E+02  0.77467230912E+02 0.  0.
          5    1    5    5  501    0 -0.41041236300E+02 -0.62698555253E+02 -0.90493132256E+02  0.11758651663E+03  0.47000000000E+01 0. -1.
        -13    1    6    6    0    0 -0.12280929897E+02  0.16186074038E+02 -0.19478641910E+02  0.28146540153E+02  0.00000000000E+00 0.  1.
         14    1    6    6    0    0  0.31103956986E+02 -0.21449145879E+02  0.38581006241E+02  0.54000148534E+02  0.00000000000E+00 0. -1.
         -5    1    3    3    0  503  0.37009447664E+02  0.47596140123E+02 -0.87352223711E+02  0.10624308334E+03  0.47000000000E+01 0.  1.
         11    1    4    4    0    0  0.22024980268E+02  0.12235064337E+01 -0.57670378202E+02  0.61745196135E+02  0.00000000000E+00 0. -1.
        -12    1    4    4    0    0 -0.36816218720E+02  0.19141980536E+02 -0.56957460607E+03  0.57108412800E+03  0.00000000000E+00 0.  1.
</event>
<event>
12    1  0.1630640E-001  0.2566550E+03  0.7818608E-02  0.1109299E+00
         21   -1    0    0  503  502  0.00000000000E+00  0.00000000000E+00  0.46635193995E+03  0.46635193995E+03  0.00000000000E+00 0.  1.
         21   -1    0    0  501  503 -0.00000000000E+00 -0.00000000000E+00 -0.29170823132E+03  0.29170823132E+03  0.00000000000E+00 0. -1.
          6    2    1    2  501    0 -0.18515311590E+03 -0.39046546362E+02 -0.18524188576E+03  0.31652225138E+03  0.17339397414E+03 0.  0.
         24    2    3    3    0    0 -0.13108333750E+03 -0.90386935511E+02 -0.15539369714E+03  0.23607114288E+03  0.78928726771E+02 0.  0.
         -6    2    1    2    0  502  0.18515311590E+03  0.39046546362E+02  0.35988559438E+03  0.44153791990E+03  0.17213885253E+03 0.  0.
        -24    2    5    5    0    0  0.38135974908E+02  0.16603141337E+02  0.39707106026E+02  0.88474043833E+02  0.67238272425E+02 0.  0.
          5    1    3    3  501    0 -0.54069778403E+02  0.51340389150E+02 -0.29848188617E+02  0.80451108497E+02  0.47000000000E+01 0. -1.
        -13    1    4    4    0    0 -0.74871732376E+02 -0.73505559926E+01 -0.85252740550E+02  0.11370064535E+03  0.00000000000E+00 0.  1.
         14    1    4    4    0    0 -0.56211605120E+02 -0.83036379519E+02 -0.70140956590E+02  0.12237049753E+03  0.00000000000E+00 0. -1.
         -5    1    5    5    0  502  0.14701714099E+03  0.22443405024E+02  0.32017848836E+03  0.35306387606E+03  0.47000000000E+01 0.  1.
         11    1    6    6    0    0 -0.16667595700E+02 -0.80824700129E+01  0.55378720189E+01  0.19333988063E+02  0.00000000000E+00 0. -1.
        -12    1    6    6    0    0  0.54803570608E+02  0.24685611350E+02  0.34169234007E+02  0.69140055770E+02  0.00000000000E+00 0.  1.
</event>
<event>
12    1  0.1630640E-001  0.1908441E+03  0.7818608E-02  0.1158080E+00
         21   -1    0    0  503  502  0.00000000000E+00  0.00000000000E+00  0.36110840409E+02  0.36110840409E+02  0.00000000000E+00 0. -1.
         21   -1    0    0  501  503 -0.00000000000E+00 -0.00000000000E+00 -0.10854508500E+04  0.10854508500E+04  0.00000000000E+00 0. -1.
          6    2    1    2  501    0  0.36012967440E+02 -0.73296366510E+02 -0.68010810856E+03  0.70592524320E+03  0.17062859813E+03 0.  0.
         24    2    3    3    0    0 -0.10614112519E+02  0.19311872511E+02 -0.23467412703E+03  0.24855898689E+03  0.78892434744E+02 0.  0.
         -6    2    1    2    0  502 -0.36012967440E+02  0.73296366510E+02 -0.36923190099E+03  0.41563644716E+03  0.17248816867E+03 0.  0.
        -24    2    5    5    0    0 -0.22734864273E+02 -0.30534313997E+01 -0.30259086517E+03  0.31331969722E+03  0.77985918475E+02 0.  0.
          5    1    3    3  501    0  0.46627079959E+02 -0.92608239021E+02 -0.44543398152E+03  0.45736625632E+03  0.47000000000E+01 0. -1.
        -13    1    4    4    0    0 -0.42012865317E+02  0.21894116115E+02 -0.17209575512E+03  0.17849756890E+03  0.00000000000E+00 0.  1.
         14    1    4    4    0    0  0.31398752798E+02 -0.25822436047E+01 -0.62578371909E+02  0.70061417985E+02  0.00000000000E+00 0. -1.
         -5    1    5    5    0  502 -0.13278103167E+02  0.76349797910E+02 -0.66641035817E+02  0.10231674995E+03  0.47000000000E+01 0.  1.
         13    1    6    6    0    0  0.59921806703E+01  0.31201381631E+02 -0.18106997392E+03  0.18383625295E+03  0.00000000000E+00 0. -1.
        -14    1    6    6    0    0 -0.28727044943E+02 -0.34254813030E+02 -0.12152089125E+03  0.12948344426E+03  0.00000000000E+00 0.  1.
</event>
<event>
12    1  0.1630640E-001  0.1906907E+03  0.7818608E-02  0.1158318E+00
         21   -1    0    0  501  502  0.00000000000E+00  0.00000000000E+00  0.47606469050E+03  0.47606469050E+03  0.00000000000E+00 0.  1.
         21   -1    0    0  502  503 -0.00000000000E+00 -0.00000000000E+00 -0.10111324065E+03  0.10111324065E+03  0.00000000000E+00 0.  1.
         -6    2    1    2    0  503 -0.41830914471E+02  0.66177961955E+02  0.43114874993E+02  0.19550404277E+03  0.17387809016E+03 0.  0.
        -24    2    3    3    0    0  0.45891611037E+01  0.18878140578E+02 -0.37141049531E+02  0.91315751968E+02  0.81127457781E+02 0.  0.
          6    2    1    2  501    0  0.41830914471E+02 -0.66177961955E+02  0.33183657486E+03  0.38167388838E+03  0.17155202302E+03 0.  0.
         24    2    5    5    0    0  0.54928157674E+02 -0.75128616199E+02  0.12890907464E+03  0.17807302312E+03  0.80193768834E+02 0.  0.
          5    1    5    5  501    0 -0.13097243203E+02  0.89506542442E+01  0.20292750022E+03  0.20360086526E+03  0.47000000000E+01 0. -1.
        -11    1    6    6    0    0  0.64504014279E+02 -0.24219459750E+02  0.56851694139E+02  0.89327852405E+02  0.00000000000E+00 0.  1.
         12    1    6    6    0    0 -0.95758566049E+01 -0.50909156449E+02  0.72057380503E+02  0.88745170714E+02  0.00000000000E+00 0. -1.
         -5    1    3    3    0  503 -0.46420075575E+02  0.47299821376E+02  0.80255924524E+02  0.10418829080E+03  0.47000000000E+01 0.  1.
         11    1    4    4    0    0 -0.20268590273E+02 -0.21255605559E+02 -0.32616090205E+02  0.43891068107E+02  0.00000000000E+00 0. -1.
        -12    1    4    4    0    0  0.24857751376E+02  0.40133746137E+02 -0.45249593265E+01  0.47424683862E+02  0.00000000000E+00 0.  1.
</event>
<event>
12    1  0.1630640E-001  0.3038128E+03  0.7818608E-02  0.1083592E+00
         21   -1    0    0  503  502  0.00000000000E+00  0.00000000000E+00  0.14130888106E+04  0.14130888106E+04  0.00000000000E+00 0. -1.
         21   -1    0    0  501  503 -0.00000000000E+00 -0.00000000000E+00 -0.13308737567E+03  0.13308737567E+03  0.00000000000E+00 0.  1.
          6    2    1    2  501    0  0.17298813857E+03 -0.17913492294E+03  0.85623232567E+02  0.31376331160E+03  0.17059267583E+03 0.  0.
         24    2    3    3    0    0  0.19031388413E+03 -0.11809349440E+03  0.71904505451E+02  0.24867467256E+03  0.80643579757E+02 0.  0.
         -6    2    1    2    0  502 -0.17298813857E+03  0.17913492294E+03  0.11943782023E+04  0.12324128747E+04  0.17403444105E+03 0.  0.
        -24    2    5    5    0    0 -0.12992586846E+03  0.99664974266E+02  0.10152792315E+04  0.10317430881E+04  0.82994238900E+02 0.  0.
          5    1    3    3  501    0 -0.17325745565E+02 -0.61041428544E+02  0.13718727116E+02  0.65088639038E+02  0.47000000000E+01 0. -1.
        -11    1    4    4    0    0  0.18425806691E+03 -0.11989347712E+03  0.49416887699E+02  0.22531646603E+03  0.00000000000E+00 0.  1.
         12    1    4    4    0    0  0.60558172261E+01  0.17999827185E+01  0.22487617752E+02  0.23358206528E+02  0.00000000000E+00 0. -1.
         -5    1    5    5    0  502 -0.43062270103E+02  0.79469948677E+02  0.17909897089E+03  0.20066978652E+03  0.47000000000E+01 0.  1.
         13    1    6    6    0    0 -0.12323002102E+03  0.11387445136E+03  0.91924186033E+03  0.93442957281E+03  0.00000000000E+00 0. -1.
        -14    1    6    6    0    0 -0.66958474410E+01 -0.14209477090E+02  0.96037371124E+02  0.97313515323E+02  0.00000000000E+00 0.  1.
</event>
<event>
12    1  0.1630640E-001  0.1876566E+03  0.7818608E-02  0.1160676E+00
         21   -1    0    0  503  502  0.00000000000E+00  0.00000000000E+00  0.24543155309E+03  0.24543155309E+03  0.00000000000E+00 0. -1.
         21   -1    0    0  501  503 -0.00000000000E+00 -0.00000000000E+00 -0.16885272895E+03  0.16885272895E+03  0.00000000000E+00 0.  1.
          6    2    1    2  501    0 -0.71740948664E+02 -0.21061620552E+02 -0.42414581524E+02  0.19239018017E+03  0.17211806740E+03 0.  0.
         24    2    3    3    0    0 -0.42266984923E+02 -0.80701109656E+02 -0.29219156053E+02  0.12440641408E+03  0.79523767947E+02 0.  0.
         -6    2    1    2    0  502  0.71740948664E+02  0.21061620552E+02  0.11899340566E+03  0.22189410186E+03  0.17171839236E+03 0.  0.
        -24    2    5    5    0    0  0.22750145420E+02  0.80547121218E+02  0.65546615209E+02  0.12799376639E+03  0.71278591563E+02 0.  0.
          5    1    3    3  501    0 -0.29473963741E+02  0.59639489105E+02 -0.13195425472E+02  0.67983766096E+02  0.47000000000E+01 0. -1.
        -11    1    4    4    0    0 -0.92756299515E+01 -0.59668431972E+02  0.18069202514E+02  0.63030589117E+02  0.00000000000E+00 0.  1.
         12    1    4    4    0    0 -0.32991354972E+02 -0.21032677684E+02 -0.47288358566E+02  0.61375824958E+02  0.00000000000E+00 0. -1.
         -5    1    5    5    0  502  0.48990803245E+02 -0.59485500666E+02  0.53446790455E+02  0.93900335474E+02  0.47000000000E+01 0.  1.
         11    1    6    6    0    0  0.32599994124E+02  0.57868870992E+01  0.29792690721E+02  0.44540454640E+02  0.00000000000E+00 0. -1.
        -12    1    6    6    0    0 -0.98498487043E+01  0.74760234119E+02  0.35753924488E+02  0.83453311746E+02  0.00000000000E+00 0.  1.
</event>
<event>
12    1  0.1630640E-001  0.2318664E+03  0.7818608E-02  0.1125904E+00
         21   -1    0    0  501  502  0.00000000000E+00  0.00000000000E+00  0.25033593819E+03  0.25033593819E+03  0.00000000000E+00 0.  1.
         21   -1    0    0  502  503 -0.00000000000E+00 -0.00000000000E+00 -0.21210746802E+03  0.21210746802E+03  0.00000000000E+00 0.  1.
         -6    2    1    2    0  503 -0.58622156729E+02 -0.14496790696E+03  0.98042052356E+01  0.23207361238E+03  0.17120101581E+03 0.  0.
        -24    2    3    3    0    0 -0.43176047654E+02 -0.22262654648E+02 -0.40115619362E+02  0.98622347427E+02  0.75876924108E+02 0.  0.
          6    2    1    2  501    0  0.58622156729E+02  0.14496790696E+03  0.28424264935E+02  0.23036979384E+03  0.16676346053E+03 0.  0.
         24    2    5    5    0    0  0.80522035945E+02  0.52854958102E+02  0.20178439550E+02  0.13521474304E+03  0.92727625031E+02 0.  0.
          5    1    5    5  501    0 -0.21899879216E+02  0.92112948856E+02  0.82458253848E+01  0.95155050800E+02  0.47000000000E+01 0. -1.
        -13    1    6    6    0    0 -0.93085790512E+01  0.95264315527E+01 -0.22965781827E+02  0.26548628534E+02  0.00000000000E+00 0.  1.
         14    1    6    6    0    0  0.89830614996E+02  0.43328526549E+02  0.43144221377E+02  0.10866611451E+03  0.00000000000E+00 0. -1.
         -5    1    3    3    0  503 -0.15446109074E+02 -0.12270525231E+03  0.49919824598E+02  0.13345126495E+03  0.47000000000E+01 0.  1.
         11    1    4    4    0    0  0.21736205279E+02 -0.17473733305E+01 -0.12679297927E+02  0.25224601670E+02  0.00000000000E+00 0. -1.
        -12    1    4    4    0    0 -0.64912252933E+02 -0.20515281318E+02 -0.27436321435E+02  0.73397745757E+02  0.00000000000E+00 0.  1.
</event>
<event>
12    1  0.1630640E-001  0.2425076E+03  0.7818608E-02  0.1118306E+00
         21   -1    0    0  501  502  0.00000000000E+00  0.00000000000E+00  0.17150200554E+03  0.17150200554E+03  0.00000000000E+00 0. -1.
         21   -1    0    0  502  503 -0.00000000000E+00 -0.00000000000E+00 -0.35044595273E+03  0.35044595273E+03  0.00000000000E+00 0.  1.
         -6    2    1    2    0  503  0.16314656876E+03 -0.47286329292E+02 -0.13150572785E+03  0.27586897748E+03  0.17308130008E+03 0.  0.
        -24    2    3    3    0    0  0.90647150047E+02  0.32015807904E+02 -0.31396816290E+02  0.12893743269E+03  0.79982396242E+02 0.  0.
          6    2    1    2  501    0 -0.16314656876E+03  0.47286329292E+02 -0.47438219335E+02  0.24607898079E+03  0.17161491863E+03 0.  0.
         24    2    5    5    0    0 -0.13155675852E+03  0.41422692150E+02 -0.97282524257E+02  0.18659080478E+03  0.79556387335E+02 0.  0.
          5    1    5    5  501    0 -0.31589810247E+02  0.58636371412E+01  0.49844304921E+02  0.59488176010E+02  0.47000000000E+01 0. -1.
        -11    1    6    6    0    0 -0.12061379673E+03  0.26702773761E+02 -0.45485529664E+02  0.13164216459E+03  0.00000000000E+00 0.  1.
         12    1    6    6    0    0 -0.10942961786E+02  0.14719918389E+02 -0.51796994593E+02  0.54948640191E+02  0.00000000000E+00 0. -1.
         -5    1    3    3    0  503  0.72499418718E+02 -0.79302137196E+02 -0.10010891156E+03  0.14693154478E+03  0.47000000000E+01 0.  1.
         13    1    4    4    0    0  0.54713746635E+02 -0.21628069086E+02 -0.45418509601E+01  0.59008438832E+02  0.00000000000E+00 0. -1.
        -14    1    4    4    0    0  0.35933403412E+02  0.53643876991E+02 -0.26854965330E+02  0.69928993860E+02  0.00000000000E+00 0.  1.
</event>
<event>
12    1  0.1630640E-001  0.2154123E+03  0.7818608E-02  0.1137585E+00
         21   -1    0    0  503  502  0.00000000000E+00  0.00000000000E+00  0.18433138655E+03  0.18433138655E+03  0.00000000000E+00 0. -1.
         21   -1    0    0  501  503 -0.00000000000E+00 -0.00000000000E+00 -0.37368216762E+03  0.37368216762E+03  0.00000000000E+00 0. -1.
          6    2    1    2  501    0  0.47626625349E+02  0.11941415955E+03 -0.25481136622E+03  0.33287460448E+03  0.17131442732E+03 0.  0.
         24    2    3    3    0    0 -0.36656913127E+02  0.80877330478E+02 -0.16854619869E+03  0.20617586264E+03  0.78840303009E+02 0.  0.
         -6    2    1    2    0  502 -0.47626625349E+02 -0.11941415955E+03  0.65460585161E+02  0.22513894969E+03  0.17284218673E+03 0.  0.
        -24    2    5    5    0    0 -0.18872566543E+02 -0.89207129488E+02  0.10980270007E+03  0.16408509054E+03  0.80951826868E+02 0.  0.
          5    1    3    3  501    0  0.84283538476E+02  0.38536829072E+02 -0.86265167535E+02  0.12669874184E+03  0.47000000000E+01 0. -1.
        -11    1    4    4    0    0  0.11315119542E+02 -0.92142374486E+01 -0.10272576911E+02  0.17845445873E+02  0.00000000000E+00 0.  1.
         12    1    4    4    0    0 -0.47972032669E+02  0.90091567927E+02 -0.15827362178E+03  0.18833041677E+03  0.00000000000E+00 0. -1.
         -5    1    5    5    0  502 -0.28754058806E+02 -0.30207030062E+02 -0.44342114912E+02  0.61053859156E+02  0.47000000000E+01 0.  1.
         13    1    6    6    0    0 -0.35817667345E+02 -0.53762708490E+01  0.28588126711E+02  0.46142069429E+02  0.00000000000E+00 0. -1.
        -14    1    6    6    0    0  0.16945100802E+02 -0.83830858639E+02  0.81214573362E+02  0.11794302111E+03  0.00000000000E+00 0.  1.
</event>
<event>
12    1  0.1630640E-001  0.1764582E+03  0.7818608E-02  0.1171935E+00
         21   -1    0    0  501  502  0.00000000000E+00  0.00000000000E+00  0.24697080796E+03  0.24697080796E+03  0.00000000000E+00 0.  1.
         21   -1    0    0  502  503 -0.00000000000E+00 -0.00000000000E+00 -0.13858945396E+03  0.13858945396E+03  0.00000000000E+00 0.  1.
         -6    2    1    2    0  503 -0.33767006195E+02 -0.13850367370E+02 -0.82847849303E+01  0.17402187759E+03  0.16994979504E+03 0.  0.
        -24    2    3    3    0    0 -0.70090341326E+02 -0.16940485818E+02  0.38873189497E+02  0.11423142635E+03  0.79611920571E+02 0.  0.
          6    2    1    2  501    0  0.33767006195E+02  0.13850367370E+02  0.11666613893E+03  0.21153838434E+03  0.17264256918E+03 0.  0.
         24    2    5    5    0    0 -0.17749479337E+02 -0.46602077543E+02  0.46892555797E+02  0.10571357968E+03  0.80558373198E+02 0.  0.
          5    1    5    5  501    0  0.51516485532E+02  0.60452444913E+02  0.69773583135E+02  0.10582480466E+03  0.47000000000E+01 0. -1.
        -13    1    6    6    0    0  0.84610985930E+01 -0.19541316231E+02 -0.19824949222E+02  0.29094360985E+02  0.00000000000E+00 0.  1.
         14    1    6    6    0    0 -0.26210577930E+02 -0.27060761312E+02  0.66717505019E+02  0.76619218700E+02  0.00000000000E+00 0. -1.
         -5    1    3    3    0  503  0.36323335130E+02  0.30901184477E+01 -0.47157974427E+02  0.59790451237E+02  0.47000000000E+01 0.  1.
         11    1    4    4    0    0 -0.48164317757E+02 -0.44434433542E+02  0.55175174729E+01  0.65762172928E+02  0.00000000000E+00 0. -1.
        -12    1    4    4    0    0 -0.21926023569E+02  0.27493947724E+02  0.33355672024E+02  0.48469253421E+02  0.00000000000E+00 0.  1.
</event>
<event>
12    1  0.1630640E-001  0.2041460E+03  0.7818608E-02  0.1146295E+00
         21   -1    0    0  501  502  0.00000000000E+00  0.00000000000E+00  0.10214337642E+04  0.10214337642E+04  0.00000000000E+00 0.  1.
         21   -1    0    0  502  503 -0.00000000000E+00 -0.00000000000E+00 -0.43684002034E+02  0.43684002034E+02  0.00000000000E+00 0. -1.
         -6    2    1    2    0  503 -0.90695690522E+02 -0.62695268932E+02  0.35192730289E+03  0.40685181882E+03  0.17181144005E+03 0.  0.
        -24    2    3    3    0    0  0.52034911025E+01  0.30407850473E+00  0.91315910132E+02  0.12206073952E+03  0.80827346270E+02 0.  0.
          6    2    1    2  501    0  0.90695690522E+02  0.62695268932E+02  0.62582245930E+03  0.65826594744E+03  0.17176699907E+03 0.  0.
         24    2    5    5    0    0 -0.95904590034E+01  0.55279748174E+02  0.18289288419E+03  0.20404023236E+03  0.70956196849E+02 0.  0.
          5    1    5    5  501    0  0.10028614953E+03  0.74155207577E+01  0.44292957511E+03  0.45422571508E+03  0.47000000000E+01 0. -1.
        -11    1    6    6    0    0 -0.36332778934E+02  0.16837474599E+02  0.11321256425E+03  0.12008603615E+03  0.00000000000E+00 0.  1.
         12    1    6    6    0    0  0.26742319930E+02  0.38442273575E+02  0.69680319945E+02  0.83954196206E+02  0.00000000000E+00 0. -1.
         -5    1    3    3    0  503 -0.95899181624E+02 -0.62999347436E+02  0.26061139276E+03  0.28479107930E+03  0.47000000000E+01 0.  1.
         11    1    4    4    0    0  0.98942133570E+01 -0.17993920717E+02 -0.71922024411E+01  0.21757858734E+02  0.00000000000E+00 0. -1.
        -12    1    4    4    0    0 -0.46907222545E+01  0.18297999222E+02  0.98508112574E+02  0.10030288078E+03  0.00000000000E+00 0.  1.
</event>
<event>
12    1  0.1630640E-001  0.1920227E+03  0.7818608E-02  0.1159154E+00
         21   -1    0    0  501  502  0.00000000000E+00  0.00000000000E+00  0.20826719528E+03  0.20826719528E+03  0.00000000000E+00 0.  1.
         21   -1    0    0  502  503 -0.00000000000E+00 -0.00000000000E+00 -0.22303139710E+03  0.22303139710E+03  0.00000000000E+00 0.  1.
         -6    2    1    2    0  503 -0.34364624751E+02 -0.47225495294E+02 -0.11515159384E+03  0.21461831552E+03  0.17143499337E+03 0.  0.
        -24    2    3    3    0    0  0.23651233093E+02 -0.12324982622E+02 -0.12054297652E+03  0.14653716869E+03  0.78938245467E+02 0.  0.
          6    2    1    2  501    0  0.34364624751E+02  0.47225495294E+02  0.10038739202E+03  0.21668027685E+03  0.18292495473E+03 0.  0.
         24    2    5    5    0    0  0.77745489808E+02 -0.13022059824E+02  0.76467388637E+02  0.13853986534E+03  0.84451746782E+02 0.  0.
          5    1    5    5  501    0 -0.43380865056E+02  0.60247555118E+02  0.23920003381E+02  0.78140411520E+02  0.47000000000E+01 0. -1.
        -13    1    6    6    0    0  0.48158188393E+02  0.21487935024E+02  0.76702963931E+02  0.93082152622E+02  0.00000000000E+00 0.  1.
         14    1    6    6    0    0  0.29587301414E+02 -0.34509994848E+02 -0.23557529413E+00  0.45457712713E+02  0.00000000000E+00 0. -1.
         -5    1    3    3    0  503 -0.58015857844E+02 -0.34900512673E+02  0.53913826784E+01  0.68081146828E+02  0.47000000000E+01 0.  1.
         11    1    4    4    0    0  0.22852957564E+02  0.24466727185E+02 -0.18919006444E+02  0.38455262493E+02  0.00000000000E+00 0. -1.
        -12    1    4    4    0    0  0.79827552890E+00 -0.36791709807E+02 -0.10162397007E+03  0.10808190620E+03  0.00000000000E+00 0.  1.
</event>
<event>
12    1  0.1630640E-001  0.2871133E+03  0.7818608E-02  0.1091924E+00
         21   -1    0    0  503  502  0.00000000000E+00  0.00000000000E+00  0.72855242629E+03  0.72855242629E+03  0.00000000000E+00 0. -1.
         21   -1    0    0  501  503 -0.00000000000E+00 -0.00000000000E+00 -0.11804983316E+03  0.11804983316E+03  0.00000000000E+00 0.  1.
          6    2    1    2  501    0 -0.17784083218E+03  0.14571146751E+03  0.21771023852E+03  0.36032176863E+03  0.17197335735E+03 0.  0.
         24    2    3    3    0    0 -0.18271058758E+03  0.74956063360E+02  0.13740291949E+03  0.25307720129E+03  0.78529849620E+02 0.  0.
         -6    2    1    2    0  502  0.17784083218E+03 -0.14571146751E+03  0.39279235461E+03  0.48628049081E+03  0.17124160870E+03 0.  0.
        -24    2    5    5    0    0  0.88614658089E+02 -0.15492562823E+03  0.28883535140E+03  0.34889286613E+03  0.80286137687E+02 0.  0.
          5    1    3    3  501    0  0.48697553987E+01  0.70755404151E+02  0.80307319039E+02  0.10724456735E+03  0.47000000000E+01 0. -1.
        -11    1    4    4    0    0 -0.84122582176E+01  0.30411596483E+02  0.30091833380E+02  0.43602175693E+02  0.00000000000E+00 0.  1.
         12    1    4    4    0    0 -0.17429832936E+03  0.44544466877E+02  0.10731108611E+03  0.20947502560E+03  0.00000000000E+00 0. -1.
         -5    1    5    5    0  502  0.89226174090E+02  0.92141607188E+01  0.10395700321E+03  0.13738762468E+03  0.47000000000E+01 0.  1.
         13    1    6    6    0    0  0.55901587983E+02 -0.46932715422E+02  0.62928472264E+02  0.96372506128E+02  0.00000000000E+00 0. -1.
        -14    1    6    6    0    0  0.32713070106E+02 -0.10799291281E+03  0.22590687914E+03  0.25252036000E+03  0.00000000000E+00 0.  1.
</event>
<event>
12    1  0.1630640E-001  0.1892888E+03  0.7818608E-02  0.1159190E+00
         21   -1    0    0  501  502  0.00000000000E+00  0.00000000000E+00  0.47863073296E+03  0.47863073296E+03  0.00000000000E+00 0.  1.
         21   -1    0    0  502  503 -0.00000000000E+00 -0.00000000000E+00 -0.10518082220E+03  0.10518082220E+03  0.00000000000E+00 0.  1.
         -6    2    1    2    0  503 -0.46881930110E+02 -0.62687263355E+02  0.29476731806E+02  0.19119493714E+03  0.17192736231E+03 0.  0.
        -24    2    3    3    0    0  0.30533163052E+02  0.36962032149E+01 -0.24750078771E+01  0.84223609430E+02  0.78368072307E+02 0.  0.
          6    2    1    2  501    0  0.46881930110E+02  0.62687263355E+02  0.34397317896E+03  0.39261661802E+03  0.17234457504E+03 0.  0.
         24    2    5    5    0    0 -0.14782132924E+02  0.48534728356E+02  0.10335852792E+03  0.14377881701E+03  0.86111739135E+02 0.  0.
          5    1    5    5  501    0  0.61664063034E+02  0.14152534999E+02  0.24061465103E+03  0.24883780101E+03  0.47000000000E+01 0. -1.
        -13    1    6    6    0    0  0.33683281272E+02  0.23947653700E+02  0.24618485296E+02  0.48105336224E+02  0.00000000000E+00 0.  1.
         14    1    6    6    0    0 -0.48465414196E+02  0.24587074656E+02  0.78740042624E+02  0.95673480786E+02  0.00000000000E+00 0. -1.
         -5    1    3    3    0  503 -0.77415093163E+02 -0.66383466570E+02  0.31951739683E+02  0.10697132771E+03  0.47000000000E+01 0.  1.
         13    1    4    4    0    0  0.39198655942E+02 -0.30002196842E+02 -0.25570577986E+01  0.49428787033E+02  0.00000000000E+00 0. -1.
        -14    1    4    4    0    0 -0.86654928902E+01  0.33698400056E+02  0.82049921455E-01  0.34794822396E+02  0.00000000000E+00 0.  1.
</event>
<event>
12    1  0.1630640E-001  0.2283750E+03  0.7818608E-02  0.1127804E+00
         21   -1    0    0  503  502  0.00000000000E+00  0.00000000000E+00  0.14804568979E+03  0.14804568979E+03  0.00000000000E+00 0. -1.
         21   -1    0    0  501  503 -0.00000000000E+00 -0.00000000000E+00 -0.37117820055E+03  0.37117820055E+03  0.00000000000E+00 0.  1.
          6    2    1    2  501    0  0.10304949908E+03 -0.11016906102E+03 -0.17035404297E+03  0.28491339238E+03  0.17146054921E+03 0.  0.
         24    2    3    3    0    0  0.18025303770E+02 -0.65443069471E+02 -0.22105491828E+02  0.10819539380E+03  0.81301190350E+02 0.  0.
         -6    2    1    2    0  502 -0.10304949908E+03  0.11016906102E+03 -0.52778467789E+02  0.23431049796E+03  0.17134591190E+03 0.  0.
        -24    2    5    5    0    0 -0.80270914055E+02  0.10208154704E+03 -0.99083948835E+02  0.18186472222E+03  0.79956778213E+02 0.  0.
          5    1    3    3  501    0  0.85024195308E+02 -0.44725991547E+02 -0.14824855114E+03  0.17671799858E+03  0.47000000000E+01 0. -1.
        -11    1    4    4    0    0 -0.15156761582E+02 -0.15486044726E+02  0.24157740297E+02  0.32452140441E+02  0.00000000000E+00 0.  1.
         12    1    4    4    0    0  0.33182065353E+02 -0.49957024745E+02 -0.46263232126E+02  0.75743253357E+02  0.00000000000E+00 0. -1.
         -5    1    5    5    0  502 -0.22778585024E+02  0.80875139765E+01  0.46305481046E+02  0.52445775739E+02  0.47000000000E+01 0.  1.
         11    1    6    6    0    0  0.15072686233E+02  0.23086602011E+02 -0.99910821251E+01  0.29325735877E+02  0.00000000000E+00 0. -1.
        -12    1    6    6    0    0 -0.95343600288E+02  0.78994945031E+02 -0.89092866710E+02  0.15253898634E+03  0.00000000000E+00 0.  1.
</event>
<event>
12    1  0.1630640E-001  0.1809460E+03  0.7818608E-02  0.1167141E+00
         21   -1    0    0  501  502  0.00000000000E+00  0.00000000000E+00  0.29927067301E+02  0.29927067301E+02  0.00000000000E+00 0.  1.
         21   -1    0    0  502  503 -0.00000000000E+00 -0.00000000000E+00 -0.12071986442E+04  0.12071986442E+04  0.00000000000E+00 0.  1.
         -6    2    1    2    0  503  0.38576792223E+02  0.32864992462E+02 -0.78166434489E+03  0.80210094590E+03  0.17262242818E+03 0.  0.
        -24    2    3    3    0    0 -0.77657167222E+01 -0.32926503341E+02 -0.24499975368E+03  0.25941584152E+03  0.78276679476E+02 0.  0.
          6    2    1    2  501    0 -0.38576792223E+02 -0.32864992462E+02 -0.39560723205E+03  0.43502476564E+03  0.17370431211E+03 0.  0.
         24    2    5    5    0    0 -0.71344711122E+02 -0.95215649928E+01 -0.37328020471E+03  0.38877286552E+03  0.81397185037E+02 0.  0.
          5    1    5    5  501    0  0.32767918899E+02 -0.23343427469E+02 -0.22327027335E+02  0.46251900119E+02  0.47000000000E+01 0. -1.
        -13    1    6    6    0    0 -0.53280874438E+02  0.91568169807E+01 -0.95185011201E+02  0.10946636577E+03  0.00000000000E+00 0.  1.
         14    1    6    6    0    0 -0.18063836684E+02 -0.18678381973E+02 -0.27809519351E+03  0.27930649975E+03  0.00000000000E+00 0. -1.
         -5    1    3    3    0  503  0.46342508945E+02  0.65791495803E+02 -0.53666459121E+03  0.54268510438E+03  0.47000000000E+01 0.  1.
         11    1    4    4    0    0 -0.35981585496E+02 -0.17218204667E+02 -0.20052076760E+03  0.20444979654E+03  0.00000000000E+00 0. -1.
        -12    1    4    4    0    0  0.28215868774E+02 -0.15708298674E+02 -0.44478986078E+02  0.54966044977E+02  0.00000000000E+00 0.  1.
</event>
<event>
12    1  0.1630640E-001  0.3127791E+03  0.7818608E-02  0.1079086E+00
         21   -1    0    0  503  502  0.00000000000E+00  0.00000000000E+00  0.26996759484E+03  0.26996759484E+03  0.00000000000E+00 0. -1.
         21   -1    0    0  501  503 -0.00000000000E+00 -0.00000000000E+00 -0.38912419915E+03  0.38912419915E+03  0.00000000000E+00 0. -1.
          6    2    1    2  501    0  0.20752700105E+03  0.15739932152E+03  0.27786640796E+02  0.31401094564E+03  0.17317267103E+03 0.  0.
         24    2    3    3    0    0  0.16927055116E+03  0.54470807587E+02 -0.16547076466E+02  0.19549764080E+03  0.79535736923E+02 0.  0.
         -6    2    1    2    0  502 -0.20752700105E+03 -0.15739932152E+03 -0.14694324510E+03  0.34508084835E+03  0.17218150899E+03 0.  0.
        -24    2    5    5    0    0 -0.68237218461E+02 -0.61290174773E+02 -0.25109661568E+01  0.12254684011E+03  0.81231887604E+02 0.  0.
          5    1    3    3  501    0  0.38256449893E+02  0.10292851393E+03  0.44333717261E+02  0.11851330484E+03  0.47000000000E+01 0. -1.
        -13    1    4    4    0    0  0.94767401338E+02  0.34868020953E+02 -0.48589747635E+02  0.11206071041E+03  0.00000000000E+00 0.  1.
         14    1    4    4    0    0  0.74503149822E+02  0.19602786635E+02  0.32042671169E+02  0.83436930390E+02  0.00000000000E+00 0. -1.
         -5    1    5    5    0  502 -0.13928978259E+03 -0.96109146744E+02 -0.14443227895E+03  0.22253400824E+03  0.47000000000E+01 0.  1.
         13    1    6    6    0    0  0.56796372484E+01 -0.40732681857E+02  0.15131768984E+02  0.43822141472E+02  0.00000000000E+00 0. -1.
        -14    1    6    6    0    0 -0.73916855709E+02 -0.20557492915E+02 -0.17642735141E+02  0.78724698641E+02  0.00000000000E+00 0.  1.
</event>
<event>
12    1  0.1630640E-001  0.2334172E+03  0.7818608E-02  0.1125366E+00
         21   -1    0    0  501  502  0.00000000000E+00  0.00000000000E+00  0.82427508619E+02  0.82427508619E+02  0.00000000000E+00 0.  1.
         21   -1    0    0  502  503 -0.00000000000E+00 -0.00000000000E+00 -0.77624224569E+03  0.77624224569E+03  0.00000000000E+00 0. -1.
         -6    2    1    2    0  503 -0.15489434190E+03 -0.24841395302E+02 -0.52069252868E+03  0.56805850491E+03  0.16419623473E+03 0.  0.
        -24    2    3    3    0    0 -0.42833655948E+02 -0.26683919729E+02 -0.36079646513E+03  0.37273868161E+03  0.78824373557E+02 0.  0.
          6    2    1    2  501    0  0.15489434190E+03  0.24841395302E+02 -0.17312220839E+03  0.29061124941E+03  0.17284168238E+03 0.  0.
         24    2    5    5    0    0  0.64533477113E+02 -0.45058933344E+02 -0.11957811731E+03  0.16435673852E+03  0.80742394157E+02 0.  0.
          5    1    5    5  501    0  0.90360864787E+02  0.69900328646E+02 -0.53544091081E+02  0.12625451089E+03  0.47000000000E+01 0. -1.
        -13    1    6    6    0    0 -0.18499687885E+02 -0.62029547973E+00 -0.21842730235E+02  0.28630893846E+02  0.00000000000E+00 0.  1.
         14    1    6    6    0    0  0.83033164998E+02 -0.44438637864E+02 -0.97735387076E+02  0.13572584467E+03  0.00000000000E+00 0. -1.
         -5    1    3    3    0  503 -0.11206068595E+03  0.18425244268E+01 -0.15989606356E+03  0.19531982330E+03  0.47000000000E+01 0.  1.
         13    1    4    4    0    0 -0.32740308369E+01 -0.45234439617E+02 -0.24082954228E+03  0.24506273123E+03  0.00000000000E+00 0. -1.
        -14    1    4    4    0    0 -0.39559625111E+02  0.18550519888E+02 -0.11996692285E+03  0.12767595038E+03  0.00000000000E+00 0.  1.
</event>
<event>
12    1  0.1630640E-001  0.1755340E+03  0.7818608E-02  0.1172819E+00
         21   -1    0    0  501  502  0.00000000000E+00  0.00000000000E+00  0.19894126817E+03  0.19894126817E+03  0.00000000000E+00 0.  1.
         21   -1    0    0  502  503 -0.00000000000E+00 -0.00000000000E+00 -0.17359133970E+03  0.17359133970E+03  0.00000000000E+00 0.  1.
         -6    2    1    2    0  503 -0.20121222650E+02 -0.39866949273E+01 -0.51848533552E+02  0.18303129116E+03  0.17433136773E+03 0.  0.
        -24    2    3    3    0    0  0.12633319610E+02  0.70355108185E+00 -0.97374223998E+02  0.12655530567E+03  0.79839903211E+02 0.  0.
          6    2    1    2  501    0  0.20121222650E+02  0.39866949273E+01  0.77198462015E+02  0.18950131671E+03  0.17184408387E+03 0.  0.
         24    2    5    5    0    0  0.30398444185E+02  0.22318042001E+02  0.11639861210E+03  0.14477547033E+03  0.77389530973E+02 0.  0.
          5    1    5    5  501    0 -0.10277221536E+02 -0.18331347074E+02 -0.39200150082E+02  0.44725846381E+02  0.47000000000E+01 0. -1.
        -11    1    6    6    0    0  0.33829959232E+02 -0.18427113644E+02  0.84663713176E+02  0.93015960930E+02  0.00000000000E+00 0.  1.
         12    1    6    6    0    0 -0.34315150462E+01  0.40745155646E+02  0.31734898921E+02  0.51759509403E+02  0.00000000000E+00 0. -1.
         -5    1    3    3    0  503 -0.32754542260E+02 -0.46902460091E+01  0.45525690447E+02  0.56475985489E+02  0.47000000000E+01 0.  1.
         11    1    4    4    0    0 -0.50479322029E+01  0.28046806399E+02 -0.54229905385E+01  0.29008857183E+02  0.00000000000E+00 0. -1.
        -12    1    4    4    0    0  0.17681251813E+02 -0.27343255317E+02 -0.91951233460E+02  0.97546448484E+02  0.00000000000E+00 0.  1.
</event>
<event>
12    1  0.1630640E-001  0.1743554E+03  0.7818608E-02  0.1174433E+00
         21   -1    0    0  503  502  0.00000000000E+00  0.00000000000E+00  0.81034360896E+02  0.81034360896E+02  0.00000000000E+00 0. -1.
         21   -1    0    0  501  503 -0.00000000000E+00 -0.00000000000E+00 -0.36755957921E+03  0.36755957921E+03  0.00000000000E+00 0. -1.
          6    2    1    2  501    0 -0.11525054084E+02 -0.23062126679E+02 -0.13201576156E+03  0.21869602644E+03  0.17243869091E+03 0.  0.
         24    2    3    3    0    0  0.82875415991E+01  0.33581999673E+02 -0.13782877601E+02  0.86022740330E+02  0.77546825152E+02 0.  0.
         -6    2    1    2    0  502  0.11525054084E+02  0.23062126679E+02 -0.15450945675E+03  0.22989791367E+03  0.16827117972E+03 0.  0.
        -24    2    5    5    0    0  0.62829883310E+01  0.75353889851E+02 -0.13185514698E+03  0.17247652828E+03  0.81514957905E+02 0.  0.
          5    1    3    3  501    0 -0.19812595683E+02 -0.56644126351E+02 -0.11823288396E+03  0.13267328611E+03  0.47000000000E+01 0. -1.
        -11    1    4    4    0    0  0.29060276364E+02  0.31896972258E+02 -0.35534554812E+02  0.55898310236E+02  0.00000000000E+00 0.  1.
         12    1    4    4    0    0 -0.20772734764E+02  0.16850274148E+01  0.21751677211E+02  0.30124430094E+02  0.00000000000E+00 0. -1.
         -5    1    5    5    0  502  0.52420657534E+01 -0.52291763172E+02 -0.22654309770E+02  0.57421385390E+02  0.47000000000E+01 0.  1.
         13    1    6    6    0    0  0.16388991257E+02  0.69390158546E+02 -0.14073197779E+03  0.15776274184E+03  0.00000000000E+00 0. -1.
        -14    1    6    6    0    0 -0.10106002926E+02  0.59637313048E+01  0.88768308105E+01  0.14713786441E+02  0.00000000000E+00 0.  1.
</event>
<event>
12    1  0.1630640E-001  0.2835606E+03  0.7818608E-02  0.1093953E+00
         21   -1    0    0  503  502  0.00000000000E+00  0.00000000000E+00  0.15771646422E+03  0.15771646422E+03  0.00000000000E+00 0. -1.
         21   -1    0    0  501  503 -0.00000000000E+00 -0.00000000000E+00 -0.57266534957E+03  0.57266534957E+03  0.00000000000E+00 0.  1.
          6    2    1    2  501    0 -0.18861007388E+03  0.11930866564E+03 -0.33043960948E+03  0.43449599638E+03  0.17259234542E+03 0.  0.
         24    2    3    3    0    0 -0.43014006649E+02  0.10431012762E+03 -0.17210406661E+03  0.21882169317E+03  0.74379541287E+02 0.  0.
         -6    2    1    2    0  502  0.18861007388E+03 -0.11930866564E+03 -0.84509275870E+02  0.29588581741E+03  0.17492364497E+03 0.  0.
        -24    2    5    5    0    0  0.15917773827E+03 -0.32855277303E+02 -0.16325732727E+02  0.18181769613E+03  0.79838107894E+02 0.  0.
          5    1    3    3  501    0 -0.14559606723E+03  0.14998538021E+02 -0.15833554286E+03  0.21567430322E+03  0.47000000000E+01 0. -1.
        -11    1    4    4    0    0 -0.61430864311E+02  0.58130677730E+02 -0.96273371058E+02  0.12814635679E+03  0.00000000000E+00 0.  1.
         12    1    4    4    0    0  0.18416857662E+02  0.46179449892E+02 -0.75830695557E+02  0.90675336377E+02  0.00000000000E+00 0. -1.
         -5    1    5    5    0  502  0.29432335612E+02 -0.86453388339E+02 -0.68183543144E+02  0.11406812127E+03  0.47000000000E+01 0.  1.
         13    1    6    6    0    0  0.66726742743E+02 -0.40637013566E+02  0.22410982715E+02  0.81277778113E+02  0.00000000000E+00 0. -1.
        -14    1    6    6    0    0  0.92450995524E+02  0.77817362630E+01 -0.38736715441E+02  0.10053991802E+03  0.00000000000E+00 0.  1.
</event>
<event>
12    1  0.1630640E-001  0.2006064E+03  0.7818608E-02  0.1150989E+00
         21   -1    0    0  503  502  0.00000000000E+00  0.00000000000E+00  0.58032309870E+03  0.58032309870E+03  0.00000000000E+00 0. -1.
         21   -1    0    0  501  503 -0.00000000000E+00 -0.00000000000E+00 -0.68340885983E+02  0.68340885983E+02  0.00000000000E+00 0. -1.
          6    2    1    2  501    0  0.42071054669E+01  0.84856820353E+02  0.31379867327E+03  0.37244131099E+03  0.18172656132E+03 0.  0.
         24    2    3    3    0    0 -0.22755076553E+01  0.11483408301E+03  0.31120228810E+03  0.34130464826E+03  0.80311607192E+02 0.  0.
         -6    2    1    2    0  502 -0.42071054669E+01 -0.84856820353E+02  0.19818353945E+03  0.27622267370E+03  0.17263797513E+03 0.  0.
        -24    2    5    5    0    0 -0.18381330692E+02 -0.10826950436E+03  0.84851172611E+02  0.15953772262E+03  0.78691832829E+02 0.  0.
          5    1    3    3  501    0  0.64826131222E+01 -0.29977262662E+02  0.25963851643E+01  0.31136662723E+02  0.47000000000E+01 0. -1.
        -13    1    4    4    0    0  0.16862632912E+02  0.15074500788E+02  0.14324268642E+03  0.14501743404E+03  0.00000000000E+00 0.  1.
         14    1    4    4    0    0 -0.19138140567E+02  0.99759582227E+02  0.16795960168E+03  0.19628721422E+03  0.00000000000E+00 0. -1.
         -5    1    5    5    0  502  0.14174225225E+02  0.23412684009E+02  0.11333236684E+03  0.11668495108E+03  0.47000000000E+01 0.  1.
         11    1    6    6    0    0 -0.13747482589E+02 -0.60744118755E+02  0.12314180726E+00  0.62280465676E+02  0.00000000000E+00 0. -1.
        -12    1    6    6    0    0 -0.46338481028E+01 -0.47525385606E+02  0.84728030803E+02  0.97257256948E+02  0.00000000000E+00 0.  1.
</event>
<event>
12    1  0.1630640E-001  0.2211008E+03  0.7818608E-02  0.1133771E+00
         21   -1    0    0  503  502  0.00000000000E+00  0.00000000000E+00  0.10067389437E+04  0.10067389437E+04  0.00000000000E+00 0. -1.
         21   -1    0    0  501  503 -0.00000000000E+00 -0.00000000000E+00 -0.61250561581E+02  0.61250561581E+02  0.00000000000E+00 0. -1.
          6    2    1    2  501    0  0.83728922094E+02  0.10534295568E+03  0.21870454755E+03  0.30831831827E+03  0.17064828024E+03 0.  0.
         24    2    3    3    0    0 -0.11408473297E+02  0.34042608890E+02  0.14076667084E+03  0.16608166307E+03  0.80491059787E+02 0.  0.
         -6    2    1    2    0  502 -0.83728922094E+02 -0.10534295568E+03  0.72678383455E+03  0.75967118700E+03  0.17543631178E+03 0.  0.
        -24    2    5    5    0    0 -0.69843250143E+02 -0.11491559726E+03  0.72542483187E+03  0.74211031457E+03  0.80017861801E+02 0.  0.
          5    1    3    3  501    0  0.95137395391E+02  0.71300346790E+02  0.77937876713E+02  0.14223665519E+03  0.47000000000E+01 0. -1.
        -11    1    4    4    0    0 -0.97863234094E+01  0.41371221751E+02  0.23501359376E+02  0.48576372936E+02  0.00000000000E+00 0.  1.
         12    1    4    4    0    0 -0.16221498879E+01 -0.73286128609E+01  0.11726531147E+03  0.11750529014E+03  0.00000000000E+00 0. -1.
         -5    1    5    5    0  502 -0.13885671951E+02  0.95726415775E+01  0.13590026759E+01  0.17560872432E+02  0.47000000000E+01 0.  1.
         13    1    6    6    0    0 -0.74123434301E+02 -0.48195454679E+02  0.36667494082E+03  0.37718377164E+03  0.00000000000E+00 0. -1.
        -14    1    6    6    0    0  0.42801841577E+01 -0.66720142579E+02  0.35874989106E+03  0.36492654293E+03  0.00000000000E+00 0.  1.
</event>
<event>
12    1  0.1630640E-001  0.2340320E+03  0.7818608E-02  0.1123929E+00
         21   -1    0    0  503  502  0.00000000000E+00  0.00000000000E+00  0.58164039847E+02  0.58164039847E+02  0.00000000000E+00 0.  1.
         21   -1    0    0  501  503 -0.00000000000E+00 -0.00000000000E+00 -0.93948214216E+03  0.93948214216E+03  0.00000000000E+00 0. -1.
          6    2    1    2  501    0 -0.18742012065E+02 -0.15746584267E+03 -0.43693538226E+03  0.49540424172E+03  0.17136534019E+03 0.  0.
         24    2    3    3    0    0 -0.24848475316E+02 -0.33229797615E+02 -0.84522384024E+02  0.12165446565E+03  0.77033171019E+02 0.  0.
         -6    2    1    2    0  502  0.18742012065E+02  0.15746584267E+03 -0.44438272006E+03  0.50224194029E+03  0.17211685008E+03 0.  0.
        -24    2    5    5    0    0  0.64709114642E+02  0.46064304843E+02 -0.23288942322E+03  0.25877781202E+03  0.80120427154E+02 0.  0.
          5    1    3    3  501    0  0.61064632508E+01 -0.12423604505E+03 -0.35241299823E+03  0.37374977606E+03  0.47000000000E+01 0. -1.
        -11    1    4    4    0    0  0.24207208674E+02 -0.27507880090E+01 -0.77125784776E+01  0.25554640542E+02  0.00000000000E+00 0.  1.
         12    1    4    4    0    0 -0.49055683990E+02 -0.30479009606E+02 -0.76809805546E+02  0.96099825111E+02  0.00000000000E+00 0. -1.
         -5    1    5    5    0  502 -0.45967102577E+02  0.11140153782E+03 -0.21149329684E+03  0.24346412827E+03  0.47000000000E+01 0.  1.
         13    1    6    6    0    0  0.52184927560E+02  0.69102578531E+02 -0.17973757363E+03  0.19950946945E+03  0.00000000000E+00 0. -1.
        -14    1    6    6    0    0  0.12524187082E+02 -0.23038273688E+02 -0.53151849587E+02  0.59268342571E+02  0.00000000000E+00 0.  1.
</event>
<event>
12    1  0.1630640E-001  0.2179019E+03  0.7818608E-02  0.1135595E+00
         21   -1    0    0  503  502  0.00000000000E+00  0.00000000000E+00  0.78025068860E+03  0.78025068860E+03  0.00000000000E+00 0.  1.
         21   -1    0    0  501  503 -0.00000000000E+00 -0.00000000000E+00 -0.93867443301E+02  0.93867443301E+02  0.00000000000E+00 0. -1.
          6    2    1    2  501    0 -0.12959438960E+02 -0.13319781846E+03  0.83568998971E+02  0.23337744000E+03  0.17196408350E+03 0.  0.
         24    2    3    3    0    0 -0.76468649893E+01 -0.24480873969E+02  0.91978343899E+02  0.12410528187E+03  0.79273687356E+02 0.  0.
         -6    2    1    2    0  502  0.12959438960E+02  0.13319781846E+03  0.60281424633E+03  0.64074069190E+03  0.17103804482E+03 0.  0.
        -24    2    5    5    0    0 -0.49951924098E+02  0.38080976562E+02  0.32033807880E+03  0.33607706027E+03  0.79912140588E+02 0.  0.
          5    1    3    3  501    0 -0.53125739711E+01 -0.10871694449E+03 -0.84093449282E+01  0.10927215814E+03  0.47000000000E+01 0. -1.
        -13    1    4    4    0    0 -0.16963481126E+02 -0.43060047444E+02  0.92371744086E+02  0.10331730970E+03  0.00000000000E+00 0.  1.
         14    1    4    4    0    0  0.93166161370E+01  0.18579173475E+02 -0.39340018704E+00  0.20787972171E+02  0.00000000000E+00 0. -1.
         -5    1    5    5    0  502  0.62911363058E+02  0.95116841897E+02  0.28247616753E+03  0.30466363163E+03  0.47000000000E+01 0.  1.
         13    1    6    6    0    0 -0.29196244213E+02  0.62790233696E+02  0.22618436021E+03  0.23654682185E+03  0.00000000000E+00 0. -1.
        -14    1    6    6    0    0 -0.20755679885E+02 -0.24709257134E+02  0.94153718589E+02  0.99530238419E+02  0.00000000000E+00 0.  1.
</event>
<event>
12    1  0.1630640E-001  0.2310372E+03  0.7818608E-02  0.1126149E+00
         21   -1    0    0  503  502  0.00000000000E+00  0.00000000000E+00  0.73852218858E+02  0.73852218858E+02  0.00000000000E+00 0.  1.
         21   -1    0    0  501  503 -0.00000000000E+00 -0.00000000000E+00 -0.97207537878E+03  0.97207537878E+03  0.00000000000E+00 0. -1.
          6    2    1    2  501    0  0.81710270079E+02 -0.12969782267E+03 -0.71715920697E+03  0.75345570250E+03  0.17285853763E+03 0.  0.
         24    2    3    3    0    0  0.88148143785E+02 -0.16016183217E+03 -0.62518028593E+03  0.65623577651E+03  0.79831677412E+02 0.  0.
         -6    2    1    2    0  502 -0.81710270079E+02  0.12969782267E+03 -0.18106395295E+03  0.29247189514E+03  0.17104841697E+03 0.  0.
        -24    2    5    5    0    0 -0.41953448988E+02  0.59244775179E+02 -0.18353385357E+03  0.21140138797E+03  0.75735303253E+02 0.  0.
          5    1    3    3  501    0 -0.64378737056E+01  0.30464009493E+02 -0.91978921043E+02  0.97219925985E+02  0.47000000000E+01 0. -1.
        -11    1    4    4    0    0  0.91022412694E+02 -0.13723052087E+03 -0.59941900447E+03  0.62162725036E+03  0.00000000000E+00 0.  1.
         12    1    4    4    0    0 -0.28742689093E+01 -0.22931311300E+02 -0.25761281458E+02  0.34608526147E+02  0.00000000000E+00 0. -1.
         -5    1    5    5    0  502 -0.39756821091E+02  0.70453047495E+02  0.24699006255E+01  0.81070507176E+02  0.47000000000E+01 0.  1.
         13    1    6    6    0    0 -0.50229701914E+02  0.10586892147E+02 -0.63757739734E+02  0.81854472179E+02  0.00000000000E+00 0. -1.
        -14    1    6    6    0    0  0.82762529262E+01  0.48657883032E+02 -0.11977611384E+03  0.12954691579E+03  0.00000000000E+00 0.  1.
</event>
<event>
12    1  0.1630640E-001  0.2945263E+03  0.7818608E-02  0.1088028E+00
         21   -1    0    0  503  502  0.00000000000E+00  0.00000000000E+00  0.30785304226E+03  0.30785304226E+03  0.00000000000E+00 0.  1.
         21   -1    0    0  501  503 -0.00000000000E+00 -0.00000000000E+00 -0.28395612479E+03  0.28395612479E+03  0.00000000000E+00 0. -1.
          6    2    1    2  501    0  0.15775636655E+03  0.17923292949E+03  0.38680358905E+02  0.29705540547E+03  0.17243616080E+03 0.  0.
         24    2    3    3    0    0  0.18499528936E+03  0.16484215332E+03  0.49085890003E+02  0.26420090149E+03  0.77437065735E+02 0.  0.
         -6    2    1    2    0  502 -0.15775636655E+03 -0.17923292949E+03 -0.14783441439E+02  0.29475376158E+03  0.17219092782E+03 0.  0.
        -24    2    5    5    0    0 -0.10360013122E+03 -0.18584654326E+03 -0.45450150056E+02  0.23199091644E+03  0.80511765233E+02 0.  0.
          5    1    3    3  501    0 -0.27238922810E+02  0.14390776166E+02 -0.10405531097E+02  0.32854503983E+02  0.47000000000E+01 0. -1.
        -11    1    4    4    0    0  0.58668616256E+02  0.11180692925E+02  0.20980707573E+02  0.63302484295E+02  0.00000000000E+00 0.  1.
         12    1    4    4    0    0  0.12632667311E+03  0.15366146040E+03  0.28105182430E+02  0.20089841719E+03  0.00000000000E+00 0. -1.
         -5    1    5    5    0  502 -0.54156235337E+02  0.66136137673E+01  0.30666708616E+02  0.62762845142E+02  0.47000000000E+01 0.  1.
         11    1    6    6    0    0 -0.10423751496E+02 -0.96831372986E+02 -0.76109877139E+01  0.97687750120E+02  0.00000000000E+00 0. -1.
        -12    1    6    6    0    0 -0.93176379721E+02 -0.89015170272E+02 -0.37839162342E+02  0.13430316632E+03  0.00000000000E+00 0.  1.
</event>
<event>
12    1  0.1630640E-001  0.2165719E+03  0.7818608E-02  0.1136571E+00
         21   -1    0    0  503  502  0.00000000000E+00  0.00000000000E+00  0.23858597677E+03  0.23858597677E+03  0.00000000000E+00 0.  1.
         21   -1    0    0  501  503 -0.00000000000E+00 -0.00000000000E+00 -0.30372306055E+03  0.30372306055E+03  0.00000000000E+00 0.  1.
          6    2    1    2  501    0 -0.35805154369E+02 -0.12607656653E+03 -0.19401584592E+03  0.29076715404E+03  0.17241252765E+03 0.  0.
         24    2    3    3    0    0 -0.46396675625E+02 -0.15698147094E+03 -0.17137311045E+03  0.25074120109E+03  0.81893670165E+02 0.  0.
         -6    2    1    2    0  502  0.35805154369E+02  0.12607656653E+03  0.12887876214E+03  0.25154188329E+03  0.17171567782E+03 0.  0.
        -24    2    5    5    0    0  0.69023369131E+02  0.59997762695E+02  0.25104981796E+02  0.12402347052E+03  0.79922488158E+02 0.  0.
          5    1    3    3  501    0  0.10591521256E+02  0.30904904414E+02 -0.22642735472E+02  0.40025952943E+02  0.47000000000E+01 0. -1.
        -11    1    4    4    0    0  0.98147639799E+01 -0.79641498823E+02 -0.11342985917E+03  0.13894398468E+03  0.00000000000E+00 0.  1.
         12    1    4    4    0    0 -0.56211439604E+02 -0.77339972121E+02 -0.57943251280E+02  0.11179721642E+03  0.00000000000E+00 0. -1.
         -5    1    5    5    0  502 -0.33218214762E+02  0.66078803835E+02  0.10377378034E+03  0.12751841277E+03  0.47000000000E+01 0.  1.
         11    1    6    6    0    0  0.71022022682E+02  0.55319658283E+02 -0.81398717855E+01  0.90391646799E+02  0.00000000000E+00 0. -1.
        -12    1    6    6    0    0 -0.19986535513E+01  0.46781044126E+01  0.33244853581E+02  0.33631823718E+02  0.00000000000E+00 0.  1.
</event>
<event>
12    1  0.1630640E-001  0.2239731E+03  0.7818608E-02  0.1131200E+00
         21   -1    0    0  501  502  0.00000000000E+00  0.00000000000E+00  0.39362736428E+03  0.39362736428E+03  0.00000000000E+00 0.  1.
         21   -1    0    0  502  503 -0.00000000000E+00 -0.00000000000E+00 -0.13888534508E+03  0.13888534508E+03  0.00000000000E+00 0.  1.
         -6    2    1    2    0  503  0.14033953441E+03  0.12975421122E+02  0.48092715664E+02  0.22777037752E+03  0.17234526133E+03 0.  0.
        -24    2    3    3    0    0  0.60463068485E+02  0.36030376652E+02  0.85610594698E+02  0.13643877274E+03  0.79576341271E+02 0.  0.
          6    2    1    2  501    0 -0.14033953441E+03 -0.12975421122E+02  0.20664930354E+03  0.30474233184E+03  0.17407012291E+03 0.  0.
         24    2    5    5    0    0 -0.99697239192E+02  0.46939098982E+01  0.22337010529E+03  0.25714320757E+03  0.79163457300E+02 0.  0.
          5    1    5    5  501    0 -0.40642295221E+02 -0.17669331021E+02 -0.16720801753E+02  0.47599124266E+02  0.47000000000E+01 0. -1.
        -13    1    6    6    0    0 -0.52552352622E+02  0.41282894627E+02  0.10280509380E+03  0.12261694201E+03  0.00000000000E+00 0.  1.
         14    1    6    6    0    0 -0.47144886570E+02 -0.36588984728E+02  0.12056501148E+03  0.13452626557E+03  0.00000000000E+00 0. -1.
         -5    1    3    3    0  503  0.79876465929E+02 -0.23054955530E+02 -0.37517879035E+02  0.91331604776E+02  0.47000000000E+01 0.  1.
         11    1    4    4    0    0  0.36963790838E+01  0.43580298135E+02  0.16645927817E+02  0.46797355873E+02  0.00000000000E+00 0. -1.
        -12    1    4    4    0    0  0.56766689401E+02 -0.75499214824E+01  0.68964666881E+02  0.89641416867E+02  0.00000000000E+00 0.  1.
</event>
<event>
12    1  0.1630640E-001  0.2002363E+03  0.7818608E-02  0.1149589E+00
         21   -1    0    0  503  502  0.00000000000E+00  0.00000000000E+00  0.74611782411E+03  0.74611782411E+03  0.00000000000E+00 0.  1.
         21   -1    0    0  501  503 -0.00000000000E+00 -0.00000000000E+00 -0.65606382248E+02  0.65606382248E+02  0.00000000000E+00 0.  1.
          6    2    1    2  501    0 -0.94168841363E+02 -0.44580261933E+02  0.51317704575E+03  0.55077329983E+03  0.17072017187E+03 0.  0.
         24    2    3    3    0    0 -0.47545964322E+02 -0.85790575268E+01  0.46566383524E+03  0.47494866956E+03  0.79995076829E+02 0.  0.
         -6    2    1    2    0  502  0.94168841363E+02  0.44580261933E+02  0.16733439611E+03  0.26095090653E+03  0.17099533636E+03 0.  0.
        -24    2    5    5    0    0  0.10969360464E+03  0.10268071506E+02  0.17526430218E+03  0.22217826028E+03  0.80668975021E+02 0.  0.
          5    1    3    3  501    0 -0.46622877041E+02 -0.36001204406E+02  0.47513210508E+02  0.75824630266E+02  0.47000000000E+01 0. -1.
        -11    1    4    4    0    0 -0.31391755524E+02  0.28739052806E+02  0.34503797809E+03  0.34765296173E+03  0.00000000000E+00 0.  1.
         12    1    4    4    0    0 -0.16154208798E+02 -0.37318110333E+02  0.12062585715E+03  0.12729570783E+03  0.00000000000E+00 0. -1.
         -5    1    5    5    0  502 -0.15524763278E+02  0.34312190427E+02 -0.79299060696E+01  0.38772646247E+02  0.47000000000E+01 0.  1.
         11    1    6    6    0    0  0.63039317060E+02 -0.12849521195E+02  0.15218432744E+03  0.16522449942E+03  0.00000000000E+00 0. -1.
        -12    1    6    6    0    0  0.46654287581E+02  0.23117592701E+02  0.23079974738E+02  0.56953760858E+02  0.00000000000E+00 0.  1.
</event>
<event>
12    1  0.1630640E-001  0.1909940E+03  0.7818608E-02  0.1158061E+00
         21   -1    0    0  501  502  0.00000000000E+00  0.00000000000E+00  0.38833572586E+03  0.38833572586E+03  0.00000000000E+00 0.  1.
         21   -1    0    0  502  503 -0.00000000000E+00 -0.00000000000E+00 -0.15187354550E+03  0.15187354550E+03  0.00000000000E+00 0.  1.
         -6    2    1    2    0  503  0.20234647052E+02  0.81051298593E+02 -0.49716919960E+02  0.19735878297E+03  0.17175553307E+03 0.  0.
        -24    2    3    3    0    0  0.57891292448E+02  0.12199088045E+01 -0.46204718116E+02  0.10889693074E+03  0.79817138694E+02 0.  0.
          6    2    1    2  501    0 -0.20234647052E+02 -0.81051298593E+02  0.28617910032E+03  0.34285048840E+03  0.16931989248E+03 0.  0.
         24    2    5    5    0    0 -0.60289415604E+02 -0.39156267267E+02  0.25681219426E+03  0.27770385913E+03  0.77452587784E+02 0.  0.
          5    1    5    5  501    0  0.40054768551E+02 -0.41895031325E+02  0.29366906057E+02  0.65146629267E+02  0.47000000000E+01 0. -1.
        -11    1    6    6    0    0 -0.37854883690E+02 -0.57692832763E+02  0.12563580979E+03  0.14333810336E+03  0.00000000000E+00 0.  1.
         12    1    6    6    0    0 -0.22434531913E+02  0.18536565496E+02  0.13117638447E+03  0.13436575577E+03  0.00000000000E+00 0. -1.
         -5    1    3    3    0  503 -0.37656645395E+02  0.79831389788E+02 -0.35122018439E+01  0.88461852229E+02  0.47000000000E+01 0.  1.
         11    1    4    4    0    0  0.48693835493E+02 -0.55973204925E+01 -0.68267365031E+02  0.84040780220E+02  0.00000000000E+00 0. -1.
        -12    1    4    4    0    0  0.91974569550E+01  0.68172292971E+01  0.22062646914E+02  0.24856150519E+02  0.00000000000E+00 0.  1.
</event>
<event>
12    1  0.1630640E-001  0.2305180E+03  0.7818608E-02  0.1126368E+00
         21   -1    0    0  501  502  0.00000000000E+00  0.00000000000E+00  0.37455570203E+03  0.37455570203E+03  0.00000000000E+00 0.  1.
         21   -1    0    0  502  503 -0.00000000000E+00 -0.00000000000E+00 -0.17983537726E+03  0.17983537726E+03  0.00000000000E+00 0.  1.
         -6    2    1    2    0  503 -0.12547285630E+03 -0.86818265903E+02 -0.30454061837E+02  0.23252098733E+03  0.17279383874E+03 0.  0.
        -24    2    3    3    0    0 -0.10759308885E+03  0.39692899583E+01  0.16444612860E+01  0.13446757551E+03  0.80540651722E+02 0.  0.
          6    2    1    2  501    0  0.12547285630E+03  0.86818265903E+02  0.22517438660E+03  0.32187009196E+03  0.17209300611E+03 0.  0.
         24    2    5    5    0    0  0.12968155713E+03  0.55851455789E+02  0.23815346250E+03  0.28770574062E+03  0.78235734246E+02 0.  0.
          5    1    5    5  501    0 -0.42087008307E+01  0.30966810114E+02 -0.12979075895E+02  0.34164351339E+02  0.47000000000E+01 0. -1.
        -11    1    6    6    0    0  0.66643772849E+02 -0.12737897473E+02  0.90262723562E+02  0.11292035138E+03  0.00000000000E+00 0.  1.
         12    1    6    6    0    0  0.63037784279E+02  0.68589353262E+02  0.14789073893E+03  0.17478538923E+03  0.00000000000E+00 0. -1.
         -5    1    3    3    0  503 -0.17879767443E+02 -0.90787555861E+02 -0.32098523123E+02  0.98053411821E+02  0.47000000000E+01 0.  1.
         11    1    4    4    0    0 -0.66840851335E+02  0.28221454058E+02  0.30775978719E+02  0.78811869299E+02  0.00000000000E+00 0. -1.
        -12    1    4    4    0    0 -0.40752237519E+02 -0.24252164100E+02 -0.29131517433E+02  0.55655706215E+02  0.00000000000E+00 0.  1.
</event>
<event>
12    1  0.1630640E-001  0.2400845E+03  0.7818608E-02  0.1119856E+00
         21   -1    0    0  503  502  0.00000000000E+00  0.00000000000E+00  0.32393326247E+03  0.32393326247E+03  0.00000000000E+00 0. -1.
         21   -1    0    0  501  503 -0.00000000000E+00 -0.00000000000E+00 -0.21860654683E+03  0.21860654683E+03  0.00000000000E+00 0. -1.
          6    2    1    2  501    0 -0.68279790481E+02 -0.15203638330E+03 -0.65036529814E+02  0.24873739953E+03  0.17281016196E+03 0.  0.
         24    2    3    3    0    0 -0.43023278690E+02 -0.38263216919E+02 -0.84762137621E+02  0.13044363646E+03  0.80720790637E+02 0.  0.
         -6    2    1    2    0  502  0.68279790481E+02  0.15203638330E+03  0.17036324545E+03  0.29380240978E+03  0.17181102687E+03 0.  0.
        -24    2    5    5    0    0  0.75296504383E+02  0.15491649165E+03  0.86869063408E+02  0.20983278590E+03  0.82552291948E+02 0.  0.
          5    1    3    3  501    0 -0.25256511791E+02 -0.11377316638E+03  0.19725607807E+02  0.11829376307E+03  0.47000000000E+01 0. -1.
        -11    1    4    4    0    0  0.17044685862E+02  0.41448202550E+01  0.88413808033E+00  0.17563671349E+02  0.00000000000E+00 0.  1.
         12    1    4    4    0    0 -0.60067964552E+02 -0.42408037174E+02 -0.85646275701E+02  0.11287996511E+03  0.00000000000E+00 0. -1.
         -5    1    5    5    0  502 -0.70167139018E+01 -0.28801083438E+01  0.83494182045E+02  0.83969623873E+02  0.47000000000E+01 0.  1.
         11    1    6    6    0    0  0.40041066482E+02  0.14822994648E+03  0.80576888337E+02  0.17340138111E+03  0.00000000000E+00 0. -1.
        -12    1    6    6    0    0  0.35255437901E+02  0.66865451702E+01  0.62921750713E+01  0.36431404791E+02  0.00000000000E+00 0.  1.
</event>
<event>
12    1  0.1630640E-001  0.2853827E+03  0.7818608E-02  0.1092864E+00
         21   -1    0    0  501  502  0.00000000000E+00  0.00000000000E+00  0.25733103559E+03  0.25733103559E+03  0.00000000000E+00 0.  1.
         21   -1    0    0  502  503 -0.00000000000E+00 -0.00000000000E+00 -0.51641112571E+03  0.51641112571E+03  0.00000000000E+00 0. -1.
         -6    2    1    2    0  503 -0.77481079405E+02  0.21291411521E+03 -0.37056542905E+03  0.46735637345E+03  0.17253261860E+03 0.  0.
        -24    2    3    3    0    0 -0.51567520000E+02  0.22937656110E+03 -0.35246098229E+03  0.43140660741E+03  0.81302527520E+02 0.  0.
          6    2    1    2  501    0  0.77481079405E+02 -0.21291411521E+03  0.11148533893E+03  0.30638578784E+03  0.17351522144E+03 0.  0.
         24    2    5    5    0    0  0.10209840529E+03 -0.13413031573E+03  0.29199186188E+02  0.18974102487E+03  0.82061185010E+02 0.  0.
          5    1    5    5  501    0 -0.24617325886E+02 -0.78783799483E+02  0.82286152740E+02  0.11664476297E+03  0.47000000000E+01 0. -1.
        -13    1    6    6    0    0  0.66228993569E+02 -0.13630130992E+03  0.24195938853E+02  0.15345934358E+03  0.00000000000E+00 0.  1.
         14    1    6    6    0    0  0.35869411723E+02  0.21709941984E+01  0.50032473356E+01  0.36281681287E+02  0.00000000000E+00 0. -1.
         -5    1    3    3    0  503 -0.25913559405E+02 -0.16462445896E+02 -0.18104446764E+02  0.35949766043E+02  0.47000000000E+01 0.  1.
         11    1    4    4    0    0 -0.47727888596E+02  0.21392543671E+03 -0.27168746760E+03  0.34907896510E+03  0.00000000000E+00 0. -1.
        -12    1    4    4    0    0 -0.38396314047E+01  0.15451124390E+02 -0.80773514681E+02  0.82327642309E+02  0.00000000000E+00 0.  1.
</event>
<event>
12    1  0.1630640E-001  0.1796366E+03  0.7818608E-02  0.1168526E+00
         21   -1    0    0  501  502  0.00000000000E+00  0.00000000000E+00  0.12873723125E+04  0.12873723125E+04  0.00000000000E+00 0.  1.
         21   -1    0    0  502  503 -0.00000000000E+00 -0.00000000000E+00 -0.12610215305E+03  0.12610215305E+03  0.00000000000E+00 0.  1.
         -6    2    1    2    0  503 -0.36918973958E+01 -0.41018364109E+02 -0.53122880773E+02  0.18586713389E+03  0.17328708751E+03 0.  0.
        -24    2    3    3    0    0 -0.20769940265E+02 -0.34026296307E+02  0.35916216416E+02  0.94814405274E+02  0.78170439342E+02 0.  0.
          6    2    1    2  501    0  0.36918973958E+01  0.41018364109E+02  0.12143930402E+04  0.12276073316E+04  0.17485184678E+03 0.  0.
         24    2    5    5    0    0  0.37524051854E+02  0.59596751127E+02  0.11288914998E+04  0.11336798354E+04  0.76642831776E+02 0.  0.
          5    1    5    5  501    0 -0.33832154459E+02 -0.18578387018E+02  0.85501540376E+02  0.93927496220E+02  0.47000000000E+01 0. -1.
        -11    1    6    6    0    0  0.46719234719E+02  0.66875496905E+02  0.71775638795E+03  0.72237749925E+03  0.00000000000E+00 0.  1.
         12    1    6    6    0    0 -0.91951828646E+01 -0.72787457785E+01  0.41113511185E+03  0.41130233616E+03  0.00000000000E+00 0. -1.
         -5    1    3    3    0  503  0.17078042869E+02 -0.69920678022E+01 -0.89039097189E+02  0.91052728617E+02  0.47000000000E+01 0.  1.
         13    1    4    4    0    0  0.47589325003E+01  0.18852703519E+02  0.30064969736E+02  0.35804668324E+02  0.00000000000E+00 0. -1.
        -14    1    4    4    0    0 -0.25528872765E+02 -0.52878999826E+02  0.58512466805E+01  0.59009736951E+02  0.00000000000E+00 0.  1.
</event>
<event>
12    1  0.1630640E-001  0.1797629E+03  0.7818608E-02  0.1168306E+00
         21   -1    0    0  503  502  0.00000000000E+00  0.00000000000E+00  0.61885512180E+03  0.61885512180E+03  0.00000000000E+00 0.  1.
         21   -1    0    0  501  503 -0.00000000000E+00 -0.00000000000E+00 -0.87731949761E+02  0.87731949761E+02  0.00000000000E+00 0.  1.
          6    2    1    2  501    0 -0.43831210422E+02 -0.23413365901E+01  0.40243864298E+02  0.18421254360E+03  0.17432164450E+03 0.  0.
         24    2    3    3    0    0 -0.82697228689E+02  0.37617109173E+02  0.42914136374E+02  0.12820839092E+03  0.79635983495E+02 0.  0.
         -6    2    1    2    0  502  0.43831210422E+02  0.23413365901E+01  0.49087930774E+03  0.52237452796E+03  0.17316464949E+03 0.  0.
        -24    2    5    5    0    0  0.43426314552E+02  0.65661001822E+02  0.35745691998E+03  0.37461402072E+03  0.79768433116E+02 0.  0.
          5    1    3    3  501    0  0.38866018266E+02 -0.39958445763E+02 -0.26702720757E+01  0.56004152673E+02  0.47000000000E+01 0. -1.
        -11    1    4    4    0    0 -0.72683002691E+02  0.32491361724E+01  0.56645198006E+00  0.72757794317E+02  0.00000000000E+00 0.  1.
         12    1    4    4    0    0 -0.10014225998E+02  0.34367973001E+02  0.42347684394E+02  0.55450596607E+02  0.00000000000E+00 0. -1.
         -5    1    5    5    0  502  0.40489587052E+00 -0.63319665231E+02  0.13342238776E+03  0.14776050725E+03  0.47000000000E+01 0.  1.
         11    1    6    6    0    0 -0.65462194848E+01  0.40427635855E+01 -0.74659138387E+00  0.77300922145E+01  0.00000000000E+00 0. -1.
        -12    1    6    6    0    0  0.49972534036E+02  0.61618238236E+02  0.35820351136E+03  0.36688392850E+03  0.00000000000E+00 0.  1.
</event>
<event>
12    1  0.1630640E-001  0.2364864E+03  0.7818608E-02  0.1122197E+00
         21   -1    0    0  501  502  0.00000000000E+00  0.00000000000E+00  0.48264503146E+03  0.48264503146E+03  0.00000000000E+00 0.  1.
         21   -1    0    0  502  503 -0.00000000000E+00 -0.00000000000E+00 -0.15651249428E+03  0.15651249428E+03  0.00000000000E+00 0.  1.
         -6    2    1    2    0  503  0.85409182849E+02 -0.13789747298E+03 -0.80568963169E-01  0.23624214497E+03  0.17175535799E+03 0.  0.
        -24    2    3    3    0    0  0.41087582238E+02 -0.16099645666E+03  0.12889582470E+02  0.18439349835E+03  0.78909900699E+02 0.  0.
          6    2    1    2  501    0 -0.85409182849E+02  0.13789747298E+03  0.32621310614E+03  0.40291538077E+03  0.17209117313E+03 0.  0.
         24    2    5    5    0    0  0.76977646984E+01  0.86301105936E+02  0.23402029419E+03  0.26201579471E+03  0.79872661914E+02 0.  0.
          5    1    5    5  501    0 -0.93106947547E+02  0.51596367048E+02  0.92192811955E+02  0.14089958605E+03  0.47000000000E+01 0. -1.
        -11    1    6    6    0    0  0.18338117676E+02  0.17793327072E+02  0.15414788459E+03  0.15625126999E+03  0.00000000000E+00 0.  1.
         12    1    6    6    0    0 -0.10640352978E+02  0.68507778863E+02  0.79872409595E+02  0.10576452473E+03  0.00000000000E+00 0. -1.
         -5    1    3    3    0  503  0.44321600610E+02  0.23098983674E+02 -0.12970151434E+02  0.51848646614E+02  0.47000000000E+01 0.  1.
         13    1    4    4    0    0 -0.83865759647E+01 -0.48785484909E+02  0.33868255064E+02  0.59978470265E+02  0.00000000000E+00 0. -1.
        -14    1    4    4    0    0  0.49474158203E+02 -0.11221097175E+03 -0.20978672593E+02  0.12441502809E+03  0.00000000000E+00 0.  1.
</event>
<event>
12    1  0.1630640E-001  0.2099971E+03  0.7818608E-02  0.1141985E+00
         21   -1    0    0  501  502  0.00000000000E+00  0.00000000000E+00  0.14711505738E+03  0.14711505738E+03  0.00000000000E+00 0.  1.
         21   -1    0    0  502  503 -0.00000000000E+00 -0.00000000000E+00 -0.36903426876E+03  0.36903426876E+03  0.00000000000E+00 0. -1.
         -6    2    1    2    0  503 -0.68850035170E+02 -0.97143907846E+02  0.36818988002E+01  0.20793733124E+03  0.17043213069E+03 0.  0.
        -24    2    3    3    0    0 -0.96406616761E+01 -0.11916033513E+03 -0.23376162760E+01  0.14430716904E+03  0.80789645133E+02 0.  0.
          6    2    1    2  501    0  0.68850035170E+02  0.97143907846E+02 -0.22560111018E+03  0.30821199490E+03  0.17297834174E+03 0.  0.
         24    2    5    5    0    0  0.71991023345E+02  0.33311027158E+02 -0.56115543164E+02  0.12701610673E+03  0.81803454763E+02 0.  0.
          5    1    5    5  501    0 -0.31409881755E+01  0.63832880688E+02 -0.16948556702E+03  0.18119588817E+03  0.47000000000E+01 0. -1.
        -11    1    6    6    0    0  0.61227295107E+02 -0.16146941609E+02 -0.32086683484E+02  0.70986341267E+02  0.00000000000E+00 0.  1.
         12    1    6    6    0    0  0.10763728238E+02  0.49457968766E+02 -0.24028859680E+02  0.56029765461E+02  0.00000000000E+00 0. -1.
         -5    1    3    3    0  503 -0.59209373494E+02  0.22016427284E+02  0.60195150762E+01  0.63630162200E+02  0.47000000000E+01 0.  1.
         13    1    4    4    0    0 -0.19527650022E+02 -0.11966521715E+03 -0.21121621721E+02  0.12307402738E+03  0.00000000000E+00 0. -1.
        -14    1    4    4    0    0  0.98869883460E+01  0.50488201754E+00  0.18784005445E+02  0.21233141665E+02  0.00000000000E+00 0.  1.
</event>
<event>
12    1  0.1630640E-001  0.1849888E+03  0.7818608E-02  0.1164104E+00
         21   -1    0    0  503  502  0.00000000000E+00  0.00000000000E+00  0.77939584100E+02  0.77939584100E+02  0.00000000000E+00 0.  1.
         21   -1    0    0  501  503 -0.00000000000E+00 -0.00000000000E+00 -0.45591947150E+03  0.45591947150E+03  0.00000000000E+00 0.  1.
          6    2    1    2  501    0  0.20095118438E+02  0.52706827732E+02 -0.12158382497E+03  0.21769484317E+03  0.17154181640E+03 0.  0.
         24    2    3    3    0    0  0.16592953794E+02  0.36488142964E+02  0.80692363710E+01  0.86899899812E+02  0.76679653880E+02 0.  0.
         -6    2    1    2    0  502 -0.20095118438E+02 -0.52706827732E+02 -0.25639606244E+03  0.31616421243E+03  0.17617901384E+03 0.  0.
        -24    2    5    5    0    0 -0.57109084626E+02 -0.86996478214E+02 -0.14372717884E+03  0.19262401188E+03  0.74944467748E+02 0.  0.
          5    1    3    3  501    0  0.35021646445E+01  0.16218684768E+02 -0.12965306134E+03  0.13079494335E+03  0.47000000000E+01 0. -1.
        -13    1    4    4    0    0  0.36113009047E+02 -0.85833176054E+01  0.69881372812E+01  0.37771111000E+02  0.00000000000E+00 0.  1.
         14    1    4    4    0    0 -0.19520055253E+02  0.45071460569E+02  0.10810990898E+01  0.49128788812E+02  0.00000000000E+00 0. -1.
         -5    1    5    5    0  502  0.37013966187E+02  0.34289650482E+02 -0.11266888359E+03  0.12354020056E+03  0.47000000000E+01 0.  1.
         11    1    6    6    0    0 -0.49965271343E+02 -0.11754516361E+02 -0.44808438256E+02  0.68135843241E+02  0.00000000000E+00 0. -1.
        -12    1    6    6    0    0 -0.71438132830E+01 -0.75241961853E+02 -0.98918740587E+02  0.12448816864E+03  0.00000000000E+00 0.  1.
</event>
<event>
12    1  0.1630640E-001  0.1788577E+03  0.7818608E-02  0.1169801E+00
         21   -1    0    0  501  502  0.00000000000E+00  0.00000000000E+00  0.41405082715E+03  0.41405082715E+03  0.00000000000E+00 0.  1.
         21   -1    0    0  502  503 -0.00000000000E+00 -0.00000000000E+00 -0.14066120665E+03  0.14066120665E+03  0.00000000000E+00 0.  1.
         -6    2    1    2    0  503  0.36379098161E+02 -0.94305235201E+01 -0.52511037870E+02  0.18295765982E+03  0.17118330127E+03 0.  0.
        -24    2    3    3    0    0 -0.28456953898E+02  0.39071845291E+02 -0.24616477894E+02  0.97188260250E+02  0.80642294281E+02 0.  0.
          6    2    1    2  501    0 -0.36379098161E+02  0.94305235201E+01  0.32590065837E+03  0.37175437397E+03  0.17486481030E+03 0.  0.
         24    2    5    5    0    0  0.21822594705E+02  0.60006065664E+02  0.16854498937E+03  0.19645971038E+03  0.78179606068E+02 0.  0.
          5    1    5    5  501    0 -0.58201692866E+02 -0.50575542144E+02  0.15735566901E+03  0.17529466359E+03  0.47000000000E+01 0. -1.
        -13    1    6    6    0    0  0.25157136367E+02 -0.23789532647E+01  0.10241419713E+03  0.10548558528E+03  0.00000000000E+00 0.  1.
         14    1    6    6    0    0 -0.33345416624E+01  0.62385018928E+02  0.66130792237E+02  0.90974125094E+02  0.00000000000E+00 0. -1.
         -5    1    3    3    0  503  0.64836052060E+02 -0.48502368811E+02 -0.27894559976E+02  0.85769399574E+02  0.47000000000E+01 0.  1.
         13    1    4    4    0    0 -0.56937788634E+02  0.27901896460E+02 -0.17526541990E+02  0.65784551946E+02  0.00000000000E+00 0. -1.
        -14    1    4    4    0    0  0.28480834736E+02  0.11169948830E+02 -0.70899359043E+01  0.31403708304E+02  0.00000000000E+00 0.  1.
</event>
<event>
12    1  0.1630640E-001  0.1909806E+03  0.7818608E-02  0.1157758E+00
         21   -1    0    0  503  502  0.00000000000E+00  0.00000000000E+00  0.26941485967E+02  0.26941485967E+02  0.00000000000E+00 0.  1.
         21   -1    0    0  501  503 -0.00000000000E+00 -0.00000000000E+00 -0.14292615848E+04  0.14292615848E+04  0.00000000000E+00 0.  1.
          6    2    1    2  501    0 -0.48878770700E+02 -0.65353736930E+02 -0.87594887257E+03  0.89652665050E+03  0.17266546423E+03 0.  0.
         24    2    3    3    0    0 -0.15055082953E+02 -0.10862391831E+03 -0.65159243699E+03  0.66549797125E+03  0.79303433988E+02 0.  0.
         -6    2    1    2    0  502  0.48878770700E+02  0.65353736930E+02 -0.52637122622E+03  0.55967642023E+03  0.17178702632E+03 0.  0.
        -24    2    5    5    0    0  0.12596080364E+02  0.17021249988E+02 -0.46860550846E+03  0.47594213179E+03  0.80507180196E+02 0.  0.
          5    1    3    3  501    0 -0.33823687746E+02  0.43270181377E+02 -0.22435643558E+03  0.23102867925E+03  0.47000000000E+01 0. -1.
        -11    1    4    4    0    0 -0.27468179807E+02 -0.49844275197E+01 -0.20366978635E+03  0.20557414062E+03  0.00000000000E+00 0.  1.
         12    1    4    4    0    0  0.12413096854E+02 -0.10363949079E+03 -0.44792265064E+03  0.45992383063E+03  0.00000000000E+00 0. -1.
         -5    1    5    5    0  502  0.36282690336E+02  0.48332486942E+02 -0.57765717768E+02  0.83734288444E+02  0.47000000000E+01 0.  1.
         13    1    6    6    0    0  0.11312664818E+02 -0.29941752955E+02 -0.12041277823E+03  0.12459422987E+03  0.00000000000E+00 0. -1.
        -14    1    6    6    0    0  0.12834155458E+01  0.46963002942E+02 -0.34819273023E+03  0.35134790192E+03  0.00000000000E+00 0.  1.
</event>
<event>
12    1  0.1630640E-001  0.1759807E+03  0.7818608E-02  0.1172210E+00
         21   -1    0    0  501  502  0.00000000000E+00  0.00000000000E+00  0.91703459292E+03  0.91703459292E+03  0.00000000000E+00 0. -1.
         21   -1    0    0  502  503 -0.00000000000E+00 -0.00000000000E+00 -0.54221107043E+02  0.54221107043E+02  0.00000000000E+00 0. -1.
         -6    2    1    2    0  503 -0.23853603261E+02  0.89755831799E+01  0.13201397992E+03  0.21999297509E+03  0.17412542236E+03 0.  0.
        -24    2    3    3    0    0  0.31623292828E+02  0.28321821979E+02  0.13343462804E+03  0.16103475941E+03  0.79531349340E+02 0.  0.
          6    2    1    2  501    0  0.23853603261E+02 -0.89755831799E+01  0.73079950596E+03  0.75126272487E+03  0.17227364393E+03 0.  0.
         24    2    5    5    0    0  0.37375979718E+02 -0.26837701361E+02  0.20439835597E+03  0.22436409075E+03  0.80270363276E+02 0.  0.
          5    1    5    5  501    0 -0.13522376457E+02  0.17862118181E+02  0.52640114999E+03  0.52689863412E+03  0.47000000000E+01 0. -1.
        -11    1    6    6    0    0 -0.21373046431E+02 -0.25799758552E+02  0.66260578282E+02  0.74248898236E+02  0.00000000000E+00 0.  1.
         12    1    6    6    0    0  0.58749026149E+02 -0.10379428091E+01  0.13813777769E+03  0.15011519251E+03  0.00000000000E+00 0. -1.
         -5    1    3    3    0  503 -0.55476896089E+02 -0.19346238800E+02 -0.14206481223E+01  0.58958215683E+02  0.47000000000E+01 0.  1.
         11    1    4    4    0    0 -0.38925360711E+01 -0.15453261741E+02 -0.26425344250E+00  0.15938160665E+02  0.00000000000E+00 0. -1.
        -12    1    4    4    0    0  0.35515828899E+02  0.43775083720E+02  0.13369888148E+03  0.14509659874E+03  0.00000000000E+00 0.  1.
</event>
<event>
12    1  0.1630640E-001  0.2908390E+03  0.7818608E-02  0.1090017E+00
         21   -1    0    0  503  502  0.00000000000E+00  0.00000000000E+00  0.28089553314E+03  0.28089553314E+03  0.00000000000E+00 0.  1.
         21   -1    0    0  501  503 -0.00000000000E+00 -0.00000000000E+00 -0.30635809507E+03  0.30635809507E+03  0.00000000000E+00 0. -1.
          6    2    1    2  501    0  0.62407394703E+02 -0.22552946722E+03 -0.54053981338E+02  0.29581951551E+03  0.17271111534E+03 0.  0.
         24    2    3    3    0    0 -0.12499611751E+02 -0.11939120567E+03 -0.79142400838E+02  0.16342650598E+03  0.77680132342E+02 0.  0.
         -6    2    1    2    0  502 -0.62407394703E+02  0.22552946722E+03  0.28591419414E+02  0.29143411270E+03  0.17134219936E+03 0.  0.
        -24    2    5    5    0    0 -0.11213853946E+02  0.15343885537E+03  0.77661618660E+02  0.19020264829E+03  0.80476627322E+02 0.  0.
          5    1    3    3  501    0  0.74907006454E+02 -0.10613826155E+03  0.25088419500E+02  0.13239300954E+03  0.47000000000E+01 0. -1.
        -11    1    4    4    0    0 -0.19428435571E+02 -0.60727094165E+02  0.11203562700E+01  0.63769109078E+02  0.00000000000E+00 0.  1.
         12    1    4    4    0    0  0.69288238195E+01 -0.58664111501E+02 -0.80262757108E+02  0.99657396897E+02  0.00000000000E+00 0. -1.
         -5    1    5    5    0  502 -0.51193540757E+02  0.72090611850E+02 -0.49070199246E+02  0.10123146441E+03  0.47000000000E+01 0.  1.
         13    1    6    6    0    0  0.29480592765E+02  0.25254434341E+02  0.22271191186E+02  0.44753745771E+02  0.00000000000E+00 0. -1.
        -14    1    6    6    0    0 -0.40694446711E+02  0.12818442103E+03  0.55390427474E+02  0.14544890252E+03  0.00000000000E+00 0.  1.
</event>
<event>
12    1  0.1630640E-001  0.2347794E+03  0.7818608E-02  0.1123397E+00
         21   -1    0    0  503  502  0.00000000000E+00  0.00000000000E+00  0.15477443499E+04  0.15477443499E+04  0.00000000000E+00 0.  1.
         21   -1    0    0  501  503 -0.00000000000E+00 -0.00000000000E+00 -0.35547100633E+02  0.35547100633E+02  0.00000000000E+00 0.  1.
          6    2    1    2  501    0 -0.72644522378E+02 -0.14056215049E+03  0.75903912845E+03  0.79438807981E+03  0.17284987141E+03 0.  0.
         24    2    3    3    0    0 -0.26533042189E+02 -0.53829321691E+02  0.59248338015E+03  0.60096688271E+03  0.80765340081E+02 0.  0.
         -6    2    1    2    0  502  0.72644522378E+02  0.14056215049E+03  0.75315812078E+03  0.78890337068E+03  0.17345439918E+03 0.  0.
        -24    2    5    5    0    0  0.60939351905E+01  0.53590382825E+02  0.54768831505E+03  0.55602357317E+03  0.79313670281E+02 0.  0.
          5    1    3    3  501    0 -0.46111480189E+02 -0.86732828800E+02  0.16655574830E+03  0.19342119710E+03  0.47000000000E+01 0. -1.
        -13    1    4    4    0    0  0.32591725362E+01 -0.64994025643E+02  0.31403393960E+03  0.32070572305E+03  0.00000000000E+00 0.  1.
         14    1    4    4    0    0 -0.29792214725E+02  0.11164703952E+02  0.27844944055E+03  0.28026115966E+03  0.00000000000E+00 0. -1.
         -5    1    5    5    0  502  0.66550587187E+02  0.86971767666E+02  0.20546980572E+03  0.23287979751E+03  0.47000000000E+01 0.  1.
         11    1    6    6    0    0  0.31394626628E+01 -0.67612358859E+01  0.30673849446E+01  0.80609792777E+01  0.00000000000E+00 0. -1.
        -12    1    6    6    0    0  0.29544725277E+01  0.60351618711E+02  0.54462093011E+03  0.54796259389E+03  0.00000000000E+00 0.  1.
</event>
<event>
12    1  0.1630640E-001  0.2287172E+03  0.7818608E-02  0.1127994E+00
         21   -1    0    0  503  502  0.00000000000E+00  0.00000000000E+00  0.12336173590E+04  0.12336173590E+04  0.00000000000E+00 0. -1.
         21   -1    0    0  501  503 -0.00000000000E+00 -0.00000000000E+00 -0.51556130421E+02  0.51556130421E+02  0.00000000000E+00 0.  1.
          6    2    1    2  501    0 -0.14080524885E+02 -0.14758897445E+03  0.86588627630E+03  0.89494514638E+03  0.17084204687E+03 0.  0.
         24    2    3    3    0    0 -0.46972265905E+02 -0.28134198251E+02  0.35361753705E+03  0.36788475003E+03  0.85416040177E+02 0.  0.
         -6    2    1    2    0  502  0.14080524885E+02  0.14758897445E+03  0.31617495231E+03  0.39022834308E+03  0.17415737915E+03 0.  0.
        -24    2    5    5    0    0  0.71291204397E+02  0.93375305574E+02  0.25615736072E+03  0.29104979175E+03  0.72746163539E+02 0.  0.
          5    1    3    3  501    0  0.32891741020E+02 -0.11945477620E+03  0.51226873925E+03  0.52706039635E+03  0.47000000000E+01 0. -1.
        -11    1    4    4    0    0 -0.49413347281E+02 -0.48777356763E+02  0.32603596047E+03  0.33334720179E+03  0.00000000000E+00 0.  1.
         12    1    4    4    0    0  0.24410813757E+01  0.20643158512E+02  0.27581576574E+02  0.34537548233E+02  0.00000000000E+00 0. -1.
         -5    1    5    5    0  502 -0.57210679511E+02  0.54213668879E+02  0.60017591588E+02  0.99178551328E+02  0.47000000000E+01 0.  1.
         11    1    6    6    0    0  0.35566566923E+01  0.60019933130E+01  0.97073331130E+02  0.97323714208E+02  0.00000000000E+00 0. -1.
        -12    1    6    6    0    0  0.67734547704E+02  0.87373312261E+02  0.15908402959E+03  0.19372607754E+03  0.00000000000E+00 0.  1.
</event>
<event>
12    1  0.1630640E-001  0.2010723E+03  0.7818608E-02  0.1149169E+00
         21   -1    0    0  501  502  0.00000000000E+00  0.00000000000E+00  0.75824497570E+03  0.75824497570E+03  0.00000000000E+00 0. -1.
         21   -1    0    0  502  503 -0.00000000000E+00 -0.00000000000E+00 -0.17133509444E+03  0.17133509444E+03  0.00000000000E+00 0. -1.
         -6    2    1    2    0  503  0.87171526688E+02  0.51507177469E+02 -0.92614975310E+02  0.22137658553E+03  0.17371872257E+03 0.  0.
        -24    2    3    3    0    0 -0.14205951582E+02 -0.61714720158E+01 -0.16711223885E+02  0.82136903012E+02  0.78913304996E+02 0.  0.
          6    2    1    2  501    0 -0.87171526688E+02 -0.51507177469E+02  0.67952485657E+03  0.70820348461E+03  0.17189031539E+03 0.  0.
         24    2    5    5    0    0 -0.47985174080E+02  0.20968335393E+02  0.21093842750E+03  0.23240562658E+03  0.82311038454E+02 0.  0.
          5    1    5    5  501    0 -0.39186352609E+02 -0.72475512862E+02  0.46858642907E+03  0.47579785803E+03  0.47000000000E+01 0. -1.
        -11    1    6    6    0    0 -0.25837170895E+02 -0.12139710418E+02  0.14593516479E+02  0.32060921573E+02  0.00000000000E+00 0.  1.
         12    1    6    6    0    0 -0.22148003185E+02  0.33108045811E+02  0.19634491102E+03  0.20034470501E+03  0.00000000000E+00 0. -1.
         -5    1    3    3    0  503  0.10137747827E+03  0.57678649484E+02 -0.75903751424E+02  0.13923968252E+03  0.47000000000E+01 0.  1.
         11    1    4    4    0    0 -0.43634912289E+02  0.42353064025E+01 -0.24144860625E+02  0.50049152694E+02  0.00000000000E+00 0. -1.
        -12    1    4    4    0    0  0.29428960706E+02 -0.10406778418E+02  0.74336367395E+01  0.32087750318E+02  0.00000000000E+00 0.  1.
</event>
<event>
12    1  0.1630640E-001  0.2670857E+03  0.7818608E-02  0.1102976E+00
         21   -1    0    0  503  502  0.00000000000E+00  0.00000000000E+00  0.14527415685E+04  0.14527415685E+04  0.00000000000E+00 0.  1.
         21   -1    0    0  501  503 -0.00000000000E+00 -0.00000000000E+00 -0.61585480744E+02  0.61585480744E+02  0.00000000000E+00 0.  1.
          6    2    1    2  501    0 -0.19123346160E+03  0.72329431167E+02  0.10366152514E+04  0.10704419469E+04  0.17167701828E+03 0.  0.
         24    2    3    3    0    0 -0.60670770457E+02  0.56430685022E+02  0.69341741015E+03  0.70287394672E+03  0.79616051701E+02 0.  0.
         -6    2    1    2    0  502  0.19123346160E+03 -0.72329431167E+02  0.35454083631E+03  0.44388510239E+03  0.17185166879E+03 0.  0.
        -24    2    5    5    0    0  0.56987827311E+02 -0.33217133673E+02  0.24453795274E+03  0.26591210856E+03  0.80990423594E+02 0.  0.
          5    1    3    3  501    0 -0.13056269114E+03  0.15898746144E+02  0.34319784130E+03  0.36756800013E+03  0.47000000000E+01 0. -1.
        -11    1    4    4    0    0 -0.62917228602E+02  0.68894782430E+01  0.32212518783E+03  0.32828444861E+03  0.00000000000E+00 0.  1.
         12    1    4    4    0    0  0.22464581451E+01  0.49541206779E+02  0.37129222231E+03  0.37458949811E+03  0.00000000000E+00 0. -1.
         -5    1    5    5    0  502  0.13424563429E+03 -0.39112297494E+02  0.11000288356E+03  0.17797299383E+03  0.47000000000E+01 0.  1.
         11    1    6    6    0    0  0.11403878595E+02 -0.47640070144E+02  0.17350336713E+03  0.18028600371E+03  0.00000000000E+00 0. -1.
        -12    1    6    6    0    0  0.45583948716E+02  0.14422936471E+02  0.71034585617E+02  0.85626104844E+02  0.00000000000E+00 0.  1.
</event>
<event>
12    1  0.1630640E-001  0.1928135E+03  0.7818608E-02  0.1156674E+00
         21   -1    0    0  503  502  0.00000000000E+00  0.00000000000E+00  0.43875821079E+03  0.43875821079E+03  0.00000000000E+00 0. -1.
         21   -1    0    0  501  503 -0.00000000000E+00 -0.00000000000E+00 -0.12980828754E+03  0.12980828754E+03  0.00000000000E+00 0. -1.
          6    2    1    2  501    0 -0.72703107969E+02  0.41718796858E+02 -0.16511958039E+02  0.19027763213E+03  0.17001980064E+03 0.  0.
         24    2    3    3    0    0 -0.79051243613E+02 -0.24866489778E+02 -0.31598336801E+02  0.12154926792E+03  0.83116353459E+02 0.  0.
         -6    2    1    2    0  502  0.72703107969E+02 -0.41718796858E+02  0.32546188129E+03  0.37828886620E+03  0.17363994412E+03 0.  0.
        -24    2    5    5    0    0 -0.12943781369E+02 -0.22850600976E+02  0.24456176964E+03  0.25888067328E+03  0.80740648939E+02 0.  0.
          5    1    3    3  501    0  0.63481356438E+01  0.66585286637E+02  0.15086378763E+02  0.68728364209E+02  0.47000000000E+01 0. -1.
        -11    1    4    4    0    0 -0.64083260111E+01 -0.18649733801E+02 -0.43420295702E+02  0.47688586600E+02  0.00000000000E+00 0.  1.
         12    1    4    4    0    0 -0.72642917602E+02 -0.62167559768E+01  0.11821958900E+02  0.73860681318E+02  0.00000000000E+00 0. -1.
         -5    1    5    5    0  502  0.85646889338E+02 -0.18868195883E+02  0.80900111656E+02  0.11940819291E+03  0.47000000000E+01 0.  1.
         11    1    6    6    0    0  0.15123591163E+02 -0.21092018505E+02  0.22004986067E+03  0.22157512819E+03  0.00000000000E+00 0. -1.
        -12    1    6    6    0    0 -0.28067372533E+02 -0.17585824703E+01  0.24511908970E+02  0.37305545091E+02  0.00000000000E+00 0.  1.
</event>
<event>
12    1  0.1630640E-001  0.3157316E+03  0.7818608E-02  0.1077637E+00
         21   -1    0    0  503  502  0.00000000000E+00  0.00000000000E+00  0.11644275098E+03  0.11644275098E+03  0.00000000000E+00 0.  1.
         21   -1    0    0  501  503 -0.00000000000E+00 -0.00000000000E+00 -0.10415880318E+04  0.10415880318E+04  0.00000000000E+00 0.  1.
          6    2    1    2  501    0 -0.99981447808E+01  0.26388559936E+03 -0.70703771038E+03  0.77433119195E+03  0.17306327885E+03 0.  0.
         24    2    3    3    0    0 -0.53375878818E+02  0.74635852831E+02 -0.26881742542E+03  0.29500228345E+03  0.79649507647E+02 0.  0.
         -6    2    1    2    0  502  0.99981447808E+01 -0.26388559936E+03 -0.21810757046E+03  0.38369959084E+03  0.17297078155E+03 0.  0.
        -24    2    5    5    0    0  0.60858675181E+02 -0.94157316612E+02 -0.10964417289E+03  0.17589948947E+03  0.79683167169E+02 0.  0.
          5    1    3    3  501    0  0.43377734037E+02  0.18924974653E+03 -0.43822028496E+03  0.47932890850E+03  0.47000000000E+01 0. -1.
        -13    1    4    4    0    0 -0.57118750674E+02  0.82571830268E+02 -0.26800007338E+03  0.28618996866E+03  0.00000000000E+00 0.  1.
         14    1    4    4    0    0  0.37428718555E+01 -0.79359774369E+01 -0.81735203608E+00  0.88123147899E+01  0.00000000000E+00 0. -1.
         -5    1    5    5    0  502 -0.50860530400E+02 -0.16972828275E+03 -0.10846339757E+03  0.20780010137E+03  0.47000000000E+01 0.  1.
         11    1    6    6    0    0  0.36938639034E+02 -0.17678596789E+01 -0.53929888879E+02  0.65391293733E+02  0.00000000000E+00 0. -1.
        -12    1    6    6    0    0  0.23920036147E+02 -0.92389456934E+02 -0.55714284007E+02  0.11050819573E+03  0.00000000000E+00 0.  1.
</event>
<event>
12    1  0.1630640E-001  0.1816062E+03  0.7818608E-02  0.1166750E+00
         21   -1    0    0  503  502  0.00000000000E+00  0.00000000000E+00  0.20900010354E+03  0.20900010354E+03  0.00000000000E+00 0.  1.
         21   -1    0    0  501  503 -0.00000000000E+00 -0.00000000000E+00 -0.15628710073E+03  0.15628710073E+03  0.00000000000E+00 0.  1.
          6    2    1    2  501    0  0.23217993437E+01 -0.51243962902E+02  0.19078653888E+02  0.18260565354E+03  0.17421106505E+03 0.  0.
         24    2    3    3    0    0 -0.40191477198E+02  0.21924823479E+02  0.30442494508E+02  0.97093801403E+02  0.80027545726E+02 0.  0.
         -6    2    1    2    0  502 -0.23217993437E+01  0.51243962902E+02  0.33634348928E+02  0.18268155073E+03  0.17207540516E+03 0.  0.
        -24    2    5    5    0    0 -0.53583182388E+02  0.71080683771E+02  0.40850167879E+02  0.12704538506E+03  0.80920779843E+02 0.  0.
          5    1    3    3  501    0  0.42513276542E+02 -0.73168786381E+02 -0.11363840619E+02  0.85511852140E+02  0.47000000000E+01 0. -1.
        -13    1    4    4    0    0  0.16889719856E+02  0.13483891068E+02 -0.12681372217E+02  0.25057836229E+02  0.00000000000E+00 0.  1.
         14    1    4    4    0    0 -0.57081197055E+02  0.84409324107E+01  0.43123866725E+02  0.72035965173E+02  0.00000000000E+00 0. -1.
         -5    1    5    5    0  502  0.51261383044E+02 -0.19836720869E+02 -0.72158189516E+01  0.55636165662E+02  0.47000000000E+01 0.  1.
         13    1    6    6    0    0 -0.60644084746E+02  0.20123269753E+02  0.44987598368E+01  0.64053804261E+02  0.00000000000E+00 0. -1.
        -14    1    6    6    0    0  0.70609023582E+01  0.50957414018E+02  0.36351408042E+02  0.62991580804E+02  0.00000000000E+00 0.  1.
</event>
<event>
12    1  0.1630640E-001  0.2159195E+03  0.7818608E-02  0.1137259E+00
         21   -1    0    0  501  502  0.00000000000E+00  0.00000000000E+00  0.39795091225E+03  0.39795091225E+03  0.00000000000E+00 0.  1.
         21   -1    0    0  502  503 -0.00000000000E+00 -0.00000000000E+00 -0.13496735441E+03  0.13496735441E+03  0.00000000000E+00 0.  1.
         -6    2    1    2    0  503  0.12530855031E+03  0.25897213471E+02  0.32844329448E+02  0.21840329049E+03  0.17392052459E+03 0.  0.
        -24    2    3    3    0    0  0.47413554089E+02  0.58797430368E+02  0.64185811550E+02  0.12810139013E+03  0.81147796148E+02 0.  0.
          6    2    1    2  501    0 -0.12530855031E+03 -0.25897213471E+02  0.23013922839E+03  0.31451497617E+03  0.17199624224E+03 0.  0.
         24    2    5    5    0    0 -0.28535832971E+02 -0.62656438486E+02  0.98903339606E+02  0.14729910387E+03  0.84705562793E+02 0.  0.
          5    1    5    5  501    0 -0.96772717338E+02  0.36759225015E+02  0.13123588878E+03  0.16721587230E+03  0.47000000000E+01 0. -1.
        -13    1    6    6    0    0 -0.43525168714E+01 -0.65364771602E+02  0.10354312370E+03  0.12252622672E+03  0.00000000000E+00 0.  1.
         14    1    6    6    0    0 -0.24183316099E+02  0.27083331164E+01 -0.46397840887E+01  0.24772877149E+02  0.00000000000E+00 0. -1.
         -5    1    3    3    0  503  0.77894996220E+02 -0.32900216896E+02 -0.31341482101E+02  0.90301900358E+02  0.47000000000E+01 0.  1.
         11    1    4    4    0    0 -0.89107055818E+01  0.26368006304E+02  0.56077218093E+02  0.62604527148E+02  0.00000000000E+00 0. -1.
        -12    1    4    4    0    0  0.56324259671E+02  0.32429424063E+02  0.81085934571E+01  0.65496862982E+02  0.00000000000E+00 0.  1.
</event>
<event>
12    1  0.1630640E-001  0.2167101E+03  0.7818608E-02  0.1136638E+00
         21   -1    0    0  501  502  0.00000000000E+00  0.00000000000E+00  0.20138561430E+02  0.20138561430E+02  0.00000000000E+00 0.  1.
         21   -1    0    0  502  503 -0.00000000000E+00 -0.00000000000E+00 -0.23652003143E+04  0.23652003143E+04  0.00000000000E+00 0. -1.
         -6    2    1    2    0  503 -0.12952393964E+03 -0.21058260157E+02 -0.99725469692E+03  0.10202208883E+04  0.17062775013E+03 0.  0.
        -24    2    3    3    0    0 -0.57312843722E+02 -0.43038944480E+01 -0.84915079979E+03  0.85453442086E+03  0.76607506754E+02 0.  0.
          6    2    1    2  501    0  0.12952393964E+03  0.21058260157E+02 -0.13478070560E+04  0.13651179875E+04  0.17246262872E+03 0.  0.
         24    2    5    5    0    0  0.30231658059E+02 -0.31574893927E+02 -0.39613928182E+03  0.40682635730E+03  0.81672684009E+02 0.  0.
          5    1    5    5  501    0  0.99292281578E+02  0.52633154084E+02 -0.95166777415E+03  0.95829163017E+03  0.47000000000E+01 0. -1.
        -11    1    6    6    0    0 -0.26777092781E+02 -0.10811198347E+02 -0.18125524016E+03  0.18354115831E+03  0.00000000000E+00 0.  1.
         12    1    6    6    0    0  0.57008750840E+02 -0.20763695580E+02 -0.21488404166E+03  0.22328519899E+03  0.00000000000E+00 0. -1.
         -5    1    3    3    0  503 -0.72211095915E+02 -0.16754365709E+02 -0.14810389713E+03  0.16568646743E+03  0.47000000000E+01 0.  1.
         11    1    4    4    0    0 -0.19193074750E+02  0.34987604372E+01 -0.70365994312E+03  0.70393034528E+03  0.00000000000E+00 0. -1.
        -12    1    4    4    0    0 -0.38119768972E+02 -0.78026548851E+01 -0.14549085666E+03  0.15060407558E+03  0.00000000000E+00 0.  1.
</event>
<event>
12    1  0.1630640E-001  0.1753591E+03  0.7818608E-02  0.1173445E+00
         21   -1    0    0  503  502  0.00000000000E+00  0.00000000000E+00  0.74882706489E+03  0.74882706489E+03  0.00000000000E+00 0.  1.
         21   -1    0    0  501  503 -0.00000000000E+00 -0.00000000000E+00 -0.97858421020E+02  0.97858421020E+02  0.00000000000E+00 0.  1.
          6    2    1    2  501    0  0.16823442029E+02  0.30017738696E+02  0.18289593262E+01  0.17536865425E+03  0.17194978035E+03 0.  0.
         24    2    3    3    0    0 -0.14083286601E+02 -0.31095772493E+02 -0.35172223279E+02  0.97386190585E+02  0.84152830004E+02 0.  0.
         -6    2    1    2    0  502 -0.16823442029E+02 -0.30017738696E+02  0.64913968455E+03  0.67131683167E+03  0.16763014523E+03 0.  0.
        -24    2    5    5    0    0  0.11974973306E+01 -0.79176771554E+02  0.33873555982E+03  0.35649279285E+03  0.77941880382E+02 0.  0.
          5    1    3    3  501    0  0.30906728630E+02  0.61113511189E+02  0.37001182605E+02  0.77982463661E+02  0.47000000000E+01 0. -1.
        -11    1    4    4    0    0  0.15223194399E+02  0.23773866792E+02 -0.69232734264E+01  0.29066718165E+02  0.00000000000E+00 0.  1.
         12    1    4    4    0    0 -0.29306481000E+02 -0.54869639285E+02 -0.28248949853E+02  0.68319472419E+02  0.00000000000E+00 0. -1.
         -5    1    5    5    0  502 -0.18020939360E+02  0.49159032858E+02  0.31040412473E+03  0.31482403882E+03  0.47000000000E+01 0.  1.
         11    1    6    6    0    0  0.27184778650E+02 -0.79955540501E+02  0.27443636436E+03  0.28713623723E+03  0.00000000000E+00 0. -1.
        -12    1    6    6    0    0 -0.25987281319E+02  0.77876894761E+00  0.64299195456E+02  0.69356555622E+02  0.00000000000E+00 0.  1.
</event>
<event>
12    1  0.1630640E-001  0.2148829E+03  0.7818608E-02  0.1138177E+00
         21   -1    0    0  501  502  0.00000000000E+00  0.00000000000E+00  0.16875077288E+03  0.16875077288E+03  0.00000000000E+00 0. -1.
         21   -1    0    0  502  503 -0.00000000000E+00 -0.00000000000E+00 -0.44037961250E+03  0.44037961250E+03  0.00000000000E+00 0.  1.
         -6    2    1    2    0  503  0.12721963616E+03 -0.90932609122E+01 -0.32435036028E+03  0.38787439296E+03  0.17022298695E+03 0.  0.
        -24    2    3    3    0    0  0.88834489647E+02  0.29116501105E+02 -0.10531622153E+03  0.16219442194E+03  0.80474758786E+02 0.  0.
          6    2    1    2  501    0 -0.12721963616E+03  0.90932609122E+01  0.52721520660E+02  0.22125599241E+03  0.17293678677E+03 0.  0.
         24    2    5    5    0    0 -0.44601846980E+02 -0.27567317472E+02 -0.29646195978E+02  0.98878593188E+02  0.78414268525E+02 0.  0.
          5    1    5    5  501    0 -0.82617789179E+02  0.36660578384E+02  0.82367716638E+02  0.12237739922E+03  0.47000000000E+01 0. -1.
        -13    1    6    6    0    0 -0.46689125913E+02  0.17014185948E+02 -0.16205450536E+02  0.52268285117E+02  0.00000000000E+00 0.  1.
         14    1    6    6    0    0  0.20872789333E+01 -0.44581503419E+02 -0.13440745442E+02  0.46610308071E+02  0.00000000000E+00 0. -1.
         -5    1    3    3    0  503  0.38385146511E+02 -0.38209762018E+02 -0.21903413875E+03  0.22567997103E+03  0.47000000000E+01 0.  1.
         11    1    4    4    0    0  0.97962113781E+02  0.39830533169E+02 -0.10355611901E+03  0.14800985404E+03  0.00000000000E+00 0. -1.
        -12    1    4    4    0    0 -0.91276241339E+01 -0.10714032063E+02 -0.17601025183E+01  0.14184567891E+02  0.00000000000E+00 0.  1.
</event>
<event>
12    1  0.1630640E-001  0.1832719E+03  0.7818608E-02  0.1165851E+00
         21   -1    0    0  503  502  0.00000000000E+00  0.00000000000E+00  0.34967257328E+03  0.34967257328E+03  0.00000000000E+00 0.  1.
         21   -1    0    0  501  503 -0.00000000000E+00 -0.00000000000E+00 -0.19035718116E+03  0.19035718116E+03  0.00000000000E+00 0.  1.
          6    2    1    2  501    0 -0.35580555603E+02 -0.36728927419E+02 -0.11346867997E+03  0.21139662134E+03  0.17087539359E+03 0.  0.
         24    2    3    3    0    0 -0.70840237498E+02  0.32717672445E+01 -0.25873107291E+02  0.10874003317E+03  0.78268342413E+02 0.  0.
         -6    2    1    2    0  502  0.35580555603E+02  0.36728927419E+02  0.27278407210E+03  0.32863313309E+03  0.17599317070E+03 0.  0.
        -24    2    5    5    0    0  0.18922780098E+02  0.88507483263E+02  0.22603906272E+03  0.25676042456E+03  0.81489947514E+02 0.  0.
          5    1    3    3  501    0  0.35259681894E+02 -0.40000694664E+02 -0.87595572682E+02  0.10265658817E+03  0.47000000000E+01 0. -1.
        -13    1    4    4    0    0 -0.73081203138E+02  0.29820930758E+02 -0.20674549374E+02  0.81594038723E+02  0.00000000000E+00 0.  1.
         14    1    4    4    0    0  0.22409656403E+01 -0.26549163513E+02 -0.51985579175E+01  0.27145994450E+02  0.00000000000E+00 0. -1.
         -5    1    5    5    0  502  0.16657775505E+02 -0.51778555844E+02  0.46745009375E+02  0.71872708531E+02  0.47000000000E+01 0.  1.
         11    1    6    6    0    0 -0.12938650313E+02  0.83334303654E+02  0.12579533092E+03  0.15144794525E+03  0.00000000000E+00 0. -1.
        -12    1    6    6    0    0  0.31861430411E+02  0.51731796098E+01  0.10024373180E+03  0.10531247932E+03  0.00000000000E+00 0.  1.
</event>
<event>
12    1  0.1630640E-001  0.2486469E+03  0.7818608E-02  0.1114341E+00
         21   -1    0    0  503  502  0.00000000000E+00  0.00000000000E+00  0.43095282322E+03  0.43095282322E+03  0.00000000000E+00 0.  1.
         21   -1    0    0  501  503 -0.00000000000E+00 -0.00000000000E+00 -0.14483681544E+03  0.14483681544E+03  0.00000000000E+00 0. -1.
          6    2    1    2  501    0  0.72197089317E+02  0.16454675089E+03  0.17674076676E+03  0.30414972444E+03  0.17024013425E+03 0.  0.
         24    2    3    3    0    0 -0.21942212439E+02  0.11980444126E+03  0.10246358962E+03  0.17607446746E+03  0.75291872486E+02 0.  0.
         -6    2    1    2    0  502 -0.72197089317E+02 -0.16454675089E+03  0.10937524102E+03  0.27163991422E+03  0.17186403555E+03 0.  0.
        -24    2    5    5    0    0 -0.23636792650E+02 -0.52017357012E+02 -0.12519566041E+02  0.98719698840E+02  0.79525694012E+02 0.  0.
          5    1    3    3  501    0  0.94139301756E+02  0.44742309623E+02  0.74277177144E+02  0.12807525698E+03  0.47000000000E+01 0. -1.
        -11    1    4    4    0    0 -0.18422321477E+02  0.11165591127E+03  0.11458734589E+03  0.16104870161E+03  0.00000000000E+00 0.  1.
         12    1    4    4    0    0 -0.35198909615E+01  0.81485299882E+01 -0.12123756275E+02  0.15025765856E+02  0.00000000000E+00 0. -1.
         -5    1    5    5    0  502 -0.48560296668E+02 -0.11252939387E+03  0.12189480707E+03  0.17292021538E+03  0.47000000000E+01 0.  1.
         13    1    6    6    0    0 -0.52536172427E+02 -0.42244674379E+02 -0.88697395816E+01  0.67995104286E+02  0.00000000000E+00 0. -1.
        -14    1    6    6    0    0  0.28899379777E+02 -0.97726826322E+01 -0.36498264593E+01  0.30724594554E+02  0.00000000000E+00 0.  1.
</event>
<event>
12    1  0.1630640E-001  0.2104206E+03  0.7818608E-02  0.1141350E+00
         21   -1    0    0  501  502  0.00000000000E+00  0.00000000000E+00  0.62219344351E+03  0.62219344351E+03  0.00000000000E+00 0. -1.
         21   -1    0    0  502  503 -0.00000000000E+00 -0.00000000000E+00 -0.23957355623E+03  0.23957355623E+03  0.00000000000E+00 0. -1.
         -6    2    1    2    0  503 -0.10063851456E+03 -0.66275096397E+02 -0.17008959674E+03  0.27056850969E+03  0.17250028550E+03 0.  0.
        -24    2    3    3    0    0 -0.50588615946E+02 -0.92381502113E+01 -0.16839379716E+03  0.19452134460E+03  0.82689365101E+02 0.  0.
          6    2    1    2  501    0  0.10063851456E+03  0.66275096397E+02  0.55270948403E+03  0.59119849006E+03  0.17177712857E+03 0.  0.
         24    2    5    5    0    0  0.11964504634E+03  0.11981743564E+02  0.46245887684E+03  0.48407109622E+03  0.77447492790E+02 0.  0.
          5    1    5    5  501    0 -0.19006531782E+02  0.54293352834E+02  0.90250607189E+02  0.10712739384E+03  0.47000000000E+01 0. -1.
        -11    1    6    6    0    0 -0.44678569215E+01  0.12631903362E+02  0.10126856866E+03  0.10215111221E+03  0.00000000000E+00 0.  1.
         12    1    6    6    0    0  0.12411290327E+03 -0.65015979795E+00  0.36119030818E+03  0.38191998401E+03  0.00000000000E+00 0. -1.
         -5    1    3    3    0  503 -0.50049898616E+02 -0.57036946186E+02 -0.16957995861E+01  0.76047165088E+02  0.47000000000E+01 0.  1.
         13    1    4    4    0    0 -0.26081554542E+02 -0.26487073425E+02 -0.15874270072E+03  0.16303698224E+03  0.00000000000E+00 0. -1.
        -14    1    4    4    0    0 -0.24507061405E+02  0.17248923214E+02 -0.96510964381E+01  0.31484362360E+02  0.00000000000E+00 0.  1.
</event>
<event>
12    1  0.1630640E-001  0.2016433E+03  0.7818608E-02  0.1148765E+00
         21   -1    0    0  503  502  0.00000000000E+00  0.00000000000E+00  0.42510937409E+03  0.42510937409E+03  0.00000000000E+00 0.  1.
         21   -1    0    0  501  503 -0.00000000000E+00 -0.00000000000E+00 -0.10649689748E+03  0.10649689748E+03  0.00000000000E+00 0.  1.
          6    2    1    2  501    0 -0.10109334507E+03  0.12663358070E+02  0.70285305147E+02  0.21172131158E+03  0.17177212988E+03 0.  0.
         24    2    3    3    0    0 -0.49443669127E+02 -0.59989017026E+02  0.42453029677E+02  0.11821846569E+03  0.78294235555E+02 0.  0.
         -6    2    1    2    0  502  0.10109334507E+03 -0.12663358070E+02  0.24832717147E+03  0.31988495999E+03  0.17401085736E+03 0.  0.
        -24    2    5    5    0    0  0.10706284095E+03  0.46978604635E+02  0.15155967291E+03  0.20596025953E+03  0.76025343468E+02 0.  0.
          5    1    3    3  501    0 -0.51649675947E+02  0.72652375095E+02  0.27832275470E+02  0.93502845894E+02  0.47000000000E+01 0. -1.
        -11    1    4    4    0    0 -0.58422513829E+02 -0.23586249049E+02  0.49431210211E+02  0.80080870433E+02  0.00000000000E+00 0.  1.
         12    1    4    4    0    0  0.89788447020E+01 -0.36402767976E+02 -0.69781805342E+01  0.38137595258E+02  0.00000000000E+00 0. -1.
         -5    1    5    5    0  502 -0.59694958724E+01 -0.59641962704E+02  0.96767498557E+02  0.11392470045E+03  0.47000000000E+01 0.  1.
         11    1    6    6    0    0  0.33678878373E+02  0.31381764917E+02  0.12092966602E+02  0.47595397456E+02  0.00000000000E+00 0. -1.
        -12    1    6    6    0    0  0.73383962573E+02  0.15596839718E+02  0.13946670631E+03  0.15836486208E+03  0.00000000000E+00 0.  1.
</event>
<event>
12    1  0.1630640E-001  0.1766158E+03  0.7818608E-02  0.1171215E+00
         21   -1    0    0  501  502  0.00000000000E+00  0.00000000000E+00  0.18015733620E+03  0.18015733620E+03  0.00000000000E+00 0.  1.
         21   -1    0    0  502  503 -0.00000000000E+00 -0.00000000000E+00 -0.25530487295E+03  0.25530487295E+03  0.00000000000E+00 0.  1.
         -6    2    1    2    0  503  0.28780694650E+02 -0.24951719539E+02 -0.16134735608E+03  0.23893346940E+03  0.17206195626E+03 0.  0.
        -24    2    3    3    0    0  0.36217249060E+02  0.46050389614E+02 -0.72932244537E+02  0.12519726674E+03  0.83204061155E+02 0.  0.
          6    2    1    2  501    0 -0.28780694650E+02  0.24951719539E+02  0.86199819330E+02  0.19652873975E+03  0.17245932855E+03 0.  0.
         24    2    5    5    0    0 -0.41798391801E+02  0.72625545951E+02  0.89715528596E+02  0.14676224123E+03  0.80428253102E+02 0.  0.
          5    1    5    5  501    0  0.13017697151E+02 -0.47673826412E+02 -0.35157092666E+01  0.49766498526E+02  0.47000000000E+01 0. -1.
        -13    1    6    6    0    0  0.43092689426E+01  0.23290146874E+02  0.73629957367E+02  0.77345790850E+02  0.00000000000E+00 0.  1.
         14    1    6    6    0    0 -0.46107660744E+02  0.49335399077E+02  0.16085571229E+02  0.69416450378E+02  0.00000000000E+00 0. -1.
         -5    1    3    3    0  503 -0.74365544105E+01 -0.71002109153E+02 -0.88415111546E+02  0.11373620266E+03  0.47000000000E+01 0.  1.
         13    1    4    4    0    0 -0.17346701391E+02 -0.40028789746E+01  0.47085263351E+01  0.18414703622E+02  0.00000000000E+00 0. -1.
        -14    1    4    4    0    0  0.53563950451E+02  0.50053268588E+02 -0.77640770872E+02  0.10678256312E+03  0.00000000000E+00 0.  1.
</event>
<event>
12    1  0.1630640E-001  0.1856274E+03  0.7818608E-02  0.1163706E+00
         21   -1    0    0  503  502  0.00000000000E+00  0.00000000000E+00  0.74570175006E+02  0.74570175006E+02  0.00000000000E+00 0. -1.
         21   -1    0    0  501  503 -0.00000000000E+00 -0.00000000000E+00 -0.45718719096E+03  0.45718719096E+03  0.00000000000E+00 0. -1.
          6    2    1    2  501    0 -0.54950124071E+02 -0.37186187592E+02 -0.22938124887E+03  0.29508184612E+03  0.17336438473E+03 0.  0.
         24    2    3    3    0    0 -0.47994831220E+02 -0.80211793892E+01 -0.24376862090E+03  0.26149523754E+03  0.81171273107E+02 0.  0.
         -6    2    1    2    0  502  0.54950124071E+02  0.37186187592E+02 -0.15323576709E+03  0.23667551985E+03  0.16772528938E+03 0.  0.
        -24    2    5    5    0    0  0.44155497351E+02  0.48407327868E+02 -0.17851165814E+03  0.20661892949E+03  0.80820743595E+02 0.  0.
          5    1    3    3  501    0 -0.69552928508E+01 -0.29165008203E+02  0.14387372029E+02  0.33586608582E+02  0.47000000000E+01 0. -1.
        -11    1    4    4    0    0  0.63446323697E+01 -0.88853143747E+01 -0.16744126260E+03  0.16779684024E+03  0.00000000000E+00 0.  1.
         12    1    4    4    0    0 -0.54339463590E+02  0.86413498550E+00 -0.76327358297E+02  0.93698397302E+02  0.00000000000E+00 0. -1.
         -5    1    5    5    0  502  0.10794626719E+02 -0.11221140277E+02  0.25275891054E+02  0.30056590354E+02  0.47000000000E+01 0.  1.
         11    1    6    6    0    0  0.47335387214E+02 -0.59639752014E+01 -0.10301937680E+03  0.11353061208E+03  0.00000000000E+00 0. -1.
        -12    1    6    6    0    0 -0.31798898624E+01  0.54371303070E+02 -0.75492281345E+02  0.93088317418E+02  0.00000000000E+00 0.  1.
</event>
<event>
12    1  0.1630640E-001  0.2832492E+03  0.7818608E-02  0.1094122E+00
         21   -1    0    0  503  502  0.00000000000E+00  0.00000000000E+00  0.25142527710E+03  0.25142527710E+03  0.00000000000E+00 0. -1.
         21   -1    0    0  501  503 -0.00000000000E+00 -0.00000000000E+00 -0.37274827112E+03  0.37274827112E+03  0.00000000000E+00 0. -1.
          6    2    1    2  501    0  0.80051002441E+02  0.20955142280E+03 -0.18096921804E+03  0.33612496627E+03  0.17294557896E+03 0.  0.
         24    2    3    3    0    0  0.11431030965E+03  0.16152244532E+03 -0.97433326710E+02  0.23374910023E+03  0.77388897577E+02 0.  0.
         -6    2    1    2    0  502 -0.80051002441E+02 -0.20955142280E+03  0.59646224029E+02  0.28804858195E+03  0.17057066493E+03 0.  0.
        -24    2    5    5    0    0 -0.63521147306E+02 -0.22143535637E+03  0.80534905934E+02  0.25850385282E+03  0.85263225620E+02 0.  0.
          5    1    3    3  501    0 -0.34259307208E+02  0.48028977477E+02 -0.83535891330E+02  0.10237586604E+03  0.47000000000E+01 0. -1.
        -11    1    4    4    0    0  0.55746244535E+01  0.31990876587E+02 -0.47262877439E+02  0.57343458271E+02  0.00000000000E+00 0.  1.
         12    1    4    4    0    0  0.10873568520E+03  0.12953156874E+03 -0.50170449270E+02  0.17640564196E+03  0.00000000000E+00 0. -1.
         -5    1    5    5    0  502 -0.16529855135E+02  0.11883933567E+02 -0.20888681905E+02  0.29544729133E+02  0.47000000000E+01 0.  1.
         11    1    6    6    0    0 -0.71097815130E+02 -0.10629885864E+03  0.60181183150E+02  0.14133690767E+03  0.00000000000E+00 0. -1.
        -12    1    6    6    0    0  0.75766678240E+01 -0.11513649772E+03  0.20353722784E+02  0.11716694514E+03  0.00000000000E+00 0.  1.
</event>
<event>
12    1  0.1630640E-001  0.1779434E+03  0.7818608E-02  0.1170165E+00
         21   -1    0    0  503  502  0.00000000000E+00  0.00000000000E+00  0.73619099176E+03  0.73619099176E+03  0.00000000000E+00 0. -1.
         21   -1    0    0  501  503 -0.00000000000E+00 -0.00000000000E+00 -0.73118729600E+02  0.73118729600E+02  0.00000000000E+00 0. -1.
          6    2    1    2  501    0 -0.82324053422E+01  0.38168891505E+02  0.69582927157E+02  0.18971838193E+03  0.17212392023E+03 0.  0.
         24    2    3    3    0    0 -0.31357636548E+02 -0.12288574176E+02  0.98418846382E+02  0.12699412507E+03  0.72848665426E+02 0.  0.
         -6    2    1    2    0  502  0.82324053422E+01 -0.38168891505E+02  0.59348933500E+03  0.61959133943E+03  0.17360645252E+03 0.  0.
        -24    2    5    5    0    0 -0.21112717926E+02 -0.16736159520E+02  0.56997249228E+03  0.57605250444E+03  0.79006329050E+02 0.  0.
          5    1    3    3  501    0  0.23125231206E+02  0.50457465681E+02 -0.28835919225E+02  0.62724256861E+02  0.47000000000E+01 0. -1.
        -11    1    4    4    0    0  0.14485095165E+02 -0.20229230311E+02  0.65315414152E+02  0.69893798486E+02  0.00000000000E+00 0.  1.
         12    1    4    4    0    0 -0.45842731713E+02  0.79406561345E+01  0.33103432230E+02  0.57100326586E+02  0.00000000000E+00 0. -1.
         -5    1    5    5    0  502  0.29345123269E+02 -0.21432731985E+02  0.23516842726E+02  0.43538834984E+02  0.47000000000E+01 0.  1.
         13    1    6    6    0    0  0.12945199933E+02 -0.39913253689E+02  0.31267945739E+03  0.31548231186E+03  0.00000000000E+00 0. -1.
        -14    1    6    6    0    0 -0.34057917859E+02  0.23177094170E+02  0.25729303489E+03  0.26057019259E+03  0.00000000000E+00 0.  1.
</event>
<event>
12    1  0.1630640E-001  0.2000229E+03  0.7818608E-02  0.1149844E+00
         21   -1    0    0  503  502  0.00000000000E+00  0.00000000000E+00  0.47728667287E+03  0.47728667287E+03  0.00000000000E+00 0. -1.
         21   -1    0    0  501  503 -0.00000000000E+00 -0.00000000000E+00 -0.92821851057E+02  0.92821851057E+02  0.00000000000E+00 0. -1.
          6    2    1    2  501    0  0.47203113811E+02 -0.91256298150E+02  0.28243318393E+03  0.34608912521E+03  0.17161973457E+03 0.  0.
         24    2    3    3    0    0  0.43605699712E+02 -0.65693172348E+02  0.70136281509E+02  0.13217680773E+03  0.79589952743E+02 0.  0.
         -6    2    1    2    0  502 -0.47203113811E+02  0.91256298150E+02  0.10203163788E+03  0.22401939872E+03  0.17093387601E+03 0.  0.
        -24    2    5    5    0    0 -0.24010597988E+02 -0.15920273342E+02  0.66682237061E+02  0.10870946678E+03  0.80878078045E+02 0.  0.
          5    1    3    3  501    0  0.35974140987E+01 -0.25563125802E+02  0.21229690242E+03  0.21391231747E+03  0.47000000000E+01 0. -1.
        -11    1    4    4    0    0 -0.85240448347E+01  0.13974130572E+02  0.14733717181E+02  0.22023126199E+02  0.00000000000E+00 0.  1.
         12    1    4    4    0    0  0.52129744547E+02 -0.79667302920E+02  0.55402564328E+02  0.11015368153E+03  0.00000000000E+00 0. -1.
         -5    1    5    5    0  502 -0.23192515824E+02  0.10717657149E+03  0.35349400821E+02  0.11530993195E+03  0.47000000000E+01 0.  1.
         13    1    6    6    0    0 -0.25813893950E+02  0.49408736800E+01 -0.10824403400E+02  0.28424233720E+02  0.00000000000E+00 0. -1.
        -14    1    6    6    0    0  0.18032959627E+01 -0.20861147022E+02  0.77506640460E+02  0.80285233056E+02  0.00000000000E+00 0.  1.
</event>
<event>
12    1  0.1630640E-001  0.1795268E+03  0.7818608E-02  0.1168388E+00
         21   -1    0    0  503  502  0.00000000000E+00  0.00000000000E+00  0.92495280029E+02  0.92495280029E+02  0.00000000000E+00 0.  1.
         21   -1    0    0  501  503 -0.00000000000E+00 -0.00000000000E+00 -0.12948159015E+04  0.12948159015E+04  0.00000000000E+00 0.  1.
          6    2    1    2  501    0 -0.47556359305E+02 -0.15594611042E+02 -0.11942622605E+04  0.12076036380E+04  0.17187030153E+03 0.  0.
         24    2    3    3    0    0 -0.22122551819E+02  0.37586053664E+02 -0.10067112971E+04  0.10109503504E+04  0.81552783889E+02 0.  0.
         -6    2    1    2    0  502  0.47556359305E+02  0.15594611042E+02 -0.80583610562E+01  0.17970754357E+03  0.17240958451E+03 0.  0.
        -24    2    5    5    0    0  0.14173267464E+02  0.31010667537E+01  0.65831078330E+02  0.97535414951E+02  0.70490624695E+02 0.  0.
          5    1    3    3  501    0 -0.25433807486E+02 -0.53180664707E+02 -0.18755096334E+03  0.19665328757E+03  0.47000000000E+01 0. -1.
        -11    1    4    4    0    0  0.99375373875E+01  0.28355853311E+02 -0.12326117666E+03  0.12687051169E+03  0.00000000000E+00 0.  1.
         12    1    4    4    0    0 -0.32060089207E+02  0.92302003530E+01 -0.88345012046E+03  0.88407983874E+03  0.00000000000E+00 0. -1.
         -5    1    5    5    0  502  0.33383091841E+02  0.12493544288E+02 -0.73889439386E+02  0.82172128623E+02  0.47000000000E+01 0.  1.
         13    1    6    6    0    0 -0.15365846421E+02 -0.12739307307E+02 -0.37433934406E+01  0.20307933951E+02  0.00000000000E+00 0. -1.
        -14    1    6    6    0    0  0.29539113885E+02  0.15840374061E+02  0.69574471770E+02  0.77227481000E+02  0.00000000000E+00 0.  1.
</event>
<event>
12    1  0.1630640E-001  0.2383310E+03  0.7818608E-02  0.1122001E+00
         21   -1    0    0  503  502  0.00000000000E+00  0.00000000000E+00  0.27457247657E+03  0.27457247657E+03  0.00000000000E+00 0.  1.
         21   -1    0    0  501  503 -0.00000000000E+00 -0.00000000000E+00 -0.57122894873E+03  0.57122894873E+03  0.00000000000E+00 0.  1.
          6    2    1    2  501    0  0.14009851694E+03  0.66497959230E+02 -0.48932832192E+03  0.54428287774E+03  0.18097533351E+03 0.  0.
         24    2    3    3    0    0  0.23887703587E+02 -0.10429744807E+02 -0.93464352005E+02  0.12457679312E+03  0.78130597911E+02 0.  0.
         -6    2    1    2    0  502 -0.14009851694E+03 -0.66497959230E+02  0.19267184975E+03  0.30151854756E+03  0.17245700857E+03 0.  0.
        -24    2    5    5    0    0 -0.96746999710E+00 -0.20591560307E+02  0.91492917075E+02  0.12340590875E+03  0.80206708487E+02 0.  0.
          5    1    3    3  501    0  0.11621081335E+03  0.76927704037E+02 -0.39586396991E+03  0.41970608462E+03  0.47000000000E+01 0. -1.
        -13    1    4    4    0    0  0.45978725552E+02  0.23284128973E+00 -0.88234450078E+02  0.99495806942E+02  0.00000000000E+00 0.  1.
         14    1    4    4    0    0 -0.22091021965E+02 -0.10662586097E+02 -0.52299019270E+01  0.25080986182E+02  0.00000000000E+00 0. -1.
         -5    1    5    5    0  502 -0.13913104694E+03 -0.45906398923E+02  0.10117893268E+03  0.17811263881E+03  0.47000000000E+01 0.  1.
         13    1    6    6    0    0  0.14790336477E+02 -0.47396240682E+02  0.69101149997E+02  0.85088933563E+02  0.00000000000E+00 0. -1.
        -14    1    6    6    0    0 -0.15757806474E+02  0.26804680375E+02  0.22391767077E+02  0.38316975190E+02  0.00000000000E+00 0.  1.
</event>
<event>
12    1  0.1630640E-001  0.1781018E+03  0.7818608E-02  0.1170040E+00
         21   -1    0    0  503  502  0.00000000000E+00  0.00000000000E+00  0.91170723414E+03  0.91170723414E+03  0.00000000000E+00 0. -1.
         21   -1    0    0  501  503 -0.00000000000E+00 -0.00000000000E+00 -0.10229988583E+03  0.10229988583E+03  0.00000000000E+00 0. -1.
          6    2    1    2  501    0 -0.45362405841E+02  0.30631418452E+01 -0.86935782749E+01  0.17674409251E+03  0.17057480832E+03 0.  0.
         24    2    3    3    0    0 -0.90758709784E+02  0.27628512543E+02 -0.98943479770E+01  0.12489996365E+03  0.80632652762E+02 0.  0.
         -6    2    1    2    0  502  0.45362405841E+02 -0.30631418452E+01  0.81810092658E+03  0.83726302746E+03  0.17220081412E+03 0.  0.
        -24    2    5    5    0    0  0.63149062450E+02 -0.56568576658E+02  0.63710312029E+03  0.64762787094E+03  0.79584328742E+02 0.  0.
          5    1    3    3  501    0  0.45396303942E+02 -0.24565370697E+02  0.12007697020E+01  0.51844128857E+02  0.47000000000E+01 0. -1.
        -13    1    4    4    0    0 -0.54403238115E+02  0.30690190383E+02 -0.42839879721E+02  0.75742031908E+02  0.00000000000E+00 0.  1.
         14    1    4    4    0    0 -0.36355471669E+02 -0.30616778401E+01  0.32945531744E+02  0.49157931744E+02  0.00000000000E+00 0. -1.
         -5    1    5    5    0  502 -0.17786656609E+02  0.53505434812E+02  0.18099780628E+03  0.18963515652E+03  0.47000000000E+01 0.  1.
         11    1    6    6    0    0 -0.14099765014E+02 -0.20235628119E+02  0.71856247566E+02  0.75971075635E+02  0.00000000000E+00 0. -1.
        -12    1    6    6    0    0  0.77248827465E+02 -0.36332948539E+02  0.56524687273E+03  0.57165679531E+03  0.00000000000E+00 0.  1.
</event>
<event>
12    1  0.1630640E-001  0.1824315E+03  0.7818608E-02  0.1165501E+00
         21   -1    0    0  501  502  0.00000000000E+00  0.00000000000E+00  0.21724204733E+03  0.21724204733E+03  0.00000000000E+00 0. -1.
         21   -1    0    0  502  503 -0.00000000000E+00 -0.00000000000E+00 -0.15341765102E+03  0.15341765102E+03  0.00000000000E+00 0. -1.
         -6    2    1    2    0  503 -0.47709801446E+02 -0.37181754742E+02  0.40470752832E+02  0.18686657998E+03  0.17211196600E+03 0.  0.
        -24    2    3    3    0    0 -0.96314342520E+02 -0.41991139247E+02  0.28910310359E+02  0.13645561468E+03  0.82125637792E+02 0.  0.
          6    2    1    2  501    0  0.47709801446E+02  0.37181754742E+02  0.23353643478E+02  0.18379311837E+03  0.17197618922E+03 0.  0.
         24    2    5    5    0    0 -0.15731045671E+02  0.65534774736E+02  0.15929149131E+02  0.11375135982E+03  0.90240576074E+02 0.  0.
          5    1    5    5  501    0  0.63440847117E+02 -0.28353019994E+02  0.74244943466E+01  0.70041758559E+02  0.47000000000E+01 0. -1.
        -11    1    6    6    0    0 -0.13211222238E+02  0.37545685507E+02  0.53594436541E+02  0.66757610213E+02  0.00000000000E+00 0.  1.
         12    1    6    6    0    0 -0.25198234331E+01  0.27989089229E+02 -0.37665287410E+02  0.46993749602E+02  0.00000000000E+00 0. -1.
         -5    1    3    3    0  503  0.48604541074E+02  0.48093845048E+01  0.11560442474E+02  0.50410965300E+02  0.47000000000E+01 0.  1.
         13    1    4    4    0    0 -0.55145525525E+02  0.14435867090E+02 -0.78206162387E+01  0.57537685758E+02  0.00000000000E+00 0. -1.
        -14    1    4    4    0    0 -0.41168816995E+02 -0.56427006336E+02  0.36730926597E+02  0.78917928923E+02  0.00000000000E+00 0.  1.
</event>
<event>
12    1  0.1630640E-001  0.2347783E+03  0.7818608E-02  0.1123336E+00
         21   -1    0    0  503  502  0.00000000000E+00  0.00000000000E+00  0.20777711742E+04  0.20777711742E+04  0.00000000000E+00 0. -1.
         21   -1    0    0  501  503 -0.00000000000E+00 -0.00000000000E+00 -0.36615894679E+02  0.36615894679E+02  0.00000000000E+00 0. -1.
          6    2    1    2  501    0  0.15131539736E+03  0.51226330212E+02  0.15755934034E+04  0.15929767449E+04  0.17192978363E+03 0.  0.
         24    2    3    3    0    0  0.97853724536E+02  0.35916996933E+02  0.14485573457E+04  0.14542223716E+04  0.74692303633E+02 0.  0.
         -6    2    1    2    0  502 -0.15131539736E+03 -0.51226330212E+02  0.46556187612E+03  0.52141032400E+03  0.17204760706E+03 0.  0.
        -24    2    5    5    0    0 -0.28601948959E+02  0.26132108799E+02  0.17003323046E+03  0.19216544718E+03  0.80717414703E+02 0.  0.
          5    1    3    3  501    0  0.53461672823E+02  0.15309333279E+02  0.12703605772E+03  0.13875437329E+03  0.47000000000E+01 0. -1.
        -13    1    4    4    0    0  0.68518773205E+02 -0.79472549683E+01  0.58467671664E+03  0.58873155523E+03  0.00000000000E+00 0.  1.
         14    1    4    4    0    0  0.29334951331E+02  0.43864251901E+02  0.86388062906E+03  0.86549081638E+03  0.00000000000E+00 0. -1.
         -5    1    5    5    0  502 -0.12271344840E+03 -0.77358439010E+02  0.29552864566E+03  0.32924487682E+03  0.47000000000E+01 0.  1.
         11    1    6    6    0    0 -0.37084949815E+02 -0.15556428746E+02  0.46321584875E+02  0.61343175688E+02  0.00000000000E+00 0. -1.
        -12    1    6    6    0    0  0.84830008565E+01  0.41688537545E+02  0.12371164558E+03  0.13082227150E+03  0.00000000000E+00 0.  1.
</event>
<event>
12    1  0.1630640E-001  0.2696923E+03  0.7818608E-02  0.1102112E+00
         21   -1    0    0  501  502  0.00000000000E+00  0.00000000000E+00  0.26243072058E+03  0.26243072058E+03  0.00000000000E+00 0.  1.
         21   -1    0    0  502  503 -0.00000000000E+00 -0.00000000000E+00 -0.27483860801E+03  0.27483860801E+03  0.00000000000E+00 0. -1.
         -6    2    1    2    0  503 -0.11106645379E+03 -0.16476311657E+03 -0.30972240754E+02  0.27146491626E+03  0.18234933321E+03 0.  0.
        -24    2    3    3    0    0 -0.43098155148E+02 -0.11818319132E+03 -0.89607349234E+02  0.17022487969E+03  0.71570349606E+02 0.  0.
          6    2    1    2  501    0  0.11106645379E+03  0.16476311657E+03  0.18564353323E+02  0.26580441233E+03  0.17556966896E+03 0.  0.
         24    2    5    5    0    0  0.10401284679E+03  0.17747433356E+03 -0.22728607110E+02  0.22177570589E+03  0.79699829182E+02 0.  0.
          5    1    5    5  501    0  0.70536070002E+01 -0.12711216990E+02  0.41292960433E+02  0.44028706436E+02  0.47000000000E+01 0. -1.
        -11    1    6    6    0    0  0.46712340674E+00  0.44032349940E+02  0.18738777394E+02  0.47856115845E+02  0.00000000000E+00 0.  1.
         12    1    6    6    0    0  0.10354572339E+03  0.13344198362E+03 -0.41467384505E+02  0.17391959005E+03  0.00000000000E+00 0. -1.
         -5    1    3    3    0  503 -0.67968298647E+02 -0.46579925252E+02  0.58635108481E+02  0.10124003657E+03  0.47000000000E+01 0.  1.
         11    1    4    4    0    0  0.31644863428E+01 -0.90966252888E+02 -0.58163359197E+02  0.10801782025E+03  0.00000000000E+00 0. -1.
        -12    1    4    4    0    0 -0.46262641491E+02 -0.27216938428E+02 -0.31443990037E+02  0.62207059443E+02  0.00000000000E+00 0.  1.
</event>
<event>
12    1  0.1630640E-001  0.3157162E+03  0.7818608E-02  0.1077694E+00
         21   -1    0    0  501  502  0.00000000000E+00  0.00000000000E+00  0.17169276926E+03  0.17169276926E+03  0.00000000000E+00 0.  1.
         21   -1    0    0  502  503 -0.00000000000E+00 -0.00000000000E+00 -0.84221253445E+03  0.84221253445E+03  0.00000000000E+00 0. -1.
         -6    2    1    2    0  503 -0.12101156953E+03 -0.23541172601E+03 -0.61812971555E+03  0.69387183514E+03  0.17120542531E+03 0.  0.
        -24    2    3    3    0    0 -0.50378395251E+02 -0.13072522440E+03 -0.48110473371E+03  0.50746838942E+03  0.80220536406E+02 0.  0.
          6    2    1    2  501    0  0.12101156953E+03  0.23541172601E+03 -0.52390049641E+02  0.32003346856E+03  0.17208783511E+03 0.  0.
         24    2    5    5    0    0  0.57238254509E+02  0.13752194272E+03  0.37810235377E+02  0.17235941261E+03  0.78036214090E+02 0.  0.
          5    1    5    5  501    0  0.63773315019E+02  0.97889783295E+02 -0.90200285018E+02  0.14767405595E+03  0.47000000000E+01 0. -1.
        -11    1    6    6    0    0 -0.14892740422E+02  0.49311327298E+02  0.26287170801E+02  0.57830926552E+02  0.00000000000E+00 0.  1.
         12    1    6    6    0    0  0.72130994931E+02  0.88210615419E+02  0.11523064576E+02  0.11452848606E+03  0.00000000000E+00 0. -1.
         -5    1    3    3    0  503 -0.70633174278E+02 -0.10468650162E+03 -0.13702498183E+03  0.18640344572E+03  0.47000000000E+01 0.  1.
         11    1    4    4    0    0 -0.12516166270E+02 -0.11410347917E+03 -0.40381238703E+03  0.41981031704E+03  0.00000000000E+00 0. -1.
        -12    1    4    4    0    0 -0.37862228980E+02 -0.16621745226E+02 -0.77292346689E+02  0.87658072386E+02  0.00000000000E+00 0.  1.
</event>
<event>
12    1  0.1630640E-001  0.1872596E+03  0.7818608E-02  0.1161097E+00
         21   -1    0    0  501  502  0.00000000000E+00  0.00000000000E+00  0.26628768973E+03  0.26628768973E+03  0.00000000000E+00 0. -1.
         21   -1    0    0  502  503 -0.00000000000E+00 -0.00000000000E+00 -0.32690084478E+03  0.32690084478E+03  0.00000000000E+00 0.  1.
         -6    2    1    2    0  503  0.48937925040E+02 -0.49072258242E+02 -0.25973653884E+03  0.31984577506E+03  0.17330678918E+03 0.  0.
        -24    2    3    3    0    0  0.22632650382E+02 -0.91436134505E+02 -0.23058200185E+03  0.26189111594E+03  0.80907932068E+02 0.  0.
          6    2    1    2  501    0 -0.48937925040E+02  0.49072258242E+02  0.19912338379E+03  0.27334275946E+03  0.17396302808E+03 0.  0.
         24    2    5    5    0    0 -0.74496883744E+02  0.65318370548E+02  0.52446184105E+02  0.12349788152E+03  0.51815531406E+02 0.  0.
          5    1    5    5  501    0  0.25558958704E+02 -0.16246112307E+02  0.14667719969E+03  0.14984487793E+03  0.47000000000E+01 0. -1.
        -11    1    6    6    0    0 -0.29305371604E+02  0.30766465803E+02  0.51284274081E+02  0.66599226654E+02  0.00000000000E+00 0.  1.
         12    1    6    6    0    0 -0.45191512139E+02  0.34551904745E+02  0.11619100234E+01  0.56898654869E+02  0.00000000000E+00 0. -1.
         -5    1    3    3    0  503  0.26305274657E+02  0.42363876263E+02 -0.29154536991E+02  0.57954659122E+02  0.47000000000E+01 0.  1.
         11    1    4    4    0    0 -0.29278048726E+02 -0.37494523319E+02 -0.11160927761E+03  0.12132466470E+03  0.00000000000E+00 0. -1.
        -12    1    4    4    0    0  0.51910699108E+02 -0.53941611185E+02 -0.11897272424E+03  0.14056645124E+03  0.00000000000E+00 0.  1.
</event>
<event>
12    1  0.1630640E-001  0.2748317E+03  0.7818608E-02  0.1098585E+00
         21   -1    0    0  503  502  0.00000000000E+00  0.00000000000E+00  0.16091254844E+03  0.16091254844E+03  0.00000000000E+00 0. -1.
         21   -1    0    0  501  503 -0.00000000000E+00 -0.00000000000E+00 -0.51723550973E+03  0.51723550973E+03  0.00000000000E+00 0.  1.
          6    2    1    2  501    0  0.15083661780E+03 -0.15358290152E+03 -0.28187428687E+03  0.39368209764E+03  0.17085984751E+03 0.  0.
         24    2    3    3    0    0  0.15042003531E+03 -0.12189715132E+03 -0.15269708502E+03  0.26059190347E+03  0.84300876961E+02 0.  0.
         -6    2    1    2    0  502 -0.15083661780E+03  0.15358290152E+03 -0.74448674413E+02  0.28446596053E+03  0.17040799473E+03 0.  0.
        -24    2    5    5    0    0 -0.79579197621E+02  0.19604466238E+02  0.32493900309E+01  0.11391708111E+03  0.79052887631E+02 0.  0.
          5    1    3    3  501    0  0.41658249728E+00 -0.31685750200E+02 -0.12917720185E+03  0.13309019417E+03  0.47000000000E+01 0. -1.
        -13    1    4    4    0    0  0.34198022569E+02 -0.37993509193E+02 -0.91335150621E+02  0.10466671499E+03  0.00000000000E+00 0.  1.
         14    1    4    4    0    0  0.11622201274E+03 -0.83903642128E+02 -0.61361934399E+02  0.15592518847E+03  0.00000000000E+00 0. -1.
         -5    1    5    5    0  502 -0.71257420182E+02  0.13397843528E+03 -0.77698064443E+02  0.17054887942E+03  0.47000000000E+01 0.  1.
         13    1    6    6    0    0 -0.73405858580E+02  0.40558328046E+02 -0.15312071973E+02  0.85251730750E+02  0.00000000000E+00 0. -1.
        -14    1    6    6    0    0 -0.61733390405E+01 -0.20953861808E+02  0.18561462004E+02  0.28665350361E+02  0.00000000000E+00 0.  1.
</event>
<event>
12    1  0.1630640E-001  0.1857945E+03  0.7818608E-02  0.1162546E+00
         21   -1    0    0  501  502  0.00000000000E+00  0.00000000000E+00  0.17035098685E+03  0.17035098685E+03  0.00000000000E+00 0. -1.
         21   -1    0    0  502  503 -0.00000000000E+00 -0.00000000000E+00 -0.24512486658E+03  0.24512486658E+03  0.00000000000E+00 0. -1.
         -6    2    1    2    0  503 -0.47543182941E+02  0.47863708798E+02 -0.12490726775E+03  0.22303639439E+03  0.17202359960E+03 0.  0.
        -24    2    3    3    0    0  0.99851121093E+01 -0.25083666910E+02 -0.25101656151E+02  0.86602987699E+02  0.78365116776E+02 0.  0.
          6    2    1    2  501    0  0.47543182941E+02 -0.47863708798E+02  0.50133388019E+02  0.19243945905E+03  0.17311354638E+03 0.  0.
         24    2    5    5    0    0  0.94714821448E+02 -0.25223239092E+02  0.44133867665E+02  0.13956376905E+03  0.89012011355E+02 0.  0.
          5    1    5    5  501    0 -0.47171638507E+02 -0.22640469706E+02  0.59995203537E+01  0.52875689994E+02  0.47000000000E+01 0. -1.
        -11    1    6    6    0    0  0.72524259248E+02  0.15065461918E+02 -0.24309576743E+01  0.74112386802E+02  0.00000000000E+00 0.  1.
         12    1    6    6    0    0  0.22190562199E+02 -0.40288701010E+02  0.46564825340E+02  0.65451382252E+02  0.00000000000E+00 0. -1.
         -5    1    3    3    0  503 -0.57528295050E+02  0.72947375708E+02 -0.99805611599E+02  0.13643340669E+03  0.47000000000E+01 0.  1.
         13    1    4    4    0    0 -0.18090958400E+02 -0.86929812424E+01 -0.44449511446E+02  0.48770993085E+02  0.00000000000E+00 0. -1.
        -14    1    4    4    0    0  0.28076070509E+02 -0.16390685668E+02  0.19347855295E+02  0.37831994613E+02  0.00000000000E+00 0.  1.
</event>
<event>
12    1  0.1630640E-001  0.2047926E+03  0.7818608E-02  0.1145839E+00
         21   -1    0    0  503  502  0.00000000000E+00  0.00000000000E+00  0.14593469497E+03  0.14593469497E+03  0.00000000000E+00 0.  1.
         21   -1    0    0  501  503 -0.00000000000E+00 -0.00000000000E+00 -0.32888832069E+03  0.32888832069E+03  0.00000000000E+00 0.  1.
          6    2    1    2  501    0 -0.24445788744E+02  0.10814330810E+03 -0.17629743247E+03  0.26992232208E+03  0.17171110501E+03 0.  0.
         24    2    3    3    0    0 -0.80775488411E+01 -0.13228117557E+02 -0.68016840415E+02  0.10638113809E+03  0.80314544586E+02 0.  0.
         -6    2    1    2    0  502  0.24445788744E+02 -0.10814330810E+03 -0.66561932421E+01  0.20490069358E+03  0.17218425494E+03 0.  0.
        -24    2    5    5    0    0  0.27428700187E+02  0.74564701495E+01  0.87115372056E+01  0.88151117011E+02  0.82986721882E+02 0.  0.
          5    1    3    3  501    0 -0.16368239903E+02  0.12137142565E+03 -0.10828059206E+03  0.16354118398E+03  0.47000000000E+01 0. -1.
        -11    1    4    4    0    0  0.24592757201E+02  0.17391435604E+02 -0.73939571512E+01  0.31015098605E+02  0.00000000000E+00 0.  1.
         12    1    4    4    0    0 -0.32670306042E+02 -0.30619553160E+02 -0.60622883264E+02  0.75366039487E+02  0.00000000000E+00 0. -1.
         -5    1    5    5    0  502 -0.29829114426E+01 -0.11559977824E+03 -0.15367730448E+02  0.11674957657E+03  0.47000000000E+01 0.  1.
         13    1    6    6    0    0  0.18329725674E+02  0.19521940385E+02 -0.33748607290E+02  0.43081939298E+02  0.00000000000E+00 0. -1.
        -14    1    6    6    0    0  0.90989745127E+01 -0.12065470236E+02  0.42460144495E+02  0.45069177713E+02  0.00000000000E+00 0.  1.
</event>
<event>
12    1  0.1630640E-001  0.2532683E+03  0.7818608E-02  0.1111301E+00
         21   -1    0    0  501  502  0.00000000000E+00  0.00000000000E+00  0.91137515258E+03  0.91137515258E+03  0.00000000000E+00 0.  1.
         21   -1    0    0  502  503 -0.00000000000E+00 -0.00000000000E+00 -0.87041502498E+02  0.87041502498E+02  0.00000000000E+00 0.  1.
         -6    2    1    2    0  503 -0.15050615809E+03  0.10954412443E+03  0.19344232709E+03  0.31869227290E+03  0.17173471425E+03 0.  0.
        -24    2    3    3    0    0 -0.12526294468E+03  0.14694881485E+03  0.15618131190E+03  0.25998278524E+03  0.76900500248E+02 0.  0.
          6    2    1    2  501    0  0.15050615809E+03 -0.10954412443E+03  0.63089132298E+03  0.67972438217E+03  0.17131653591E+03 0.  0.
         24    2    5    5    0    0  0.16608395440E+03 -0.91891027120E+02  0.61970452766E+03  0.65323789557E+03  0.81597829870E+02 0.  0.
          5    1    5    5  501    0 -0.15577796309E+02 -0.17653097311E+02  0.11186795327E+02  0.26486486596E+02  0.47000000000E+01 0. -1.
        -13    1    6    6    0    0  0.50106210832E+02  0.10090062083E+02  0.18424934544E+03  0.19120738221E+03  0.00000000000E+00 0.  1.
         14    1    6    6    0    0  0.11597774357E+03 -0.10198108920E+03  0.43545518222E+03  0.46203051336E+03  0.00000000000E+00 0. -1.
         -5    1    3    3    0  503 -0.25243213407E+02 -0.37404690418E+02  0.37261015193E+02  0.58709487663E+02  0.47000000000E+01 0.  1.
         11    1    4    4    0    0 -0.99609090900E+02  0.66672444115E+02  0.11529210886E+03  0.16631132301E+03  0.00000000000E+00 0. -1.
        -12    1    4    4    0    0 -0.25653853785E+02  0.80276370735E+02  0.40889203039E+02  0.93671462237E+02  0.00000000000E+00 0.  1.
</event>
<event>
12    1  0.1630640E-001  0.1740228E+03  0.7818608E-02  0.1173725E+00
         21   -1    0    0  503  502  0.00000000000E+00  0.00000000000E+00  0.30189360570E+03  0.30189360570E+03  0.00000000000E+00 0. -1.
         21   -1    0    0  501  503 -0.00000000000E+00 -0.00000000000E+00 -0.21144306464E+03  0.21144306464E+03  0.00000000000E+00 0. -1.
          6    2    1    2  501    0  0.67659185650E+01 -0.31036186516E+02 -0.14086953270E+03  0.22386662263E+03  0.17106436496E+03 0.  0.
         24    2    3    3    0    0  0.48299469098E+02 -0.60675196996E+01 -0.23089643063E+02  0.96419917906E+02  0.79962587763E+02 0.  0.
         -6    2    1    2    0  502 -0.67659185650E+01  0.31036186516E+02  0.23132007377E+03  0.28947004771E+03  0.17109912176E+03 0.  0.
        -24    2    5    5    0    0 -0.45046106369E+02  0.71177670458E+02  0.17418058323E+03  0.20969710185E+03  0.80861526585E+02 0.  0.
          5    1    3    3  501    0 -0.41533550533E+02 -0.24968666816E+02 -0.11777988964E+03  0.12744670473E+03  0.47000000000E+01 0. -1.
        -13    1    4    4    0    0 -0.21141373609E+02 -0.32777718550E+01  0.41186190175E+01  0.21786796208E+02  0.00000000000E+00 0.  1.
         14    1    4    4    0    0  0.69440842707E+02 -0.27897478446E+01 -0.27208262080E+02  0.74633121698E+02  0.00000000000E+00 0. -1.
         -5    1    5    5    0  502  0.38280187804E+02 -0.40141483942E+02  0.57139490540E+02  0.79772945856E+02  0.47000000000E+01 0.  1.
         13    1    6    6    0    0 -0.38198202916E+02  0.20508069227E+02  0.20931902776E+02  0.48143827883E+02  0.00000000000E+00 0. -1.
        -14    1    6    6    0    0 -0.68479034528E+01  0.50669601232E+02  0.15324868045E+03  0.16155327397E+03  0.00000000000E+00 0.  1.
</event>
<event>
12    1  0.1630640E-001  0.2007760E+03  0.7818608E-02  0.1149111E+00
         21   -1    0    0  501  502  0.00000000000E+00  0.00000000000E+00  0.11721902455E+03  0.11721902455E+03  0.00000000000E+00 0. -1.
         21   -1    0    0  502  503 -0.00000000000E+00 -0.00000000000E+00 -0.34472108520E+03  0.34472108520E+03  0.00000000000E+00 0.  1.
         -6    2    1    2    0  503 -0.66177045163E+02  0.79017119736E+02 -0.12639798299E+03  0.23724975725E+03  0.17230174316E+03 0.  0.
        -24    2    3    3    0    0 -0.87234207927E+01  0.92624795282E+02 -0.33874286891E+02  0.12739161178E+03  0.80160493189E+02 0.  0.
          6    2    1    2  501    0  0.66177045163E+02 -0.79017119736E+02 -0.10110407766E+03  0.22469035250E+03  0.17216449537E+03 0.  0.
         24    2    5    5    0    0  0.28406243244E+02 -0.77827268843E+02 -0.13271697498E+03  0.17519778236E+03  0.78844588049E+02 0.  0.
          5    1    5    5  501    0  0.37770801918E+02 -0.11898508936E+01  0.31612897313E+02  0.49492570142E+02  0.47000000000E+01 0. -1.
        -11    1    6    6    0    0  0.55318642222E+02 -0.47495780391E+02 -0.95559056212E+02  0.12019789747E+03  0.00000000000E+00 0.  1.
         12    1    6    6    0    0 -0.26912398978E+02 -0.30331488451E+02 -0.37157918765E+02  0.54999884885E+02  0.00000000000E+00 0. -1.
         -5    1    3    3    0  503 -0.57453624370E+02 -0.13607675546E+02 -0.92523696096E+02  0.10985814547E+03  0.47000000000E+01 0.  1.
         11    1    4    4    0    0 -0.37605092028E+02  0.37184723877E+02 -0.37410639146E+02  0.64779646167E+02  0.00000000000E+00 0. -1.
        -12    1    4    4    0    0  0.28881671235E+02  0.55440071405E+02  0.35363522552E+01  0.62611965613E+02  0.00000000000E+00 0.  1.
</event>
<event>
12    1  0.1630640E-001  0.2004771E+03  0.7818608E-02  0.1149573E+00
         21   -1    0    0  503  502  0.00000000000E+00  0.00000000000E+00  0.81188828436E+02  0.81188828436E+02  0.00000000000E+00 0.  1.
         21   -1    0    0  501  503 -0.00000000000E+00 -0.00000000000E+00 -0.50376910202E+03  0.50376910202E+03  0.00000000000E+00 0. -1.
          6    2    1    2  501    0  0.46755887083E+02 -0.92662176318E+02 -0.25489860145E+03  0.32359955523E+03  0.17020864617E+03 0.  0.
         24    2    3    3    0    0  0.20005776632E+02  0.11974171875E+02 -0.15694970012E+03  0.17772148613E+03  0.80050648815E+02 0.  0.
         -6    2    1    2    0  502 -0.46755887083E+02  0.92662176318E+02 -0.16768167213E+03  0.26135837522E+03  0.17151870228E+03 0.  0.
        -24    2    5    5    0    0 -0.67454944975E+02  0.48799790134E+02 -0.41770268910E+02  0.12634677801E+03  0.85364886402E+02 0.  0.
          5    1    3    3  501    0  0.26750110451E+02 -0.10463634819E+03 -0.97948901331E+02  0.14587806910E+03  0.47000000000E+01 0. -1.
        -13    1    4    4    0    0  0.15484379155E+02 -0.27308354514E+02 -0.25473609505E+02  0.40427923584E+02  0.00000000000E+00 0.  1.
         14    1    4    4    0    0  0.45213974766E+01  0.39282526389E+02 -0.13147609061E+03  0.13729356255E+03  0.00000000000E+00 0. -1.
         -5    1    5    5    0  502  0.20699057893E+02  0.43862386185E+02 -0.12591140322E+03  0.13501159721E+03  0.47000000000E+01 0.  1.
         13    1    6    6    0    0 -0.76938367832E+02  0.64420657830E+02 -0.39856754462E+02  0.10797265615E+03  0.00000000000E+00 0. -1.
        -14    1    6    6    0    0  0.94834228566E+01 -0.15620867696E+02 -0.19135144475E+01  0.18374121862E+02  0.00000000000E+00 0.  1.
</event>
<event>
12    1  0.1630640E-001  0.1797340E+03  0.7818608E-02  0.1168285E+00
         21   -1    0    0  503  502  0.00000000000E+00  0.00000000000E+00  0.12181125342E+04  0.12181125342E+04  0.00000000000E+00 0.  1.
         21   -1    0    0  501  503 -0.00000000000E+00 -0.00000000000E+00 -0.52138000003E+02  0.52138000003E+02  0.00000000000E+00 0.  1.
          6    2    1    2  501    0 -0.18545388325E+01  0.50341680323E+02  0.13736698662E+03  0.22621669509E+03  0.17252993952E+03 0.  0.
         24    2    3    3    0    0 -0.20809135642E+02 -0.36690591457E+02  0.76501667244E+02  0.11823257508E+03  0.79669423814E+02 0.  0.
         -6    2    1    2    0  502  0.18545388325E+01 -0.50341680323E+02  0.10286075475E+04  0.10440338391E+04  0.17156761406E+03 0.  0.
        -24    2    5    5    0    0  0.90512567224E+01 -0.91224441875E+02  0.91422214230E+03  0.92225820986E+03  0.79713588135E+02 0.  0.
          5    1    3    3  501    0  0.18954596809E+02  0.87032271780E+02  0.60865319378E+02  0.10798412001E+03  0.47000000000E+01 0. -1.
        -11    1    4    4    0    0  0.21600477659E+02  0.12320766873E+02  0.16003160832E+02  0.29571660218E+02  0.00000000000E+00 0.  1.
         12    1    4    4    0    0 -0.42409613301E+02 -0.49011358331E+02  0.60498506412E+02  0.88660914860E+02  0.00000000000E+00 0. -1.
         -5    1    5    5    0  502 -0.71967178899E+01  0.40882761552E+02  0.11438540523E+03  0.12177562922E+03  0.47000000000E+01 0.  1.
         11    1    6    6    0    0 -0.26298507311E+02 -0.64508580146E+02  0.39051036946E+03  0.39667532952E+03  0.00000000000E+00 0. -1.
        -12    1    6    6    0    0  0.35349764034E+02 -0.26715861729E+02  0.52371177284E+03  0.52558288033E+03  0.00000000000E+00 0.  1.
</event>
<event>
12    1  0.1630640E-001  0.2006501E+03  0.7818608E-02  0.1149228E+00
         21   -1    0    0  503  502  0.00000000000E+00  0.00000000000E+00  0.45800008202E+03  0.45800008202E+03  0.00000000000E+00 0. -1.
         21   -1    0    0  501  503 -0.00000000000E+00 -0.00000000000E+00 -0.89612032944E+02  0.89612032944E+02  0.00000000000E+00 0. -1.
          6    2    1    2  501    0  0.10217358636E+03  0.16518040243E+02  0.22272735538E+03  0.29966555009E+03  0.17169647542E+03 0.  0.
         24    2    3    3    0    0  0.68950192255E+02  0.71308776303E+02  0.18536652111E+03  0.22534367840E+03  0.81116925843E+02 0.  0.
         -6    2    1    2    0  502 -0.10217358636E+03 -0.16518040243E+02  0.14566069369E+03  0.24794656487E+03  0.17189582292E+03 0.  0.
        -24    2    5    5    0    0 -0.11666329086E+03 -0.59698896179E+01  0.47524032984E+02  0.14807610280E+03  0.77601775071E+02 0.  0.
          5    1    3    3  501    0  0.33223394109E+02 -0.54790736060E+02  0.37360834275E+02  0.74321871692E+02  0.47000000000E+01 0. -1.
        -11    1    4    4    0    0 -0.41397642050E+01  0.42325496224E+02  0.32794903663E+02  0.53703733432E+02  0.00000000000E+00 0.  1.
         12    1    4    4    0    0  0.73089956460E+02  0.28983280079E+02  0.15257161745E+03  0.17163994497E+03  0.00000000000E+00 0. -1.
         -5    1    5    5    0  502  0.14489704497E+02 -0.10548150625E+02  0.98136660705E+02  0.99870462062E+02  0.47000000000E+01 0.  1.
         13    1    6    6    0    0 -0.10046151820E+03 -0.11031673651E+02  0.37596688992E+01  0.10113530329E+03  0.00000000000E+00 0. -1.
        -14    1    6    6    0    0 -0.16201772665E+02  0.50617840330E+01  0.43764364085E+02  0.46940799513E+02  0.00000000000E+00 0.  1.
</event>
<event>
12    1  0.1630640E-001  0.1881196E+03  0.7818608E-02  0.1160406E+00
         21   -1    0    0  501  502  0.00000000000E+00  0.00000000000E+00  0.64764038705E+02  0.64764038705E+02  0.00000000000E+00 0.  1.
         21   -1    0    0  502  503 -0.00000000000E+00 -0.00000000000E+00 -0.60913332816E+03  0.60913332816E+03  0.00000000000E+00 0.  1.
         -6    2    1    2    0  503 -0.71045657135E+02  0.28246417228E+02 -0.38218292489E+03  0.42551577796E+03  0.17074701677E+03 0.  0.
        -24    2    3    3    0    0 -0.18024606046E+02  0.60950062044E+02 -0.12214559022E+03  0.15807930763E+03  0.77651309099E+02 0.  0.
          6    2    1    2  501    0  0.71045657135E+02 -0.28246417228E+02 -0.16218636457E+03  0.24838158891E+03  0.17188266745E+03 0.  0.
         24    2    5    5    0    0  0.73122326389E+02  0.41734832814E+02 -0.11345628424E+03  0.16295092320E+03  0.81191157486E+02 0.  0.
          5    1    5    5  501    0 -0.20766692547E+01 -0.69981250042E+02 -0.48730080336E+02  0.85430665701E+02  0.47000000000E+01 0. -1.
        -11    1    6    6    0    0  0.34398704429E+02  0.17871275904E+02  0.20427598839E+01  0.38817859765E+02  0.00000000000E+00 0.  1.
         12    1    6    6    0    0  0.38723621961E+02  0.23863556909E+02 -0.11549904412E+03  0.12413306344E+03  0.00000000000E+00 0. -1.
         -5    1    3    3    0  503 -0.53021051088E+02 -0.32703644816E+02 -0.26003733467E+03  0.26743647033E+03  0.47000000000E+01 0.  1.
         13    1    4    4    0    0 -0.15827677191E+02  0.28465432577E+02 -0.94704734563E+00  0.32583632636E+02  0.00000000000E+00 0. -1.
        -14    1    4    4    0    0 -0.21969288555E+01  0.32484629467E+02 -0.12119854287E+03  0.12549567499E+03  0.00000000000E+00 0.  1.
</event>
<event>
12    1  0.1630640E-001  0.2028112E+03  0.7818608E-02  0.1147698E+00
         21   -1    0    0  503  502  0.00000000000E+00  0.00000000000E+00  0.28640476094E+03  0.28640476094E+03  0.00000000000E+00 0.  1.
         21   -1    0    0  501  503 -0.00000000000E+00 -0.00000000000E+00 -0.14336967561E+03  0.14336967561E+03  0.00000000000E+00 0. -1.
          6    2    1    2  501    0 -0.89382943458E+02 -0.60619510751E+02  0.55692710506E+02  0.21031897294E+03  0.17166349848E+03 0.  0.
         24    2    3    3    0    0  0.18230771624E+02 -0.46782481919E+02  0.19588542319E+02  0.95873457516E+02  0.79290902487E+02 0.  0.
         -6    2    1    2    0  502  0.89382943458E+02  0.60619510751E+02  0.87342374822E+02  0.21945546360E+03  0.16990578095E+03 0.  0.
        -24    2    5    5    0    0 -0.10117902833E+02 -0.35521425259E+01  0.53195727907E+02  0.96140813246E+02  0.79361708839E+02 0.  0.
          5    1    3    3  501    0 -0.10761371508E+03 -0.13837028832E+02  0.36104168187E+02  0.11444551543E+03  0.47000000000E+01 0. -1.
        -13    1    4    4    0    0  0.30160789536E+01 -0.16073752692E+02  0.48407653117E+02  0.51095627387E+02  0.00000000000E+00 0.  1.
         14    1    4    4    0    0  0.15214692670E+02 -0.30708729228E+02 -0.28819110797E+02  0.44777830128E+02  0.00000000000E+00 0. -1.
         -5    1    5    5    0  502  0.99500846291E+02  0.64171653277E+02  0.34146646915E+02  0.12331465036E+03  0.47000000000E+01 0.  1.
         13    1    6    6    0    0 -0.17167377401E+02  0.28903922664E+02  0.22456801049E+00  0.33618536895E+02  0.00000000000E+00 0. -1.
        -14    1    6    6    0    0  0.70494745686E+01 -0.32456065190E+02  0.52971159897E+02  0.62522276351E+02  0.00000000000E+00 0.  1.
</event>
<event>
12    1  0.1630640E-001  0.1797831E+03  0.7818608E-02  0.1168016E+00
         21   -1    0    0  501  502  0.00000000000E+00  0.00000000000E+00  0.41102913638E+03  0.41102913638E+03  0.00000000000E+00 0.  1.
         21   -1    0    0  502  503 -0.00000000000E+00 -0.00000000000E+00 -0.78840509261E+02  0.78840509261E+02  0.00000000000E+00 0.  1.
         -6    2    1    2    0  503 -0.55875105628E+02  0.93754048291E+01  0.15348597662E+03  0.23638080128E+03  0.17061070468E+03 0.  0.
        -24    2    3    3    0    0  0.18307099786E+01 -0.48652842628E+02  0.61126095914E+02  0.11289122188E+03  0.81471331032E+02 0.  0.
          6    2    1    2  501    0  0.55875105628E+02 -0.93754048291E+01  0.17870265049E+03  0.25348884436E+03  0.17062248174E+03 0.  0.
         24    2    5    5    0    0  0.35457033691E+01 -0.17981961698E+02  0.18301662156E+03  0.20007405700E+03  0.78731325138E+02 0.  0.
          5    1    5    5  501    0  0.52329402259E+02  0.86065568688E+01 -0.43139710672E+01  0.53414787356E+02  0.47000000000E+01 0. -1.
        -11    1    6    6    0    0 -0.33514949076E+02 -0.17787145352E+02  0.55125545603E+02  0.66921298025E+02  0.00000000000E+00 0.  1.
         12    1    6    6    0    0  0.37060652445E+02 -0.19481634597E+00  0.12789107596E+03  0.13315275898E+03  0.00000000000E+00 0. -1.
         -5    1    3    3    0  503 -0.57705815607E+02  0.58028247457E+02  0.92359880710E+02  0.12348957941E+03  0.47000000000E+01 0.  1.
         13    1    4    4    0    0 -0.35527733956E+02 -0.34374491009E+02  0.52238813210E+02  0.71921617875E+02  0.00000000000E+00 0. -1.
        -14    1    4    4    0    0  0.37358443935E+02 -0.14278351619E+02  0.88872827043E+01  0.40969604001E+02  0.00000000000E+00 0.  1.
</event>
<event>
12    1  0.1630640E-001  0.2275057E+03  0.7818608E-02  0.1129239E+00
         21   -1    0    0  503  502  0.00000000000E+00  0.00000000000E+00  0.56219253085E+02  0.56219253085E+02  0.00000000000E+00 0. -1.
         21   -1    0    0  501  503 -0.00000000000E+00 -0.00000000000E+00 -0.97830395427E+03  0.97830395427E+03  0.00000000000E+00 0.  1.
          6    2    1    2  501    0  0.11154650083E+02 -0.14171299329E+03 -0.60974169390E+03  0.65080241332E+03  0.17762840204E+03 0.  0.
         24    2    3    3    0    0 -0.13741815675E+01 -0.10246386336E+03 -0.19356268974E+03  0.23256262644E+03  0.78218467689E+02 0.  0.
         -6    2    1    2    0  502 -0.11154650083E+02  0.14171299329E+03 -0.31234300728E+03  0.38372079404E+03  0.17168720073E+03 0.  0.
        -24    2    5    5    0    0 -0.65874977854E+02  0.49597387977E+02 -0.14614164231E+03  0.18592144436E+03  0.80062414749E+02 0.  0.
          5    1    3    3  501    0  0.12528831651E+02 -0.39249129933E+02 -0.41617900416E+03  0.41823978688E+03  0.47000000000E+01 0. -1.
        -13    1    4    4    0    0  0.85625270798E+01  0.95674360201E+01 -0.67494501089E+01  0.14505439627E+02  0.00000000000E+00 0.  1.
         14    1    4    4    0    0 -0.99367086473E+01 -0.11203129938E+03 -0.18681323963E+03  0.21805718681E+03  0.00000000000E+00 0. -1.
         -5    1    5    5    0  502  0.54720327770E+02  0.92115605311E+02 -0.16620136497E+03  0.19779934968E+03  0.47000000000E+01 0.  1.
         13    1    6    6    0    0  0.94473977776E+01 -0.45058236206E+01 -0.54664441828E+02  0.55657496994E+02  0.00000000000E+00 0. -1.
        -14    1    6    6    0    0 -0.75322375631E+02  0.54103211598E+02 -0.91477200477E+02  0.13026394736E+03  0.00000000000E+00 0.  1.
</event>
<event>
12    1  0.1630640E-001  0.2717011E+03  0.7818608E-02  0.1100636E+00
         21   -1    0    0  501  502  0.00000000000E+00  0.00000000000E+00  0.31384422589E+03  0.31384422589E+03  0.00000000000E+00 0. -1.
         21   -1    0    0  502  503 -0.00000000000E+00 -0.00000000000E+00 -0.24604232955E+03  0.24604232955E+03  0.00000000000E+00 0. -1.
         -6    2    1    2    0  503 -0.14954208805E+02  0.20928507380E+03 -0.30084962956E+02  0.27109021808E+03  0.16899979546E+03 0.  0.
        -24    2    3    3    0    0  0.50906618259E+01  0.16981988541E+03  0.34963082195E+02  0.19226994080E+03  0.82949410474E+02 0.  0.
          6    2    1    2  501    0  0.14954208805E+02 -0.20928507380E+03  0.97886859296E+02  0.28879633737E+03  0.17261986206E+03 0.  0.
         24    2    5    5    0    0 -0.36403919039E+01 -0.20982289641E+03  0.12382740978E+03  0.25653102181E+03  0.80224917733E+02 0.  0.
          5    1    5    5  501    0  0.18594600709E+02  0.53782260664E+00 -0.25940550487E+02  0.32265315561E+02  0.47000000000E+01 0. -1.
        -13    1    6    6    0    0 -0.18499643017E+02 -0.53442977227E+01  0.65489687715E+01  0.20339304361E+02  0.00000000000E+00 0.  1.
         14    1    6    6    0    0  0.14859251113E+02 -0.20447859869E+03  0.11727844101E+03  0.23619171745E+03  0.00000000000E+00 0. -1.
         -5    1    3    3    0  503 -0.20044870631E+02  0.39465188389E+02 -0.65048045151E+02  0.78820277284E+02  0.47000000000E+01 0.  1.
         11    1    4    4    0    0  0.39757724245E+02  0.12272808192E+03  0.35459753262E+02  0.13379182647E+03  0.00000000000E+00 0. -1.
        -12    1    4    4    0    0 -0.34667062419E+02  0.47091803491E+02 -0.49667106655E+00  0.58478114324E+02  0.00000000000E+00 0.  1.
</event>
<event>
12    1  0.1630640E-001  0.2684375E+03  0.7818608E-02  0.1102230E+00
         21   -1    0    0  501  502  0.00000000000E+00  0.00000000000E+00  0.19311831244E+03  0.19311831244E+03  0.00000000000E+00 0. -1.
         21   -1    0    0  502  503 -0.00000000000E+00 -0.00000000000E+00 -0.64047997807E+03  0.64047997807E+03  0.00000000000E+00 0. -1.
         -6    2    1    2    0  503  0.14515208009E+03  0.14529064678E+03 -0.49313393436E+03  0.56128639642E+03  0.17228709525E+03 0.  0.
        -24    2    3    3    0    0  0.13688751983E+03  0.17379399936E+03 -0.45913538812E+03  0.51591310900E+03  0.80115442432E+02 0.  0.
          6    2    1    2  501    0 -0.14515208009E+03 -0.14529064678E+03  0.45772268729E+02  0.27231189409E+03  0.17285881141E+03 0.  0.
         24    2    5    5    0    0 -0.27234523106E+02 -0.40200771392E+02 -0.30414925865E+02  0.96883815455E+02  0.78125442159E+02 0.  0.
          5    1    5    5  501    0 -0.11791755699E+03 -0.10508987539E+03  0.76187194594E+02  0.17542807864E+03  0.47000000000E+01 0. -1.
        -11    1    6    6    0    0  0.49882894671E+01  0.20354376200E+01 -0.42138202906E+02  0.42481221525E+02  0.00000000000E+00 0.  1.
         12    1    6    6    0    0 -0.32222812573E+02 -0.42236209012E+02  0.11723277041E+02  0.54402593931E+02  0.00000000000E+00 0. -1.
         -5    1    3    3    0  503  0.82645602655E+01 -0.28503352582E+02 -0.33998546244E+02  0.45373287423E+02  0.47000000000E+01 0.  1.
         13    1    4    4    0    0  0.23120362100E+02  0.13827302303E+00 -0.21678197663E+02  0.31694077002E+02  0.00000000000E+00 0. -1.
        -14    1    4    4    0    0  0.11376715773E+03  0.17365572634E+03 -0.43745719045E+03  0.48421903200E+03  0.00000000000E+00 0.  1.
</event>
<event>
12    1  0.1630640E-001  0.2448789E+03  0.7818608E-02  0.1117760E+00
         21   -1    0    0  503  502  0.00000000000E+00  0.00000000000E+00  0.78466239859E+03  0.78466239859E+03  0.00000000000E+00 0.  1.
         21   -1    0    0  501  503 -0.00000000000E+00 -0.00000000000E+00 -0.10128557535E+03  0.10128557535E+03  0.00000000000E+00 0.  1.
          6    2    1    2  501    0 -0.46399144828E+01  0.17495912750E+03  0.56698870211E+03  0.61481727595E+03  0.16090950680E+03 0.  0.
         24    2    3    3    0    0 -0.59967335567E+02  0.13534236457E+03  0.43172461396E+03  0.46332775494E+03  0.79830002028E+02 0.  0.
         -6    2    1    2    0  502  0.46399144828E+01 -0.17495912750E+03  0.11638812113E+03  0.27113069799E+03  0.17127006613E+03 0.  0.
        -24    2    5    5    0    0 -0.29935690831E+02 -0.17008351931E+03  0.13305875534E+03  0.23215321625E+03  0.79786805393E+02 0.  0.
          5    1    3    3  501    0  0.55327421084E+02  0.39616762936E+02  0.13526408815E+03  0.15148952100E+03  0.47000000000E+01 0. -1.
        -13    1    4    4    0    0 -0.12434452640E+02  0.88517966749E+02  0.32827611561E+03  0.34022823829E+03  0.00000000000E+00 0.  1.
         14    1    4    4    0    0 -0.47532882927E+02  0.46824397819E+02  0.10344849835E+03  0.12309951666E+03  0.00000000000E+00 0. -1.
         -5    1    5    5    0  502  0.34575605314E+02 -0.48756081951E+01 -0.16670634215E+02  0.38977481745E+02  0.47000000000E+01 0.  1.
         13    1    6    6    0    0 -0.29261458500E+02 -0.74682194785E+02  0.10611267979E+03  0.13301715672E+03  0.00000000000E+00 0. -1.
        -14    1    6    6    0    0 -0.67423233157E+00 -0.95401324523E+02  0.26946075556E+02  0.99136059524E+02  0.00000000000E+00 0.  1.
</event>
<event>
12    1  0.1630640E-001  0.6001569E+03  0.7818608E-02  0.9905661E-01
         21   -1    0    0  501  502  0.00000000000E+00  0.00000000000E+00  0.41171476614E+03  0.41171476614E+03  0.00000000000E+00 0.  1.
         21   -1    0    0  502  503 -0.00000000000E+00 -0.00000000000E+00 -0.87821435233E+03  0.87821435233E+03  0.00000000000E+00 0. -1.
         -6    2    1    2    0  503  0.40308121711E+03  0.40998419840E+03 -0.18439373668E+03  0.62677603640E+03  0.16818334983E+03 0.  0.
        -24    2    3    3    0    0  0.21944153274E+03  0.14712643682E+03 -0.59912419638E+02  0.28277687246E+03  0.81070875614E+02 0.  0.
          6    2    1    2  501    0 -0.40308121711E+03 -0.40998419840E+03 -0.28210584951E+03  0.66315308207E+03  0.17212434288E+03 0.  0.
         24    2    5    5    0    0 -0.40339475908E+03 -0.36275024539E+03 -0.23585188559E+03  0.59687590799E+03  0.79496323305E+02 0.  0.
          5    1    5    5  501    0  0.31354197657E+00 -0.47233953010E+02 -0.46253963920E+02  0.66277174079E+02  0.47000000000E+01 0. -1.
        -13    1    6    6    0    0 -0.14327470178E+03 -0.15196541994E+03 -0.12878509095E+03  0.24537059457E+03  0.00000000000E+00 0.  1.
         14    1    6    6    0    0 -0.26012005730E+03 -0.21078482545E+03 -0.10706679464E+03  0.35150531342E+03  0.00000000000E+00 0. -1.
         -5    1    3    3    0  503  0.18363968437E+03  0.26285776158E+03 -0.12448131704E+03  0.34399916394E+03  0.47000000000E+01 0.  1.
         13    1    4    4    0    0  0.66982672924E+02  0.92914928430E+02 -0.25653789256E+02  0.11737963750E+03  0.00000000000E+00 0. -1.
        -14    1    4    4    0    0  0.15245885981E+03  0.54211508390E+02 -0.34258630382E+02  0.16539723496E+03  0.00000000000E+00 0.  1.
</event>
<event>
12    1  0.1630640E-001  0.2386817E+03  0.7818608E-02  0.1120680E+00
         21   -1    0    0  503  502  0.00000000000E+00  0.00000000000E+00  0.73927919391E+03  0.73927919391E+03  0.00000000000E+00 0.  1.
         21   -1    0    0  501  503 -0.00000000000E+00 -0.00000000000E+00 -0.83373176923E+02  0.83373176923E+02  0.00000000000E+00 0. -1.
          6    2    1    2  501    0 -0.13779988865E+03 -0.90732986401E+02  0.21464168918E+03  0.32097204642E+03  0.17242597170E+03 0.  0.
         24    2    3    3    0    0 -0.11296940339E+02 -0.75188988601E+02  0.94405770381E+02  0.14569119188E+03  0.80823691100E+02 0.  0.
         -6    2    1    2    0  502  0.13779988865E+03  0.90732986401E+02  0.44126432781E+03  0.50168032441E+03  0.17247509030E+03 0.  0.
        -24    2    5    5    0    0  0.96938623976E+02  0.42037215721E+01  0.15233702219E+03  0.19728250157E+03  0.79366548374E+02 0.  0.
          5    1    3    3  501    0 -0.12650294831E+03 -0.15543997800E+02  0.12023591880E+03  0.17528085454E+03  0.47000000000E+01 0. -1.
        -11    1    4    4    0    0 -0.22418764724E+02 -0.31756445885E+01  0.61883424813E+02  0.65895705451E+02  0.00000000000E+00 0.  1.
         12    1    4    4    0    0  0.11121824385E+02 -0.72013344013E+02  0.32522345568E+02  0.79795486431E+02  0.00000000000E+00 0. -1.
         -5    1    5    5    0  502  0.40861264672E+02  0.86529264829E+02  0.28892730562E+03  0.30439782285E+03  0.47000000000E+01 0.  1.
         13    1    6    6    0    0  0.71731276074E+02  0.12119389773E+02  0.15450284101E+03  0.17077290024E+03  0.00000000000E+00 0. -1.
        -14    1    6    6    0    0  0.25207347902E+02 -0.79156682007E+01 -0.21658188205E+01  0.26509601326E+02  0.00000000000E+00 0.  1.
</event>
<event>
12    1  0.1630640E-001  0.2216882E+03  0.7818608E-02  0.1133692E+00
         21   -1    0    0  503  502  0.00000000000E+00  0.00000000000E+00  0.14687802211E+03  0.14687802211E+03  0.00000000000E+00 0. -1.
         21   -1    0    0  501  503 -0.00000000000E+00 -0.00000000000E+00 -0.33106336950E+03  0.33106336950E+03  0.00000000000E+00 0. -1.
          6    2    1    2  501    0  0.28311557577E+02 -0.13041751099E+03 -0.12252576714E+03  0.25329476759E+03  0.17701809007E+03 0.  0.
         24    2    3    3    0    0 -0.28669406354E+02 -0.70468448284E+02 -0.12958777399E+03  0.17015222547E+03  0.79818867437E+02 0.  0.
         -6    2    1    2    0  502 -0.28311557577E+02  0.13041751099E+03 -0.61659580243E+02  0.22464662402E+03  0.16986444708E+03 0.  0.
        -24    2    5    5    0    0 -0.67411652623E+02  0.11086871420E+03 -0.60989466964E+02  0.18067490652E+03  0.10994318563E+03 0.  0.
          5    1    3    3  501    0  0.56980963932E+02 -0.59949062704E+02  0.70620068548E+01  0.83142542122E+02  0.47000000000E+01 0. -1.
        -13    1    4    4    0    0 -0.18404732668E+02  0.88224532054E+01 -0.32883005502E+01  0.20673238393E+02  0.00000000000E+00 0.  1.
         14    1    4    4    0    0 -0.10264673686E+02 -0.79290901490E+02 -0.12629947344E+03  0.14947898708E+03  0.00000000000E+00 0. -1.
         -5    1    5    5    0  502  0.39100095045E+02  0.19548796791E+02 -0.67011327938E+00  0.43971717505E+02  0.47000000000E+01 0.  1.
         11    1    6    6    0    0 -0.30091653185E+01 -0.43315950958E+01 -0.47740878402E+02  0.48031336256E+02  0.00000000000E+00 0. -1.
        -12    1    6    6    0    0 -0.64402487304E+02  0.11520030929E+03 -0.13248588562E+02  0.13264357026E+03  0.00000000000E+00 0.  1.
</event>
<event>
12    1  0.1630640E-001  0.2164602E+03  0.7818608E-02  0.1140502E+00
         21   -1    0    0  503  502  0.00000000000E+00  0.00000000000E+00  0.16531599012E+03  0.16531599012E+03  0.00000000000E+00 0. -1.
         21   -1    0    0  501  503 -0.00000000000E+00 -0.00000000000E+00 -0.76970512701E+03  0.76970512701E+03  0.00000000000E+00 0.  1.
          6    2    1    2  501    0 -0.46671014324E+02 -0.84219290121E+02 -0.68801033349E+03  0.72125809617E+03  0.19386580384E+03 0.  0.
         24    2    3    3    0    0  0.23523945264E+01 -0.19524300814E+02 -0.58058877918E+03  0.58653535649E+03  0.80954689933E+02 0.  0.
         -6    2    1    2    0  502  0.46671014324E+02  0.84219290121E+02  0.83621196595E+02  0.21376302096E+03  0.17155480816E+03 0.  0.
        -24    2    5    5    0    0  0.86757248287E+02  0.33034794761E+02  0.86178883657E+02  0.14852966690E+03  0.77563807063E+02 0.  0.
          5    1    3    3  501    0 -0.49023408850E+02 -0.64694989307E+02 -0.10742155431E+03  0.13472273968E+03  0.47000000000E+01 0. -1.
        -11    1    4    4    0    0  0.20744585097E+02 -0.32041373573E+02 -0.13233820543E+03  0.13773303180E+03  0.00000000000E+00 0.  1.
         12    1    4    4    0    0 -0.18392190571E+02  0.12517072759E+02 -0.44825057375E+03  0.44880232470E+03  0.00000000000E+00 0. -1.
         -5    1    5    5    0  502 -0.40086233963E+02  0.51184495360E+02 -0.25576870623E+01  0.65233354059E+02  0.47000000000E+01 0.  1.
         13    1    6    6    0    0 -0.51339901247E+01  0.12848513005E+02  0.42701441011E+02  0.44887138531E+02  0.00000000000E+00 0. -1.
        -14    1    6    6    0    0  0.91891238412E+02  0.20186281756E+02  0.43477442646E+02  0.10364252837E+03  0.00000000000E+00 0.  1.
</event>
<event>
12    1  0.1630640E-001  0.1812332E+03  0.7818608E-02  0.1167783E+00
         21   -1    0    0  501  502  0.00000000000E+00  0.00000000000E+00  0.22697041621E+03  0.22697041621E+03  0.00000000000E+00 0.  1.
         21   -1    0    0  502  503 -0.00000000000E+00 -0.00000000000E+00 -0.19741874942E+03  0.19741874942E+03  0.00000000000E+00 0.  1.
         -6    2    1    2    0  503 -0.30561246052E+02 -0.26717343565E+02 -0.98609454235E+02  0.20632326286E+03  0.17662858807E+03 0.  0.
        -24    2    3    3    0    0 -0.31900895863E+02 -0.40014753421E+02 -0.13593107840E+03  0.16640322527E+03  0.81203002766E+02 0.  0.
          6    2    1    2  501    0  0.30561246052E+02  0.26717343565E+02  0.12816112103E+03  0.21806590277E+03  0.17169641464E+03 0.  0.
         24    2    5    5    0    0  0.62432375743E+02 -0.29045187824E+02  0.10600368155E+03  0.14996105023E+03  0.80685262639E+02 0.  0.
          5    1    5    5  501    0 -0.31871129692E+02  0.55762531389E+02  0.22157439476E+02  0.68104852535E+02  0.47000000000E+01 0. -1.
        -11    1    6    6    0    0  0.53545642833E+02  0.12928915937E+02  0.87144841444E+02  0.10309469494E+03  0.00000000000E+00 0.  1.
         12    1    6    6    0    0  0.88867329099E+01 -0.41974103761E+02  0.18858840108E+02  0.46866355294E+02  0.00000000000E+00 0. -1.
         -5    1    3    3    0  503  0.13396498114E+01  0.13297409856E+02  0.37321624165E+02  0.39920037585E+02  0.47000000000E+01 0.  1.
         13    1    4    4    0    0 -0.16012597283E+02  0.21994130004E+02 -0.19285292311E+02  0.33347676469E+02  0.00000000000E+00 0. -1.
        -14    1    4    4    0    0 -0.15888298580E+02 -0.62008883425E+02 -0.11664578609E+03  0.13305554880E+03  0.00000000000E+00 0.  1.
</event>
<event>
12    1  0.1630640E-001  0.2246475E+03  0.7818608E-02  0.1131410E+00
         21   -1    0    0  501  502  0.00000000000E+00  0.00000000000E+00  0.10267378113E+04  0.10267378113E+04  0.00000000000E+00 0. -1.
         21   -1    0    0  502  503 -0.00000000000E+00 -0.00000000000E+00 -0.49464282936E+02  0.49464282936E+02  0.00000000000E+00 0.  1.
         -6    2    1    2    0  503 -0.22612423046E+02 -0.14256344846E+03  0.58568377261E+03  0.62728940189E+03  0.17213614877E+03 0.  0.
        -24    2    3    3    0    0 -0.13245034295E+02 -0.23821738786E+02  0.38425295751E+03  0.39322999734E+03  0.78972079107E+02 0.  0.
          6    2    1    2  501    0  0.22612423046E+02  0.14256344846E+03  0.39158975573E+03  0.44891269232E+03  0.16536145265E+03 0.  0.
         24    2    5    5    0    0 -0.75536192588E+01  0.16292438203E+03  0.29085344330E+03  0.34170050847E+03  0.74579491725E+02 0.  0.
          5    1    5    5  501    0  0.30166042305E+02 -0.20360933571E+02  0.10073631244E+03  0.10721218386E+03  0.47000000000E+01 0. -1.
        -11    1    6    6    0    0  0.28579817300E+02  0.79144472077E+02  0.10414506343E+03  0.13389117840E+03  0.00000000000E+00 0.  1.
         12    1    6    6    0    0 -0.36133436559E+02  0.83779909950E+02  0.18670837987E+03  0.20780933007E+03  0.00000000000E+00 0. -1.
         -5    1    3    3    0  503 -0.93673887515E+01 -0.11874170967E+03  0.20143081509E+03  0.23405940455E+03  0.47000000000E+01 0.  1.
         11    1    4    4    0    0  0.20166799546E+02 -0.33856476397E+02  0.11158228631E+03  0.11833666979E+03  0.00000000000E+00 0. -1.
        -12    1    4    4    0    0 -0.33411833841E+02  0.10034737611E+02  0.27267067120E+03  0.27489332755E+03  0.00000000000E+00 0.  1.
</event>
<event>
12    1  0.1630640E-001  0.1756889E+03  0.7818608E-02  0.1172398E+00
         21   -1    0    0  503  502  0.00000000000E+00  0.00000000000E+00  0.26252857447E+03  0.26252857447E+03  0.00000000000E+00 0. -1.
         21   -1    0    0  501  503 -0.00000000000E+00 -0.00000000000E+00 -0.12914708843E+03  0.12914708843E+03  0.00000000000E+00 0. -1.
          6    2    1    2  501    0 -0.21227365321E+02  0.24099025648E+02  0.54676838239E+01  0.17435441045E+03  0.17128397707E+03 0.  0.
         24    2    3    3    0    0  0.29256035595E+02 -0.38928162829E+02  0.20918495340E+02  0.92002617317E+02  0.75203594767E+02 0.  0.
         -6    2    1    2    0  502  0.21227365321E+02 -0.24099025648E+02  0.12791380221E+03  0.21732125245E+03  0.17272875237E+03 0.  0.
        -24    2    5    5    0    0  0.21102296709E+02 -0.81145522308E+02  0.94636807355E+02  0.15111123199E+03  0.82756126115E+02 0.  0.
          5    1    3    3  501    0 -0.50483400916E+02  0.63027188477E+02 -0.15450811516E+02  0.82351793131E+02  0.47000000000E+01 0. -1.
        -11    1    4    4    0    0 -0.26073040501E+01 -0.60845976191E+01  0.41358631342E+02  0.41885042068E+02  0.00000000000E+00 0.  1.
         12    1    4    4    0    0  0.31863339645E+02 -0.32843565210E+02 -0.20440136002E+02  0.50117575249E+02  0.00000000000E+00 0. -1.
         -5    1    5    5    0  502  0.12506861179E+00  0.57046496660E+02  0.33276994853E+02  0.66210020464E+02  0.47000000000E+01 0.  1.
         13    1    6    6    0    0  0.35670426568E+02 -0.13363756211E+02  0.65785941518E+02  0.76018151865E+02  0.00000000000E+00 0. -1.
        -14    1    6    6    0    0 -0.14568129859E+02 -0.67781766097E+02  0.28850865837E+02  0.75093080123E+02  0.00000000000E+00 0.  1.
</event>
<event>
12    1  0.1630640E-001  0.1846545E+03  0.7818608E-02  0.1163617E+00
         21   -1    0    0  501  502  0.00000000000E+00  0.00000000000E+00  0.78474689239E+03  0.78474689239E+03  0.00000000000E+00 0. -1.
         21   -1    0    0  502  503 -0.00000000000E+00 -0.00000000000E+00 -0.11279013768E+03  0.11279013768E+03  0.00000000000E+00 0. -1.
         -6    2    1    2    0  503 -0.11647812878E+02  0.68202780260E+02 -0.16870638598E+02  0.18438875437E+03  0.17008028549E+03 0.  0.
        -24    2    3    3    0    0 -0.12470727721E+02  0.17497643747E+00 -0.62526273233E+02  0.10232179235E+03  0.80029148931E+02 0.  0.
          6    2    1    2  501    0  0.11647812878E+02 -0.68202780260E+02  0.68882739331E+03  0.71314827570E+03  0.17120161967E+03 0.  0.
         24    2    5    5    0    0  0.24398648730E+02 -0.32708896967E+02  0.15821972128E+03  0.18118117974E+03  0.78281375112E+02 0.  0.
          5    1    5    5  501    0 -0.12750835851E+02 -0.35493883293E+02  0.53060767203E+03  0.53196709596E+03  0.47000000000E+01 0. -1.
        -11    1    6    6    0    0  0.19766737803E+02 -0.56713251635E+02  0.85686837523E+02  0.10463914640E+03  0.00000000000E+00 0.  1.
         12    1    6    6    0    0  0.46319109265E+01  0.24004354668E+02  0.72532883756E+02  0.76542033340E+02  0.00000000000E+00 0. -1.
         -5    1    3    3    0  503  0.82291484242E+00  0.68027803823E+02  0.45655634635E+02  0.82066962023E+02  0.47000000000E+01 0.  1.
         13    1    4    4    0    0 -0.32314373570E+02  0.27051998172E+02 -0.52739360461E+02  0.67509032627E+02  0.00000000000E+00 0. -1.
        -14    1    4    4    0    0  0.19843645850E+02 -0.26877021735E+02 -0.97869127717E+01  0.34812759723E+02  0.00000000000E+00 0.  1.
</event>
<event>
12    1  0.1630640E-001  0.1927810E+03  0.7818608E-02  0.1158108E+00
         21   -1    0    0  501  502  0.00000000000E+00  0.00000000000E+00  0.33752406846E+03  0.33752406846E+03  0.00000000000E+00 0.  1.
         21   -1    0    0  502  503 -0.00000000000E+00 -0.00000000000E+00 -0.98237918948E+03  0.98237918948E+03  0.00000000000E+00 0.  1.
         -6    2    1    2    0  503 -0.35698562259E+02 -0.75877766786E+02 -0.94701571142E+03  0.96643844701E+03  0.17358770499E+03 0.  0.
        -24    2    3    3    0    0  0.35251701148E+02 -0.57977521637E+02 -0.35654171577E+03  0.37142921330E+03  0.78953087063E+02 0.  0.
          6    2    1    2  501    0  0.35698562259E+02  0.75877766786E+02  0.30216059041E+03  0.35346481093E+03  0.16310894314E+03 0.  0.
         24    2    5    5    0    0  0.15344423182E+02  0.10885804902E+03  0.27260011739E+03  0.30449643789E+03  0.79509310941E+02 0.  0.
          5    1    5    5  501    0  0.20354139078E+02 -0.32980282231E+02  0.29560473022E+02  0.48968373048E+02  0.47000000000E+01 0. -1.
        -13    1    6    6    0    0  0.42161092342E+02  0.69856224168E+02  0.21489052853E+03  0.22985949842E+03  0.00000000000E+00 0.  1.
         14    1    6    6    0    0 -0.26816669160E+02  0.39001824848E+02  0.57709588856E+02  0.74636939462E+02  0.00000000000E+00 0. -1.
         -5    1    3    3    0  503 -0.70950263407E+02 -0.17900245148E+02 -0.59047399565E+03  0.59500923370E+03  0.47000000000E+01 0.  1.
         13    1    4    4    0    0  0.96198189441E+01  0.16759865128E+02 -0.13167657907E+03  0.13308702217E+03  0.00000000000E+00 0. -1.
        -14    1    4    4    0    0  0.25631882204E+02 -0.74737386766E+02 -0.22486513670E+03  0.23834219113E+03  0.00000000000E+00 0.  1.
</event>
<event>
12    1  0.1630640E-001  0.2002169E+03  0.7818608E-02  0.1150382E+00
         21   -1    0    0  503  502  0.00000000000E+00  0.00000000000E+00  0.21579205609E+03  0.21579205609E+03  0.00000000000E+00 0. -1.
         21   -1    0    0  501  503 -0.00000000000E+00 -0.00000000000E+00 -0.44638921960E+03  0.44638921960E+03  0.00000000000E+00 0. -1.
          6    2    1    2  501    0 -0.50625524387E+02  0.81274075774E+02 -0.37047419862E+03  0.42111513226E+03  0.17583629790E+03 0.  0.
         24    2    3    3    0    0  0.36755261749E+01  0.30154927460E+02 -0.66041706204E+02  0.10764582937E+03  0.79393252098E+02 0.  0.
         -6    2    1    2    0  502  0.50625524387E+02 -0.81274075774E+02  0.13987703511E+03  0.24106614343E+03  0.17140268798E+03 0.  0.
        -24    2    5    5    0    0  0.44267171532E+01 -0.12057056775E+02 -0.64565292870E+00  0.77683031203E+02  0.76611148186E+02 0.  0.
          5    1    3    3  501    0 -0.54301050562E+02  0.51119148314E+02 -0.30443249242E+03  0.31346930289E+03  0.47000000000E+01 0. -1.
        -11    1    4    4    0    0 -0.34281313313E+01  0.34089016328E+02 -0.82479191905E+02  0.89311982488E+02  0.00000000000E+00 0.  1.
         12    1    4    4    0    0  0.71036575062E+01 -0.39340888682E+01  0.16437485701E+02  0.18333846878E+02  0.00000000000E+00 0. -1.
         -5    1    5    5    0  502  0.46198807234E+02 -0.69217018998E+02  0.14052268804E+03  0.16338311223E+03  0.47000000000E+01 0.  1.
         13    1    6    6    0    0 -0.62100416416E+01  0.31622268190E+02 -0.46032026250E+01  0.32553370594E+02  0.00000000000E+00 0. -1.
        -14    1    6    6    0    0  0.10636758795E+02 -0.43679324965E+02  0.39575496963E+01  0.45129660609E+02  0.00000000000E+00 0.  1.
</event>
<event>
12    1  0.1630640E-001  0.1805579E+03  0.7818608E-02  0.1167414E+00
         21   -1    0    0  503  502  0.00000000000E+00  0.00000000000E+00  0.17477222380E+03  0.17477222380E+03  0.00000000000E+00 0.  1.
         21   -1    0    0  501  503 -0.00000000000E+00 -0.00000000000E+00 -0.30358367654E+03  0.30358367654E+03  0.00000000000E+00 0. -1.
          6    2    1    2  501    0 -0.39557626207E+01  0.54850094727E+02 -0.21325769501E+03  0.27902622136E+03  0.17132602481E+03 0.  0.
         24    2    3    3    0    0  0.39504093038E+02  0.25656050818E+02 -0.20188477360E+03  0.22524439734E+03  0.88083882811E+02 0.  0.
         -6    2    1    2    0  502  0.39557626207E+01 -0.54850094727E+02  0.84446242267E+02  0.19932967898E+03  0.17197956897E+03 0.  0.
        -24    2    5    5    0    0 -0.49570659862E+00 -0.68448749875E+02  0.12059633887E+03  0.16016772698E+03  0.80154517850E+02 0.  0.
          5    1    3    3  501    0 -0.43459855658E+02  0.29194043909E+02 -0.11372921408E+02  0.53781824020E+02  0.47000000000E+01 0. -1.
        -11    1    4    4    0    0  0.31109561039E+02  0.28124318856E+02 -0.26429680887E+02  0.49571263157E+02  0.00000000000E+00 0.  1.
         12    1    4    4    0    0  0.83945319986E+01 -0.24682680379E+01 -0.17545509271E+03  0.17567313418E+03  0.00000000000E+00 0. -1.
         -5    1    5    5    0  502  0.44514692193E+01  0.13598655148E+02 -0.36150096607E+02  0.39161952004E+02  0.47000000000E+01 0.  1.
         13    1    6    6    0    0 -0.10797403688E+02 -0.13306073545E+02 -0.87064377877E+01  0.19220759052E+02  0.00000000000E+00 0. -1.
        -14    1    6    6    0    0  0.10301697090E+02 -0.55142676330E+02  0.12930277666E+03  0.14094696793E+03  0.00000000000E+00 0.  1.
</event>
<event>
12    1  0.1630640E-001  0.2236480E+03  0.7818608E-02  0.1131196E+00
         21   -1    0    0  503  502  0.00000000000E+00  0.00000000000E+00  0.90745329022E+03  0.90745329022E+03  0.00000000000E+00 0.  1.
         21   -1    0    0  501  503 -0.00000000000E+00 -0.00000000000E+00 -0.78861413661E+02  0.78861413661E+02  0.00000000000E+00 0. -1.
          6    2    1    2  501    0 -0.13873754599E+03 -0.35827789771E+02  0.68492530413E+03  0.72051447809E+03  0.17171692900E+03 0.  0.
         24    2    3    3    0    0 -0.13103705859E+03 -0.82313066078E+02  0.57265738993E+03  0.59866886684E+03  0.80757503162E+02 0.  0.
         -6    2    1    2    0  502  0.13873754599E+03  0.35827789771E+02  0.14366657243E+03  0.26580022580E+03  0.17169140576E+03 0.  0.
        -24    2    5    5    0    0  0.37774724850E+02  0.36108108491E+02  0.13259533649E+03  0.16412312859E+03  0.81388898156E+02 0.  0.
          5    1    3    3  501    0 -0.77004874027E+01  0.46485276307E+02  0.11226791421E+03  0.12184561124E+03  0.47000000000E+01 0. -1.
        -11    1    4    4    0    0 -0.40938366716E+02 -0.12622578188E+02  0.61347783956E+02  0.74825329574E+02  0.00000000000E+00 0.  1.
         12    1    4    4    0    0 -0.90098691872E+02 -0.69690487890E+02  0.51130960597E+03  0.52384353727E+03  0.00000000000E+00 0. -1.
         -5    1    5    5    0  502  0.10096282114E+03 -0.28031872049E+00  0.11071235939E+02  0.10167709721E+03  0.47000000000E+01 0.  1.
         13    1    6    6    0    0 -0.42142512984E+01  0.56343350558E+01 -0.10088389042E+02  0.12299643856E+02  0.00000000000E+00 0. -1.
        -14    1    6    6    0    0  0.41988976149E+02  0.30473773435E+02  0.14268372553E+03  0.15182348473E+03  0.00000000000E+00 0.  1.
</event>
<event>
12    1  0.1630640E-001  0.2418981E+03  0.7818608E-02  0.1118640E+00
         21   -1    0    0  501  502  0.00000000000E+00  0.00000000000E+00  0.28766309990E+03  0.28766309990E+03  0.00000000000E+00 0. -1.
         21   -1    0    0  502  503 -0.00000000000E+00 -0.00000000000E+00 -0.20304747633E+03  0.20304747633E+03  0.00000000000E+00 0. -1.
         -6    2    1    2    0  503 -0.44302952786E+02  0.16356885512E+03  0.49390813371E+02  0.24688893142E+03  0.17261856801E+03 0.  0.
        -24    2    3    3    0    0  0.20810706254E+02  0.22518289737E+02  0.95981805617E+01  0.86450176080E+02  0.80258015218E+02 0.  0.
          6    2    1    2  501    0  0.44302952786E+02 -0.16356885512E+03  0.35224810196E+02  0.24382164482E+03  0.17172852191E+03 0.  0.
         24    2    5    5    0    0  0.39067062664E+02 -0.63296405109E+02  0.77666591005E+02  0.13470989690E+03  0.81129443971E+02 0.  0.
          5    1    5    5  501    0  0.52358901219E+01 -0.10027245001E+03 -0.42441780809E+02  0.10911174792E+03  0.47000000000E+01 0. -1.
        -13    1    6    6    0    0  0.20553848597E+02 -0.78505279815E+02  0.75177101201E+02  0.11062159010E+03  0.00000000000E+00 0.  1.
         14    1    6    6    0    0  0.18513214067E+02  0.15208874707E+02  0.24894898037E+01  0.24088306799E+02  0.00000000000E+00 0. -1.
         -5    1    3    3    0  503 -0.65113659040E+02  0.14105056538E+03  0.39792632809E+02  0.16043875534E+03  0.47000000000E+01 0.  1.
         13    1    4    4    0    0  0.90351386791E+01 -0.18679544400E+02  0.31970071443E+02  0.38113574721E+02  0.00000000000E+00 0. -1.
        -14    1    4    4    0    0  0.11775567575E+02  0.41197834137E+02 -0.22371890881E+02  0.48336601359E+02  0.00000000000E+00 0.  1.
</event>
<event>
12    1  0.1630640E-001  0.2947831E+03  0.7818608E-02  0.1087975E+00
         21   -1    0    0  501  502  0.00000000000E+00  0.00000000000E+00  0.11720667933E+04  0.11720667933E+04  0.00000000000E+00 0.  1.
         21   -1    0    0  502  503 -0.00000000000E+00 -0.00000000000E+00 -0.76439904986E+02  0.76439904986E+02  0.00000000000E+00 0. -1.
         -6    2    1    2    0  503 -0.19690097780E+02 -0.23759017626E+03  0.65982335865E+03  0.72236814348E+03  0.17208160357E+03 0.  0.
        -24    2    3    3    0    0 -0.35456186245E+02 -0.18792152806E+03  0.33744256138E+03  0.39576898150E+03  0.78701732092E+02 0.  0.
          6    2    1    2  501    0  0.19690097780E+02  0.23759017626E+03  0.43580352962E+03  0.52613855476E+03  0.17337897960E+03 0.  0.
         24    2    5    5    0    0  0.32539906328E+02  0.14893621289E+03  0.15550649571E+03  0.23183741643E+03  0.79532863875E+02 0.  0.
          5    1    5    5  501    0 -0.12849808548E+02  0.88653963371E+02  0.28029703391E+03  0.29430113833E+03  0.47000000000E+01 0. -1.
        -13    1    6    6    0    0 -0.18720431684E+02  0.42972664255E+02  0.16512530892E+02  0.49696761586E+02  0.00000000000E+00 0.  1.
         14    1    6    6    0    0  0.51260338012E+02  0.10596354864E+03  0.13899396482E+03  0.18214065485E+03  0.00000000000E+00 0. -1.
         -5    1    3    3    0  503  0.15766088464E+02 -0.49668648203E+02  0.32238079726E+03  0.32659916197E+03  0.47000000000E+01 0.  1.
         13    1    4    4    0    0  0.17967972320E+02 -0.11071889075E+02  0.47413099181E+02  0.51898330714E+02  0.00000000000E+00 0. -1.
        -14    1    4    4    0    0 -0.53424158564E+02 -0.17684963899E+03  0.29002946220E+03  0.34387065079E+03  0.00000000000E+00 0.  1.
</event>
<event>
12    1  0.1630640E-001  0.2212276E+03  0.7818608E-02  0.1133602E+00
         21   -1    0    0  501  502  0.00000000000E+00  0.00000000000E+00  0.68163256791E+02  0.68163256791E+02  0.00000000000E+00 0.  1.
         21   -1    0    0  502  503 -0.00000000000E+00 -0.00000000000E+00 -0.16024582274E+04  0.16024582274E+04  0.00000000000E+00 0.  1.
         -6    2    1    2    0  503 -0.81586400281E+02  0.10985496590E+03 -0.13889276007E+04  0.14059078530E+04  0.16950680467E+03 0.  0.
        -24    2    3    3    0    0 -0.22925840777E+02  0.97843385245E+02 -0.12196679239E+04  0.12263075537E+04  0.78367400458E+02 0.  0.
          6    2    1    2  501    0  0.81586400281E+02 -0.10985496590E+03 -0.14536736988E+03  0.26471363119E+03  0.17383089503E+03 0.  0.
         24    2    5    5    0    0  0.28058990668E+02 -0.61470733370E+02 -0.20743701857E+01  0.10421069882E+03  0.79307053395E+02 0.  0.
          5    1    5    5  501    0  0.53527409613E+02 -0.48384232532E+02 -0.14329299970E+03  0.16050293237E+03  0.47000000000E+01 0. -1.
        -11    1    6    6    0    0  0.43923499308E+02 -0.65350606370E+02  0.15465552449E+02  0.80244369628E+02  0.00000000000E+00 0.  1.
         12    1    6    6    0    0 -0.15864508640E+02  0.38798730001E+01 -0.17539922634E+02  0.23966329191E+02  0.00000000000E+00 0. -1.
         -5    1    3    3    0  503 -0.58660559504E+02  0.12011580657E+02 -0.16925967686E+03  0.17960029933E+03  0.47000000000E+01 0.  1.
         13    1    4    4    0    0  0.72389454097E+01  0.54489208850E+02 -0.29144979502E+03  0.29658802948E+03  0.00000000000E+00 0. -1.
        -14    1    4    4    0    0 -0.30164786187E+02  0.43354176396E+02 -0.92821812887E+03  0.92971952421E+03  0.00000000000E+00 0.  1.
</event>
<event>
12    1  0.1630640E-001  0.2619319E+03  0.7818608E-02  0.1106589E+00
         21   -1    0    0  501  502  0.00000000000E+00  0.00000000000E+00  0.41789448097E+03  0.41789448097E+03  0.00000000000E+00 0.  1.
         21   -1    0    0  502  503 -0.00000000000E+00 -0.00000000000E+00 -0.66627737457E+03  0.66627737457E+03  0.00000000000E+00 0. -1.
         -6    2    1    2    0  503 -0.39753902332E+02 -0.19369843578E+03 -0.59570890882E+03  0.64915040864E+03  0.16561307985E+03 0.  0.
        -24    2    3    3    0    0 -0.53248734734E+01 -0.17060462267E+03 -0.32956335351E+03  0.37975436405E+03  0.80418166372E+02 0.  0.
          6    2    1    2  501    0  0.39753902332E+02  0.19369843578E+03  0.34732601522E+03  0.43502144690E+03  0.17178137745E+03 0.  0.
         24    2    5    5    0    0  0.26196263382E+02  0.19223161041E+03  0.20949854003E+03  0.29644127491E+03  0.79677819634E+02 0.  0.
          5    1    5    5  501    0  0.13557638950E+02  0.14668253740E+01  0.13782747519E+03  0.13858017198E+03  0.47000000000E+01 0. -1.
        -11    1    6    6    0    0  0.43336518758E+02  0.52575072419E+02  0.55828276714E+02  0.88085121211E+02  0.00000000000E+00 0.  1.
         12    1    6    6    0    0 -0.17140255376E+02  0.13965653799E+03  0.15367026332E+03  0.20835615370E+03  0.00000000000E+00 0. -1.
         -5    1    3    3    0  503 -0.34429028858E+02 -0.23093813116E+02 -0.26614555531E+03  0.26939604460E+03  0.47000000000E+01 0.  1.
         13    1    4    4    0    0 -0.32072548562E+02 -0.13497350711E+03 -0.28375104385E+03  0.31584988662E+03  0.00000000000E+00 0. -1.
        -14    1    4    4    0    0  0.26747675088E+02 -0.35631115556E+02 -0.45812309656E+02  0.63904477421E+02  0.00000000000E+00 0.  1.
</event>
<event>
12    1  0.1630640E-001  0.2408702E+03  0.7818608E-02  0.1120255E+00
         21   -1    0    0  501  502  0.00000000000E+00  0.00000000000E+00  0.86492122482E+02  0.86492122482E+02  0.00000000000E+00 0.  1.
         21   -1    0    0  502  503 -0.00000000000E+00 -0.00000000000E+00 -0.91995803909E+03  0.91995803909E+03  0.00000000000E+00 0. -1.
         -6    2    1    2    0  503 -0.16443686981E+03 -0.36488982317E+02 -0.68360495279E+03  0.72276588877E+03  0.16341318341E+03 0.  0.
        -24    2    3    3    0    0 -0.60947761624E+02  0.17451141049E+02 -0.44455534204E+03  0.45670886703E+03  0.83272835385E+02 0.  0.
          6    2    1    2  501    0  0.16443686981E+03  0.36488982317E+02 -0.14986096382E+03  0.28368427280E+03  0.17218457589E+03 0.  0.
         24    2    5    5    0    0  0.99579388464E+02 -0.21221089125E+02 -0.14481336059E+03  0.19659516022E+03  0.85512328849E+02 0.  0.
          5    1    5    5  501    0  0.64857481344E+02  0.57710071442E+02 -0.50476032301E+01  0.87089112583E+02  0.47000000000E+01 0. -1.
        -13    1    6    6    0    0 -0.11029494725E+02 -0.96488396863E+01 -0.44408748960E+02  0.46764161977E+02  0.00000000000E+00 0.  1.
         14    1    6    6    0    0  0.11060888319E+03 -0.11572249438E+02 -0.10040461163E+03  0.14983099824E+03  0.00000000000E+00 0. -1.
         -5    1    3    3    0  503 -0.10348910818E+03 -0.53940123366E+02 -0.23904961074E+03  0.26605702174E+03  0.47000000000E+01 0.  1.
         11    1    4    4    0    0 -0.61076242325E+02 -0.15758966409E+02 -0.36640655437E+03  0.37179620155E+03  0.00000000000E+00 0. -1.
        -12    1    4    4    0    0  0.12848070114E+00  0.33210107458E+02 -0.78148787673E+02  0.84912665483E+02  0.00000000000E+00 0.  1.
</event>
<event>
12    1  0.1630640E-001  0.1817046E+03  0.7818608E-02  0.1167644E+00
         21   -1    0    0  501  502  0.00000000000E+00  0.00000000000E+00  0.43634923327E+02  0.43634923327E+02  0.00000000000E+00 0.  1.
         21   -1    0    0  502  503 -0.00000000000E+00 -0.00000000000E+00 -0.77540705399E+03  0.77540705399E+03  0.00000000000E+00 0.  1.
         -6    2    1    2    0  503  0.13687006184E+02  0.34812660063E+02 -0.46915400633E+03  0.50311236983E+03  0.17781259682E+03 0.  0.
        -24    2    3    3    0    0  0.14516166091E+02  0.15504314028E+02 -0.47529950958E+03  0.48229514276E+03  0.79043520274E+02 0.  0.
          6    2    1    2  501    0 -0.13687006184E+02 -0.34812660063E+02 -0.26261812433E+03  0.31592960748E+03  0.17159248881E+03 0.  0.
         24    2    5    5    0    0  0.63958992104E+01  0.35118882045E+02 -0.77284577383E+02  0.11677048192E+03  0.79926191845E+02 0.  0.
          5    1    5    5  501    0 -0.20082905395E+02 -0.69931542107E+02 -0.18533354695E+03  0.19915912557E+03  0.47000000000E+01 0. -1.
        -13    1    6    6    0    0 -0.17254986677E+02 -0.11098543146E+02 -0.57773089071E+02  0.61307764973E+02  0.00000000000E+00 0.  1.
         14    1    6    6    0    0  0.23650885888E+02  0.46217425190E+02 -0.19511488312E+02  0.55462716942E+02  0.00000000000E+00 0. -1.
         -5    1    3    3    0  503 -0.82915990683E+00  0.19308346035E+02  0.61455032495E+01  0.20817227071E+02  0.47000000000E+01 0.  1.
         11    1    4    4    0    0 -0.31203776231E+02 -0.20255475530E+01 -0.14077595814E+03  0.14420696545E+03  0.00000000000E+00 0. -1.
        -12    1    4    4    0    0  0.45719942322E+02  0.17529861581E+02 -0.33452355144E+03  0.33808817731E+03  0.00000000000E+00 0.  1.
</event>
<event>
12    1  0.1630640E-001  0.1882055E+03  0.7818608E-02  0.1160116E+00
         21   -1    0    0  501  502  0.00000000000E+00  0.00000000000E+00  0.58518377868E+02  0.58518377868E+02  0.00000000000E+00 0.  1.
         21   -1    0    0  502  503 -0.00000000000E+00 -0.00000000000E+00 -0.73824919013E+03  0.73824919013E+03  0.00000000000E+00 0.  1.
         -6    2    1    2    0  503  0.32601613045E+02  0.70128284669E+02 -0.17065976435E+03  0.25405916660E+03  0.17158223533E+03 0.  0.
        -24    2    3    3    0    0 -0.44875350722E+02  0.20766172658E+02 -0.69209304624E+02  0.11711544168E+03  0.80505079369E+02 0.  0.
          6    2    1    2  501    0 -0.32601613045E+02 -0.70128284669E+02 -0.50907104791E+03  0.54270840140E+03  0.17145913694E+03 0.  0.
         24    2    5    5    0    0 -0.74955621780E+02 -0.76090152639E+02 -0.28303486514E+03  0.31261309104E+03  0.78804525502E+02 0.  0.
          5    1    5    5  501    0  0.42354008735E+02  0.59618679698E+01 -0.22603618277E+03  0.23009531035E+03  0.47000000000E+01 0. -1.
        -13    1    6    6    0    0 -0.20062758428E+02 -0.72013813320E+02 -0.12975324518E+03  0.14974781541E+03  0.00000000000E+00 0.  1.
         14    1    6    6    0    0 -0.54892863352E+02 -0.40763393185E+01 -0.15328161996E+03  0.16286527563E+03  0.00000000000E+00 0. -1.
         -5    1    3    3    0  503  0.77476963767E+02  0.49362112011E+02 -0.10145045972E+03  0.13694372492E+03  0.47000000000E+01 0.  1.
         11    1    4    4    0    0  0.21553693704E+02 -0.60167469167E+01 -0.21663796939E+02  0.31146156320E+02  0.00000000000E+00 0. -1.
        -12    1    4    4    0    0 -0.66429044426E+02  0.26782919574E+02 -0.47545507685E+02  0.85969285360E+02  0.00000000000E+00 0.  1.
</event>
<event>
12    1  0.1630640E-001  0.1920589E+03  0.7818608E-02  0.1156997E+00
         21   -1    0    0  503  502  0.00000000000E+00  0.00000000000E+00  0.30748156762E+03  0.30748156762E+03  0.00000000000E+00 0.  1.
         21   -1    0    0  501  503 -0.00000000000E+00 -0.00000000000E+00 -0.21791237658E+03  0.21791237658E+03  0.00000000000E+00 0.  1.
          6    2    1    2  501    0  0.68329255026E+02 -0.47172536138E+02 -0.13239502796E+03  0.23187270140E+03  0.17129614988E+03 0.  0.
         24    2    3    3    0    0  0.81047857706E+02 -0.13142683790E+02 -0.15277334967E+03  0.18995421263E+03  0.77468839863E+02 0.  0.
         -6    2    1    2    0  502 -0.68329255026E+02  0.47172536138E+02  0.22196421901E+03  0.29352124281E+03  0.17318334273E+03 0.  0.
        -24    2    5    5    0    0 -0.35765630957E+02  0.86476318336E+02  0.19763214900E+03  0.23678222150E+03  0.90829621322E+02 0.  0.
          5    1    3    3  501    0 -0.12718602680E+02 -0.34029852348E+02  0.20378321707E+02  0.41918488768E+02  0.47000000000E+01 0. -1.
        -13    1    4    4    0    0  0.42492014214E+02  0.27293345526E+02 -0.10471565001E+03  0.11625775389E+03  0.00000000000E+00 0.  1.
         14    1    4    4    0    0  0.38555843492E+02 -0.40436029316E+02 -0.48057699661E+02  0.73696458741E+02  0.00000000000E+00 0. -1.
         -5    1    5    5    0  502 -0.32563624069E+02 -0.39303782197E+02  0.24332070007E+02  0.56739021302E+02  0.47000000000E+01 0.  1.
         13    1    6    6    0    0 -0.45359492536E+02  0.44485455411E+02  0.44140809006E+02  0.77361814391E+02  0.00000000000E+00 0. -1.
        -14    1    6    6    0    0  0.95938615797E+01  0.41990862925E+02  0.15349134000E+03  0.15942040711E+03  0.00000000000E+00 0.  1.
</event>
<event>
12    1  0.1630640E-001  0.1824915E+03  0.7818608E-02  0.1165651E+00
         21   -1    0    0  501  502  0.00000000000E+00  0.00000000000E+00  0.30868389008E+02  0.30868389008E+02  0.00000000000E+00 0.  1.
         21   -1    0    0  502  503 -0.00000000000E+00 -0.00000000000E+00 -0.18135637524E+04  0.18135637524E+04  0.00000000000E+00 0.  1.
         -6    2    1    2    0  503  0.49232089407E+02 -0.38252856916E+02 -0.14792196679E+04  0.14903126024E+04  0.17045159831E+03 0.  0.
        -24    2    3    3    0    0 -0.33945107598E+02 -0.45476244137E+02 -0.79408342027E+03  0.80009206431E+03  0.79740039583E+02 0.  0.
          6    2    1    2  501    0 -0.49232089407E+02  0.38252856916E+02 -0.30347569545E+03  0.35411953894E+03  0.17151113795E+03 0.  0.
         24    2    5    5    0    0  0.17275808265E+02  0.39920430168E+02 -0.86944698770E+02  0.12754980624E+03  0.82568021235E+02 0.  0.
          5    1    5    5  501    0 -0.66507897672E+02 -0.16675732522E+01 -0.21653099668E+03  0.22656973270E+03  0.47000000000E+01 0. -1.
        -11    1    6    6    0    0  0.47470336845E+01  0.37172175780E+01  0.16325213363E+02  0.17403006254E+02  0.00000000000E+00 0.  1.
         12    1    6    6    0    0  0.12528774581E+02  0.36203212591E+02 -0.10326991213E+03  0.11014679998E+03  0.00000000000E+00 0. -1.
         -5    1    3    3    0  503  0.83177197005E+02  0.72233872203E+01 -0.68513624764E+03  0.69022053813E+03  0.47000000000E+01 0.  1.
         11    1    4    4    0    0 -0.40580370550E+02 -0.63094794747E+02 -0.70860518206E+03  0.71256510134E+03  0.00000000000E+00 0. -1.
        -12    1    4    4    0    0  0.66352629525E+01  0.17618550611E+02 -0.85478238209E+02  0.87526962974E+02  0.00000000000E+00 0.  1.
</event>
<event>
12    1  0.1630640E-001  0.2994229E+03  0.7818608E-02  0.1085566E+00
         21   -1    0    0  501  502  0.00000000000E+00  0.00000000000E+00  0.47371144748E+03  0.47371144748E+03  0.00000000000E+00 0.  1.
         21   -1    0    0  502  503 -0.00000000000E+00 -0.00000000000E+00 -0.22145121815E+03  0.22145121815E+03  0.00000000000E+00 0.  1.
         -6    2    1    2    0  503 -0.11674117086E+03 -0.21514841861E+03  0.25908564559E+03  0.39595384126E+03  0.17244341000E+03 0.  0.
        -24    2    3    3    0    0 -0.97119535061E+02 -0.75302138456E+02  0.76949391478E+02  0.16543769057E+03  0.79660557786E+02 0.  0.
          6    2    1    2  501    0  0.11674117086E+03  0.21514841861E+03 -0.68254162620E+01  0.29920882437E+03  0.17193600923E+03 0.  0.
         24    2    5    5    0    0  0.12991890306E+03  0.12006594156E+03  0.29932812378E+02  0.19631282133E+03  0.79674330043E+02 0.  0.
          5    1    5    5  501    0 -0.13177732204E+02  0.95082477056E+02 -0.36758228640E+02  0.10289600304E+03  0.47000000000E+01 0. -1.
        -11    1    6    6    0    0  0.84801667869E+02  0.91141124864E+02 -0.16274533257E+02  0.12555034029E+03  0.00000000000E+00 0.  1.
         12    1    6    6    0    0  0.45117235193E+02  0.28924816692E+02  0.46207345636E+02  0.70762481039E+02  0.00000000000E+00 0. -1.
         -5    1    3    3    0  503 -0.19621635797E+02 -0.13984628016E+03  0.18213625411E+03  0.23051615069E+03  0.47000000000E+01 0.  1.
         11    1    4    4    0    0 -0.89086810667E+02 -0.39706773466E+02  0.83462091556E+02  0.12837059017E+03  0.00000000000E+00 0. -1.
        -12    1    4    4    0    0 -0.80327243940E+01 -0.35595364990E+02 -0.65127000775E+01  0.37067100402E+02  0.00000000000E+00 0.  1.
</event>
<event>
12    1  0.1630640E-001  0.2137991E+03  0.7818608E-02  0.1138822E+00
         21   -1    0    0  501  502  0.00000000000E+00  0.00000000000E+00  0.30264822561E+03  0.30264822561E+03  0.00000000000E+00 0. -1.
         21   -1    0    0  502  503 -0.00000000000E+00 -0.00000000000E+00 -0.23207860666E+03  0.23207860666E+03  0.00000000000E+00 0. -1.
         -6    2    1    2    0  503 -0.15735856440E+02  0.12477469176E+03 -0.12346083755E+03  0.24688586812E+03  0.17289798318E+03 0.  0.
        -24    2    3    3    0    0 -0.28502892521E+02  0.13822746411E+03 -0.14546012319E+03  0.21773054505E+03  0.79553102354E+02 0.  0.
          6    2    1    2  501    0  0.15735856440E+02 -0.12477469176E+03  0.19403045650E+03  0.28784096415E+03  0.17143004904E+03 0.  0.
         24    2    5    5    0    0  0.45726574308E+01 -0.42702781077E+01  0.66505308798E+02  0.11196974986E+03  0.89861695474E+02 0.  0.
          5    1    5    5  501    0  0.11163199010E+02 -0.12050441365E+03  0.12752514770E+03  0.17587121430E+03  0.47000000000E+01 0. -1.
        -11    1    6    6    0    0  0.19426520107E+02 -0.25060263487E+02 -0.84203651358E+01  0.32807149198E+02  0.00000000000E+00 0.  1.
         12    1    6    6    0    0 -0.14853862676E+02  0.20789985379E+02  0.74925673934E+02  0.79162600658E+02  0.00000000000E+00 0. -1.
         -5    1    3    3    0  503  0.12767036081E+02 -0.13452772356E+02  0.21999285638E+02  0.29155323064E+02  0.47000000000E+01 0.  1.
         13    1    4    4    0    0  0.20275484981E+01  0.13049963116E+03 -0.11774811895E+03  0.17578078451E+03  0.00000000000E+00 0. -1.
        -14    1    4    4    0    0 -0.30530441020E+02  0.77278329533E+01 -0.27712004237E+02  0.41949760545E+02  0.00000000000E+00 0.  1.
</event>
<event>
12    1  0.1630640E-001  0.2198836E+03  0.7818608E-02  0.1134113E+00
         21   -1    0    0  501  502  0.00000000000E+00  0.00000000000E+00  0.11417096681E+04  0.11417096681E+04  0.00000000000E+00 0.  1.
         21   -1    0    0  502  503 -0.00000000000E+00 -0.00000000000E+00 -0.65121451368E+02  0.65121451368E+02  0.00000000000E+00 0. -1.
         -6    2    1    2    0  503  0.11133829121E+03  0.78312659785E+02  0.18091331619E+03  0.28474275049E+03  0.17268386782E+03 0.  0.
        -24    2    3    3    0    0  0.85261840020E+02  0.10710334498E+03  0.18461140670E+03  0.24544070558E+03  0.86133968913E+02 0.  0.
          6    2    1    2  501    0 -0.11133829121E+03 -0.78312659785E+02  0.89567490055E+03  0.92208836899E+03  0.17171006081E+03 0.  0.
         24    2    5    5    0    0 -0.41772126815E+02 -0.76655544656E+02  0.76399835368E+03  0.77308165688E+03  0.79629019031E+02 0.  0.
          5    1    5    5  501    0 -0.69566164395E+02 -0.16571151288E+01  0.13167654687E+03  0.14900671211E+03  0.47000000000E+01 0. -1.
        -13    1    6    6    0    0 -0.64796756925E+02 -0.52419758652E+02  0.48798781731E+03  0.49505409871E+03  0.00000000000E+00 0.  1.
         14    1    6    6    0    0  0.23024630110E+02 -0.24235786004E+02  0.27601053636E+03  0.27802755816E+03  0.00000000000E+00 0. -1.
         -5    1    3    3    0  503  0.26076451190E+02 -0.28790685196E+02 -0.36980905061E+01  0.39302044910E+02  0.47000000000E+01 0.  1.
         13    1    4    4    0    0  0.76362835398E+02  0.10954440432E+03  0.11802095507E+03  0.17821393039E+03  0.00000000000E+00 0. -1.
        -14    1    4    4    0    0  0.88990046224E+01 -0.24410593435E+01  0.66590451631E+02  0.67226775189E+02  0.00000000000E+00 0.  1.
</event>
<event>
12    1  0.1630640E-001  0.2404950E+03  0.7818608E-02  0.1119483E+00
         21   -1    0    0  501  502  0.00000000000E+00  0.00000000000E+00  0.26113082054E+03  0.26113082054E+03  0.00000000000E+00 0.  1.
         21   -1    0    0  502  503 -0.00000000000E+00 -0.00000000000E+00 -0.26843921728E+03  0.26843921728E+03  0.00000000000E+00 0. -1.
         -6    2    1    2    0  503 -0.16151049942E+03 -0.43897604630E+02 -0.11451978183E+03  0.26636931236E+03  0.17269970764E+03 0.  0.
        -24    2    3    3    0    0 -0.82829381985E+02  0.27098104042E+02 -0.11589296292E+02  0.11855901588E+03  0.79541905283E+02 0.  0.
          6    2    1    2  501    0  0.16151049942E+03  0.43897604630E+02  0.10721138510E+03  0.26320072546E+03  0.17253318426E+03 0.  0.
         24    2    5    5    0    0  0.13149709927E+03  0.35504747924E+02  0.14439896014E+03  0.21445393100E+03  0.81162519613E+02 0.  0.
          5    1    5    5  501    0  0.30013400157E+02  0.83928567060E+01 -0.37187575041E+02  0.48746794460E+02  0.47000000000E+01 0. -1.
        -11    1    6    6    0    0  0.99948314149E+02 -0.12124303959E+02  0.10190791067E+03  0.14325462124E+03  0.00000000000E+00 0.  1.
         12    1    6    6    0    0  0.31548785118E+02  0.47629051883E+02  0.42491049466E+02  0.71199309760E+02  0.00000000000E+00 0. -1.
         -5    1    3    3    0  503 -0.78681117440E+02 -0.70995708672E+02 -0.10293048554E+03  0.14781029648E+03  0.47000000000E+01 0.  1.
         11    1    4    4    0    0 -0.24474470152E+02  0.14540569475E+02 -0.42644012673E+02  0.51273186626E+02  0.00000000000E+00 0. -1.
        -12    1    4    4    0    0 -0.58354911832E+02  0.12557534567E+02  0.31054716381E+02  0.67285829258E+02  0.00000000000E+00 0.  1.
</event>
<event>
12    1  0.1630640E-001  0.1779253E+03  0.7818608E-02  0.1169847E+00
         21   -1    0    0  501  502  0.00000000000E+00  0.00000000000E+00  0.14251713922E+03  0.14251713922E+03  0.00000000000E+00 0. -1.
         21   -1    0    0  502  503 -0.00000000000E+00 -0.00000000000E+00 -0.27208077618E+03  0.27208077618E+03  0.00000000000E+00 0. -1.
         -6    2    1    2    0  503  0.21716242800E+02 -0.38869029705E+02 -0.15368386339E+03  0.23504518487E+03  0.17217756066E+03 0.  0.
        -24    2    3    3    0    0 -0.25938540446E+02  0.24986703360E+02 -0.11538673077E+03  0.14651669580E+03  0.82800370066E+02 0.  0.
          6    2    1    2  501    0 -0.21716242800E+02  0.38869029705E+02  0.24120226429E+02  0.17955273053E+03  0.17226433480E+03 0.  0.
         24    2    5    5    0    0  0.40133936629E+01 -0.41508858586E+02 -0.46692511630E+01  0.90258032260E+02  0.79910060763E+02 0.  0.
          5    1    5    5  501    0 -0.25729636463E+02  0.80377888291E+02  0.28789477592E+02  0.89294698267E+02  0.47000000000E+01 0. -1.
        -13    1    6    6    0    0 -0.17559499336E+02 -0.21578111721E+01 -0.32818801280E+02  0.37283587320E+02  0.00000000000E+00 0.  1.
         14    1    6    6    0    0  0.21572892999E+02 -0.39351047414E+02  0.28149550117E+02  0.52974444940E+02  0.00000000000E+00 0. -1.
         -5    1    3    3    0  503  0.47654783246E+02 -0.63855733065E+02 -0.38297132615E+02  0.88528489076E+02  0.47000000000E+01 0.  1.
         11    1    4    4    0    0  0.50060382898E+01 -0.12257859708E+02  0.69439458474E+01  0.14951051064E+02  0.00000000000E+00 0. -1.
        -12    1    4    4    0    0 -0.30944578736E+02  0.37244563068E+02 -0.12233067662E+03  0.13156564473E+03  0.00000000000E+00 0.  1.
</event>
<event>
12    1  0.1630640E-001  0.1833759E+03  0.7818608E-02  0.1164984E+00
         21   -1    0    0  503  502  0.00000000000E+00  0.00000000000E+00  0.10913898841E+03  0.10913898841E+03  0.00000000000E+00 0. -1.
         21   -1    0    0  501  503 -0.00000000000E+00 -0.00000000000E+00 -0.60119035952E+03  0.60119035952E+03  0.00000000000E+00 0. -1.
          6    2    1    2  501    0 -0.38388175124E+02  0.46965121306E+02 -0.49463457939E+03  0.52693527275E+03  0.17122511476E+03 0.  0.
         24    2    3    3    0    0 -0.98986608556E+01 -0.39191477609E+02 -0.22548975562E+03  0.24286549589E+03  0.80647776160E+02 0.  0.
         -6    2    1    2    0  502  0.38388175124E+02 -0.46965121306E+02  0.25832082760E+01  0.18339407518E+03  0.17305299546E+03 0.  0.
        -24    2    5    5    0    0 -0.85280930332E+01 -0.77730245667E+02  0.36485866211E+02  0.11767414434E+03  0.80007914303E+02 0.  0.
          5    1    3    3  501    0 -0.28489514268E+02  0.86156598915E+02 -0.26914482378E+03  0.28406977686E+03  0.47000000000E+01 0. -1.
        -11    1    4    4    0    0 -0.38175208425E+02 -0.37399115982E+02 -0.91944503087E+02  0.10634769420E+03  0.00000000000E+00 0.  1.
         12    1    4    4    0    0  0.28276547570E+02 -0.17923616268E+01 -0.13354525253E+03  0.13651780168E+03  0.00000000000E+00 0. -1.
         -5    1    5    5    0  502  0.46916268157E+02  0.30765124361E+02 -0.33902657935E+02  0.65719930841E+02  0.47000000000E+01 0.  1.
         13    1    6    6    0    0 -0.41902384158E+02 -0.44871904937E+02  0.57694248572E+01  0.61665094778E+02  0.00000000000E+00 0. -1.
        -14    1    6    6    0    0  0.33374291124E+02 -0.32858340730E+02  0.30716441354E+02  0.56009049564E+02  0.00000000000E+00 0.  1.
</event>
<event>
12    1  0.1630640E-001  0.1928111E+03  0.7818608E-02  0.1156001E+00
         21   -1    0    0  503  502  0.00000000000E+00  0.00000000000E+00  0.22492678449E+02  0.22492678449E+02  0.00000000000E+00 0.  1.
         21   -1    0    0  501  503 -0.00000000000E+00 -0.00000000000E+00 -0.19749038455E+04  0.19749038455E+04  0.00000000000E+00 0.  1.
          6    2    1    2  501    0  0.76119522269E+02 -0.37600513380E+02 -0.13812579546E+04  0.13946503662E+04  0.17311304553E+03 0.  0.
         24    2    3    3    0    0  0.12213432670E+02  0.33307820364E+02 -0.45547066716E+03  0.46394301603E+03  0.80814693251E+02 0.  0.
         -6    2    1    2    0  502 -0.76119522269E+02  0.37600513380E+02 -0.57115321241E+03  0.60274615770E+03  0.17285531031E+03 0.  0.
        -24    2    5    5    0    0 -0.10184082202E+03 -0.10794760402E+02 -0.45958356829E+03  0.47835337948E+03  0.84361244264E+02 0.  0.
          5    1    3    3  501    0  0.63906089598E+02 -0.70908333744E+02 -0.92578728748E+03  0.93070735021E+03  0.47000000000E+01 0. -1.
        -13    1    4    4    0    0 -0.25444130820E+02 -0.12449291740E+02 -0.12177006976E+03  0.12502135237E+03  0.00000000000E+00 0.  1.
         14    1    4    4    0    0  0.37657563490E+02  0.45757112104E+02 -0.33370059740E+03  0.33892166367E+03  0.00000000000E+00 0. -1.
         -5    1    5    5    0  502  0.25721299755E+02  0.48395273782E+02 -0.11156964412E+03  0.12439277823E+03  0.47000000000E+01 0.  1.
         13    1    6    6    0    0 -0.22101078364E+02 -0.32448989437E+02 -0.25010378245E+03  0.25316653921E+03  0.00000000000E+00 0. -1.
        -14    1    6    6    0    0 -0.79739743660E+02  0.21654229036E+02 -0.20947978584E+03  0.22518684027E+03  0.00000000000E+00 0.  1.
</event>
<event>
12    1  0.1630640E-001  0.1754781E+03  0.7818608E-02  0.1172395E+00
         21   -1    0    0  501  502  0.00000000000E+00  0.00000000000E+00  0.27006363923E+03  0.27006363923E+03  0.00000000000E+00 0. -1.
         21   -1    0    0  502  503 -0.00000000000E+00 -0.00000000000E+00 -0.11376545536E+03  0.11376545536E+03  0.00000000000E+00 0. -1.
         -6    2    1    2    0  503  0.31367402579E+02  0.13298417674E+02  0.71916860471E+02  0.18911702817E+03  0.17155889270E+03 0.  0.
        -24    2    3    3    0    0 -0.37285727868E+02  0.10590200672E+01  0.79215535833E+02  0.11884316506E+03  0.80357014242E+02 0.  0.
          6    2    1    2  501    0 -0.31367402579E+02 -0.13298417674E+02  0.84381323401E+02  0.19471206643E+03  0.17213895322E+03 0.  0.
         24    2    5    5    0    0 -0.20948950475E+02 -0.68469866337E+02  0.87456471695E+02  0.13828530479E+03  0.79669379041E+02 0.  0.
          5    1    5    5  501    0 -0.10418452104E+02  0.55171448663E+02 -0.30751482945E+01  0.56426761637E+02  0.47000000000E+01 0. -1.
        -11    1    6    6    0    0 -0.50152987670E+02 -0.55069424020E+02  0.67073751758E+02  0.10023398530E+03  0.00000000000E+00 0.  1.
         12    1    6    6    0    0  0.29204037195E+02 -0.13400442316E+02  0.20382719938E+02  0.38051319489E+02  0.00000000000E+00 0. -1.
         -5    1    3    3    0  503  0.68653130447E+02  0.12239397607E+02 -0.72986753627E+01  0.70273863107E+02  0.47000000000E+01 0.  1.
         13    1    4    4    0    0  0.23281894461E+02 -0.10134461715E+02  0.13433438680E+02  0.28726489495E+02  0.00000000000E+00 0. -1.
        -14    1    4    4    0    0 -0.60567622329E+02  0.11193481782E+02  0.65782097153E+02  0.90116675565E+02  0.00000000000E+00 0.  1.
</event>
<event>
12    1  0.1630640E-001  0.1948299E+03  0.7818608E-02  0.1155636E+00
         21   -1    0    0  501  502  0.00000000000E+00  0.00000000000E+00  0.41445822794E+03  0.41445822794E+03  0.00000000000E+00 0. -1.
         21   -1    0    0  502  503 -0.00000000000E+00 -0.00000000000E+00 -0.10072383953E+03  0.10072383953E+03  0.00000000000E+00 0.  1.
         -6    2    1    2    0  503 -0.81708149911E+02  0.39950517422E+02  0.64872107417E+02  0.19912648105E+03  0.16483537100E+03 0.  0.
        -24    2    3    3    0    0 -0.52964675368E+02 -0.38603024398E+02  0.31784492181E+02  0.10905025476E+03  0.81155737876E+02 0.  0.
          6    2    1    2  501    0  0.81708149911E+02 -0.39950517422E+02  0.24886228099E+03  0.31605558641E+03  0.17229751361E+03 0.  0.
         24    2    5    5    0    0  0.11926825987E+03 -0.76469771371E+01  0.19122926956E+03  0.23991141669E+03  0.81886874720E+02 0.  0.
          5    1    5    5  501    0 -0.37560109961E+02 -0.32303540285E+02  0.57633011432E+02  0.76144169718E+02  0.47000000000E+01 0. -1.
        -11    1    6    6    0    0  0.11279309994E+03 -0.33842639927E+02  0.15150544839E+03  0.19188931331E+03  0.00000000000E+00 0.  1.
         12    1    6    6    0    0  0.64751599369E+01  0.26195662790E+02  0.39723821173E+02  0.48022103388E+02  0.00000000000E+00 0. -1.
         -5    1    3    3    0  503 -0.28743474543E+02  0.78553541819E+02  0.33087615237E+02  0.90076226293E+02  0.47000000000E+01 0.  1.
         13    1    4    4    0    0 -0.57814515654E+01  0.24548338042E+02  0.44179466934E+01  0.25603990622E+02  0.00000000000E+00 0. -1.
        -14    1    4    4    0    0 -0.47183223803E+02 -0.63151362439E+02  0.27366545487E+02  0.83446264136E+02  0.00000000000E+00 0.  1.
</event>
<event>
12    1  0.1630640E-001  0.1811617E+03  0.7818608E-02  0.1167545E+00
         21   -1    0    0  501  502  0.00000000000E+00  0.00000000000E+00  0.40450383388E+03  0.40450383388E+03  0.00000000000E+00 0.  1.
         21   -1    0    0  502  503 -0.00000000000E+00 -0.00000000000E+00 -0.11218199840E+03  0.11218199840E+03  0.00000000000E+00 0.  1.
         -6    2    1    2    0  503 -0.42890988874E+02  0.31160887423E+01  0.78620397040E+01  0.18133223024E+03  0.17598357628E+03 0.  0.
        -24    2    3    3    0    0 -0.43295561915E+01 -0.63362391978E+02 -0.68148997778E+01  0.10294935557E+03  0.80737780369E+02 0.  0.
          6    2    1    2  501    0  0.42890988874E+02 -0.31160887423E+01  0.28445979577E+03  0.33535360204E+03  0.17232328936E+03 0.  0.
         24    2    5    5    0    0  0.64743203107E+02  0.19029467949E+02  0.28384848376E+03  0.30388284339E+03  0.84976571898E+02 0.  0.
          5    1    5    5  501    0 -0.21852214232E+02 -0.22145556692E+02  0.61131201081E+00  0.31470758657E+02  0.47000000000E+01 0. -1.
        -11    1    6    6    0    0  0.59683994062E+02  0.14775093857E+02  0.84907579641E+02  0.10483214977E+03  0.00000000000E+00 0.  1.
         12    1    6    6    0    0  0.50592090444E+01  0.42543740922E+01  0.19894090412E+03  0.19905069361E+03  0.00000000000E+00 0. -1.
         -5    1    3    3    0  503 -0.38561432683E+02  0.66478480720E+02  0.14676939482E+02  0.78382874673E+02  0.47000000000E+01 0.  1.
         11    1    4    4    0    0  0.72979400945E+01  0.48342249108E+01  0.25231326071E+02  0.26706730901E+02  0.00000000000E+00 0. -1.
        -12    1    4    4    0    0 -0.11627496286E+02 -0.68196616888E+02 -0.32046225849E+02  0.76242624667E+02  0.00000000000E+00 0.  1.
</event>
<event>
12    1  0.1630640E-001  0.2068295E+03  0.7818608E-02  0.1144728E+00
         21   -1    0    0  503  502  0.00000000000E+00  0.00000000000E+00  0.26334344222E+03  0.26334344222E+03  0.00000000000E+00 0. -1.
         21   -1    0    0  501  503 -0.00000000000E+00 -0.00000000000E+00 -0.16082483056E+03  0.16082483056E+03  0.00000000000E+00 0. -1.
          6    2    1    2  501    0  0.37421515345E+02  0.10938878949E+03  0.66487961198E+02  0.21725348393E+03  0.17149970909E+03 0.  0.
         24    2    3    3    0    0  0.10401968957E+02  0.14256482201E+03  0.36709931083E+02  0.16491300153E+03  0.73591776715E+02 0.  0.
         -6    2    1    2    0  502 -0.37421515345E+02 -0.10938878949E+03  0.36030650455E+02  0.20691478885E+03  0.16777736736E+03 0.  0.
        -24    2    5    5    0    0 -0.44817137715E+02 -0.11812603773E+03  0.74370465931E+02  0.16662749324E+03  0.79192289256E+02 0.  0.
          5    1    3    3  501    0  0.27019546388E+02 -0.33176032518E+02  0.29778030115E+02  0.52340482403E+02  0.47000000000E+01 0. -1.
        -13    1    4    4    0    0  0.85464743267E+01  0.10609606811E+03 -0.85226529920E+01  0.10678039851E+03  0.00000000000E+00 0.  1.
         14    1    4    4    0    0  0.18554946302E+01  0.36468753891E+02  0.45232584075E+02  0.58132603011E+02  0.00000000000E+00 0. -1.
         -5    1    5    5    0  502  0.73956223706E+01  0.87372482435E+01 -0.38339815476E+02  0.40287295614E+02  0.47000000000E+01 0.  1.
         13    1    6    6    0    0 -0.23722389126E+02 -0.61411673400E+02  0.82527728335E+02  0.10556974623E+03  0.00000000000E+00 0. -1.
        -14    1    6    6    0    0 -0.21094748589E+02 -0.56714364332E+02 -0.81572624043E+01  0.61057747007E+02  0.00000000000E+00 0.  1.
</event>
<event>
12    1  0.1630640E-001  0.1871065E+03  0.7818608E-02  0.1161130E+00
         21   -1    0    0  501  502  0.00000000000E+00  0.00000000000E+00  0.30504812032E+03  0.30504812032E+03  0.00000000000E+00 0.  1.
         21   -1    0    0  502  503 -0.00000000000E+00 -0.00000000000E+00 -0.15387294642E+03  0.15387294642E+03  0.00000000000E+00 0.  1.
         -6    2    1    2    0  503 -0.25768316062E+02  0.69793579958E+02 -0.40201399649E+02  0.19137658471E+03  0.17167904567E+03 0.  0.
        -24    2    3    3    0    0  0.47287057429E+02  0.72512277054E+02 -0.31367343402E+02  0.11758898778E+03  0.73137977083E+02 0.  0.
          6    2    1    2  501    0  0.25768316062E+02 -0.69793579958E+02  0.19137657355E+03  0.26754448204E+03  0.17152232231E+03 0.  0.
         24    2    5    5    0    0  0.60351496989E+02  0.59510270489E+01  0.12671593014E+03  0.16201566750E+03  0.80712029158E+02 0.  0.
          5    1    5    5  501    0 -0.34583180927E+02 -0.75744607007E+02  0.64660643403E+02  0.10552881454E+03  0.47000000000E+01 0. -1.
        -13    1    6    6    0    0  0.18764929938E+02  0.24604359267E+02  0.10867864545E+03  0.11299798700E+03  0.00000000000E+00 0.  1.
         14    1    6    6    0    0  0.41586567051E+02 -0.18653332218E+02  0.18037284699E+02  0.49017680497E+02  0.00000000000E+00 0. -1.
         -5    1    3    3    0  503 -0.73055373491E+02 -0.27186970961E+01 -0.88340562463E+01  0.73787596922E+02  0.47000000000E+01 0.  1.
         13    1    4    4    0    0 -0.74398408859E+01  0.54892656585E+02 -0.10217992943E+02  0.56329054307E+02  0.00000000000E+00 0. -1.
        -14    1    4    4    0    0  0.54726898314E+02  0.17619620469E+02 -0.21149350459E+02  0.61259933476E+02  0.00000000000E+00 0.  1.
</event>
<event>
12    1  0.1630640E-001  0.6735464E+03  0.7818608E-02  0.9763654E-01
         21   -1    0    0  501  502  0.00000000000E+00  0.00000000000E+00  0.10827815644E+04  0.10827815644E+04  0.00000000000E+00 0. -1.
         21   -1    0    0  502  503 -0.00000000000E+00 -0.00000000000E+00 -0.43346505543E+03  0.43346505543E+03  0.00000000000E+00 0.  1.
         -6    2    1    2    0  503 -0.28893904272E+03 -0.58328492927E+03  0.46382106074E+03  0.81779867163E+03  0.17308267337E+03 0.  0.
        -24    2    3    3    0    0 -0.58395688205E+02 -0.23134939313E+03  0.15205454924E+03  0.29412958948E+03  0.80368099161E+02 0.  0.
          6    2    1    2  501    0  0.28893904272E+03  0.58328492927E+03  0.18549544821E+03  0.69844794819E+03  0.17237719079E+03 0.  0.
         24    2    5    5    0    0  0.29536424265E+03  0.48556886652E+03  0.14169048422E+03  0.59106695833E+03  0.79163097067E+02 0.  0.
          5    1    5    5  501    0 -0.64251999344E+01  0.97716062749E+02  0.43804963992E+02  0.10738098986E+03  0.47000000000E+01 0. -1.
        -13    1    6    6    0    0  0.35290026485E+02  0.22930884215E+02  0.19852878518E+02  0.46533302114E+02  0.00000000000E+00 0.  1.
         14    1    6    6    0    0  0.26007421617E+03  0.46263798230E+03  0.12183760570E+03  0.54453365621E+03  0.00000000000E+00 0. -1.
         -5    1    3    3    0  503 -0.23054335451E+03 -0.35193553613E+03  0.31176651151E+03  0.52366908215E+03  0.47000000000E+01 0.  1.
         11    1    4    4    0    0 -0.65939458264E+01 -0.10473095022E+03  0.10756033247E+03  0.15027067970E+03  0.00000000000E+00 0. -1.
        -12    1    4    4    0    0 -0.51801742379E+02 -0.12661844291E+03  0.44494216764E+02  0.14385890979E+03  0.00000000000E+00 0.  1.
</event>
<event>
12    1  0.1630640E-001  0.1941654E+03  0.7818608E-02  0.1154893E+00
         21   -1    0    0  501  502  0.00000000000E+00  0.00000000000E+00  0.61551398479E+03  0.61551398479E+03  0.00000000000E+00 0. -1.
         21   -1    0    0  502  503 -0.00000000000E+00 -0.00000000000E+00 -0.13264675010E+03  0.13264675010E+03  0.00000000000E+00 0. -1.
         -6    2    1    2    0  503  0.85924896039E+02 -0.25888328897E+02 -0.33209224835E+02  0.19698491906E+03  0.17218278773E+03 0.  0.
        -24    2    3    3    0    0  0.10087687891E+03 -0.50225204448E+02  0.16532558665E+02  0.13943337409E+03  0.80433975739E+02 0.  0.
          6    2    1    2  501    0 -0.85924896039E+02  0.25888328897E+02  0.51607645953E+03  0.55117581584E+03  0.17148345272E+03 0.  0.
         24    2    5    5    0    0 -0.18512218022E+02 -0.99242838173E+01  0.42244933247E+03  0.43028271716E+03  0.78984710926E+02 0.  0.
          5    1    5    5  501    0 -0.67412678017E+02  0.35812612715E+02  0.93627127057E+02  0.12089309868E+03  0.47000000000E+01 0. -1.
        -13    1    6    6    0    0 -0.24136836593E+02 -0.14734288022E+02  0.47643854921E+02  0.55404178867E+02  0.00000000000E+00 0.  1.
         14    1    6    6    0    0  0.56246185709E+01  0.48100042049E+01  0.37480547755E+03  0.37487853829E+03  0.00000000000E+00 0. -1.
         -5    1    3    3    0  503 -0.14951982867E+02  0.24336875550E+02 -0.49741783500E+02  0.57551544975E+02  0.47000000000E+01 0.  1.
         13    1    4    4    0    0  0.48377349325E+02 -0.44580322372E+02 -0.26890454239E+02  0.71069470236E+02  0.00000000000E+00 0. -1.
        -14    1    4    4    0    0  0.52499529581E+02 -0.56448820761E+01  0.43423012903E+02  0.68363903849E+02  0.00000000000E+00 0.  1.
</event>
<event>
12    1  0.1630640E-001  0.1739917E+03  0.7818608E-02  0.1174333E+00
         21   -1    0    0  501  502  0.00000000000E+00  0.00000000000E+00  0.61746292687E+03  0.61746292687E+03  0.00000000000E+00 0. -1.
         21   -1    0    0  502  503 -0.00000000000E+00 -0.00000000000E+00 -0.49507321445E+02  0.49507321445E+02  0.00000000000E+00 0. -1.
         -6    2    1    2    0  503  0.11009118461E+02  0.85878893664E+01  0.23557022694E+03  0.29285910331E+03  0.17343059141E+03 0.  0.
        -24    2    3    3    0    0  0.52260491733E+02  0.99649518651E+01  0.59023744617E+02  0.11149118300E+03  0.78205001090E+02 0.  0.
          6    2    1    2  501    0 -0.11009118461E+02 -0.85878893664E+01  0.33238537849E+03  0.37411114501E+03  0.17112614194E+03 0.  0.
         24    2    5    5    0    0  0.32245612443E+02  0.42934897776E+02  0.24770448898E+03  0.26585906703E+03  0.80251758159E+02 0.  0.
          5    1    5    5  501    0 -0.43254730904E+02 -0.51522787143E+02  0.84680889502E+02  0.10825207798E+03  0.47000000000E+01 0. -1.
        -11    1    6    6    0    0  0.21423504909E+02  0.29439434400E+02  0.29203317440E+02  0.46674196404E+02  0.00000000000E+00 0.  1.
         12    1    6    6    0    0  0.10822107533E+02  0.13495463376E+02  0.21850117154E+03  0.21918487062E+03  0.00000000000E+00 0. -1.
         -5    1    3    3    0  503 -0.41251373272E+02 -0.13770624987E+01  0.17654648232E+03  0.18136792031E+03  0.47000000000E+01 0.  1.
         13    1    4    4    0    0 -0.62782066801E+01  0.29907528943E+02  0.87366276206E+01  0.31783719555E+02  0.00000000000E+00 0. -1.
        -14    1    4    4    0    0  0.58538698413E+02 -0.19942577078E+02  0.50287116997E+02  0.79707463441E+02  0.00000000000E+00 0.  1.
</event>
<event>
12    1  0.1630640E-001  0.1951499E+03  0.7818608E-02  0.1153903E+00
         21   -1    0    0  503  502  0.00000000000E+00  0.00000000000E+00  0.25008990782E+02  0.25008990782E+02  0.00000000000E+00 0.  1.
         21   -1    0    0  501  503 -0.00000000000E+00 -0.00000000000E+00 -0.15342927638E+04  0.15342927638E+04  0.00000000000E+00 0.  1.
          6    2    1    2  501    0  0.74275763044E+02 -0.52512765878E+02 -0.82282645208E+03  0.84565174072E+03  0.17265287948E+03 0.  0.
         24    2    3    3    0    0  0.59619610680E+02 -0.92888557671E+02 -0.44366182993E+03  0.46403294132E+03  0.79422724553E+02 0.  0.
         -6    2    1    2    0  502 -0.74275763044E+02  0.52512765878E+02 -0.68645732096E+03  0.71365001388E+03  0.17262157818E+03 0.  0.
        -24    2    5    5    0    0 -0.10196112370E+03  0.16040082676E+01 -0.37887347059E+03  0.40061951088E+03  0.80945921433E+02 0.  0.
          5    1    3    3  501    0  0.14656152364E+02  0.40375791793E+02 -0.37916462215E+03  0.38161879940E+03  0.47000000000E+01 0. -1.
        -11    1    4    4    0    0 -0.49853367594E+01 -0.49339641994E+02 -0.99636942913E+02  0.11129588603E+03  0.00000000000E+00 0.  1.
         12    1    4    4    0    0  0.64604947440E+02 -0.43548915676E+02 -0.34402488701E+03  0.35273705529E+03  0.00000000000E+00 0. -1.
         -5    1    5    5    0  502  0.27685360654E+02  0.50908757611E+02 -0.30758385037E+03  0.31303050299E+03  0.47000000000E+01 0.  1.
         11    1    6    6    0    0 -0.29959623090E+02 -0.19070672567E+02 -0.24195896940E+03  0.24455145152E+03  0.00000000000E+00 0. -1.
        -12    1    6    6    0    0 -0.72001500608E+02  0.20674680835E+02 -0.13691450119E+03  0.15606805936E+03  0.00000000000E+00 0.  1.
</event>
<event>
12    1  0.1630640E-001  0.1759307E+03  0.7818608E-02  0.1175318E+00
         21   -1    0    0  503  502  0.00000000000E+00  0.00000000000E+00  0.75104603632E+03  0.75104603632E+03  0.00000000000E+00 0. -1.
         21   -1    0    0  501  503 -0.00000000000E+00 -0.00000000000E+00 -0.16167506357E+03  0.16167506357E+03  0.00000000000E+00 0. -1.
          6    2    1    2  501    0 -0.41847796445E+01  0.90377585910E+01 -0.10143659848E+03  0.20307882145E+03  0.17564860020E+03 0.  0.
         24    2    3    3    0    0 -0.23717391419E+02 -0.34879997439E+02  0.18843151332E+01  0.89027984513E+02  0.78379222411E+02 0.  0.
         -6    2    1    2    0  502  0.41847796445E+01 -0.90377585910E+01  0.69080757123E+03  0.70964227843E+03  0.16210450152E+03 0.  0.
        -24    2    5    5    0    0  0.20003130746E+02 -0.39871070856E+02  0.23458301975E+03  0.25207933769E+03  0.80777297561E+02 0.  0.
          5    1    3    3  501    0  0.19532611774E+02  0.43917756030E+02 -0.10332091361E+03  0.11405083694E+03  0.47000000000E+01 0. -1.
        -13    1    4    4    0    0 -0.19575353571E+01  0.10168619096E+02  0.29932555929E+02  0.31673185243E+02  0.00000000000E+00 0.  1.
         14    1    4    4    0    0 -0.21759856062E+02 -0.45048616535E+02 -0.28048240796E+02  0.57354799270E+02  0.00000000000E+00 0. -1.
         -5    1    5    5    0  502 -0.15818351101E+02  0.30833312265E+02  0.45622455147E+03  0.45756294075E+03  0.47000000000E+01 0.  1.
         13    1    6    6    0    0 -0.22257657116E+02 -0.42793910297E+01  0.14548841748E+03  0.14724332280E+03  0.00000000000E+00 0. -1.
        -14    1    6    6    0    0  0.42260787862E+02 -0.35591679827E+02  0.89094602276E+02  0.10483601489E+03  0.00000000000E+00 0.  1.
</event>
<event>
12    1  0.1630640E-001  0.2332481E+03  0.7818608E-02  0.1124530E+00
         21   -1    0    0  501  502  0.00000000000E+00  0.00000000000E+00  0.26619464245E+03  0.26619464245E+03  0.00000000000E+00 0. -1.
         21   -1    0    0  502  503 -0.00000000000E+00 -0.00000000000E+00 -0.21283790502E+03  0.21283790502E+03  0.00000000000E+00 0. -1.
         -6    2    1    2    0  503  0.10462800557E+02  0.15513552372E+03 -0.23188274321E+02  0.23439792924E+03  0.17386256714E+03 0.  0.
        -24    2    3    3    0    0 -0.78386671391E+01  0.10323327392E+03  0.51428402909E+02  0.14156191373E+03  0.81708881086E+02 0.  0.
          6    2    1    2  501    0 -0.10462800557E+02 -0.15513552372E+03  0.76545011747E+02  0.24463461822E+03  0.17265704936E+03 0.  0.
         24    2    5    5    0    0 -0.71392646156E+02 -0.11354265610E+03  0.32651674262E+02  0.15866294965E+03  0.78223750105E+02 0.  0.
          5    1    5    5  501    0  0.60929845599E+02 -0.41592867622E+02  0.43893337486E+02  0.85971668574E+02  0.47000000000E+01 0. -1.
        -13    1    6    6    0    0  0.87177989713E+01 -0.47929644676E+02 -0.38480750409E+01  0.48867765850E+02  0.00000000000E+00 0.  1.
         14    1    6    6    0    0 -0.80110445128E+02 -0.65613011420E+02  0.36499749303E+02  0.10979518380E+03  0.00000000000E+00 0. -1.
         -5    1    3    3    0  503  0.18301467696E+02  0.51902249802E+02 -0.74616677231E+02  0.92836015507E+02  0.47000000000E+01 0.  1.
         13    1    4    4    0    0 -0.30575074185E+01  0.11612238470E+03  0.53080498311E+02  0.12771568377E+03  0.00000000000E+00 0. -1.
        -14    1    4    4    0    0 -0.47811597206E+01 -0.12889110782E+02 -0.16520954014E+01  0.13846229965E+02  0.00000000000E+00 0.  1.
</event>
<event>
12    1  0.1630640E-001  0.2051156E+03  0.7818608E-02  0.1145726E+00
         21   -1    0    0  503  502  0.00000000000E+00  0.00000000000E+00  0.18156622724E+02  0.18156622724E+02  0.00000000000E+00 0. -1.
         21   -1    0    0  501  503 -0.00000000000E+00 -0.00000000000E+00 -0.23048354396E+04  0.23048354396E+04  0.00000000000E+00 0.  1.
          6    2    1    2  501    0 -0.19550388603E+02 -0.10798679302E+03 -0.11561771125E+04  0.11740331822E+04  0.17194485280E+03 0.  0.
         24    2    3    3    0    0  0.37775322634E+02 -0.12021951981E+02 -0.42731463293E+03  0.43663363519E+03  0.80496170928E+02 0.  0.
         -6    2    1    2    0  502  0.19550388603E+02  0.10798679302E+03 -0.11305017044E+04  0.11489588801E+04  0.17328888982E+03 0.  0.
        -24    2    5    5    0    0  0.53449343725E+02  0.41187263382E+02 -0.90264829039E+03  0.90906185094E+03  0.84061225833E+02 0.  0.
          5    1    3    3  501    0 -0.57325711237E+02 -0.95964841040E+02 -0.72886247954E+03  0.73739954703E+03  0.47000000000E+01 0. -1.
        -11    1    4    4    0    0 -0.63528115430E+00  0.85680649347E+01 -0.32876973090E+03  0.32888197165E+03  0.00000000000E+00 0.  1.
         12    1    4    4    0    0  0.38410603789E+02 -0.20590016916E+02 -0.98544902022E+02  0.10775166353E+03  0.00000000000E+00 0. -1.
         -5    1    5    5    0  502 -0.33898955122E+02  0.66799529639E+02 -0.22785341398E+03  0.23989702912E+03  0.47000000000E+01 0.  1.
         13    1    6    6    0    0  0.37373024183E+02 -0.15128527896E+02 -0.20290970473E+03  0.20687668687E+03  0.00000000000E+00 0. -1.
        -14    1    6    6    0    0  0.16076319541E+02  0.56315791278E+02 -0.69973858565E+03  0.70218516408E+03  0.00000000000E+00 0.  1.
</event>
<event>
12    1  0.1630640E-001  0.2202569E+03  0.7818608E-02  0.1133714E+00
         21   -1    0    0  503  502  0.00000000000E+00  0.00000000000E+00  0.15803993940E+03  0.15803993940E+03  0.00000000000E+00 0. -1.
         21   -1    0    0  501  503 -0.00000000000E+00 -0.00000000000E+00 -0.31327242137E+03  0.31327242137E+03  0.00000000000E+00 0. -1.
          6    2    1    2  501    0  0.13260690606E+03 -0.39449408293E+02 -0.11150884188E+03  0.24687509162E+03  0.17138331802E+03 0.  0.
         24    2    3    3    0    0  0.43944436319E+02 -0.58839829602E+02 -0.11591290907E+03  0.15588878613E+03  0.73974807348E+02 0.  0.
         -6    2    1    2    0  502 -0.13260690606E+03  0.39449408293E+02 -0.43723640087E+02  0.22443726915E+03  0.17122933082E+03 0.  0.
        -24    2    5    5    0    0 -0.13416120455E+03  0.75138472061E+02 -0.12127017497E+02  0.17651481433E+03  0.85821887285E+02 0.  0.
          5    1    3    3  501    0  0.88662469740E+02  0.19390421309E+02  0.44040671861E+01  0.90986305490E+02  0.47000000000E+01 0. -1.
        -13    1    4    4    0    0 -0.16617916618E+02 -0.13796746772E+02 -0.57513728414E+01  0.22351368275E+02  0.00000000000E+00 0.  1.
         14    1    4    4    0    0  0.60562352937E+02 -0.45043082830E+02 -0.11016153623E+03  0.13353741786E+03  0.00000000000E+00 0. -1.
         -5    1    5    5    0  502  0.15542984883E+01 -0.35689063769E+02 -0.31596622590E+02  0.47922454816E+02  0.47000000000E+01 0.  1.
         13    1    6    6    0    0 -0.13011871147E+03  0.48322793511E+02 -0.32548294117E+02  0.14256704703E+03  0.00000000000E+00 0. -1.
        -14    1    6    6    0    0 -0.40424930731E+01  0.26815678550E+02  0.20421276620E+02  0.33947767307E+02  0.00000000000E+00 0.  1.
</event>
<event>
12    1  0.1630640E-001  0.1731647E+03  0.7818608E-02  0.1175764E+00
         21   -1    0    0  501  502  0.00000000000E+00  0.00000000000E+00  0.98304084927E+02  0.98304084927E+02  0.00000000000E+00 0.  1.
         21   -1    0    0  502  503 -0.00000000000E+00 -0.00000000000E+00 -0.33941627385E+03  0.33941627385E+03  0.00000000000E+00 0.  1.
         -6    2    1    2    0  503 -0.17844751151E+02 -0.11792401092E+02 -0.19927288684E+03  0.26399944591E+03  0.17183866895E+03 0.  0.
        -24    2    3    3    0    0  0.44253427839E+02  0.17149639993E+02 -0.16263748914E+03  0.18616585458E+03  0.77164088206E+02 0.  0.
          6    2    1    2  501    0  0.17844751151E+02  0.11792401092E+02 -0.41839302083E+02  0.17372091286E+03  0.16724512698E+03 0.  0.
         24    2    5    5    0    0 -0.46361117491E+02 -0.18778546828E+02 -0.36404153179E+02  0.10224639105E+03  0.81406849084E+02 0.  0.
          5    1    5    5  501    0  0.64205868641E+02  0.30570947920E+02 -0.54351489037E+01  0.71474521813E+02  0.47000000000E+01 0. -1.
        -13    1    6    6    0    0 -0.22840222382E+02 -0.37334744775E+02 -0.52408334184E+02  0.68280249104E+02  0.00000000000E+00 0.  1.
         14    1    6    6    0    0 -0.23520895109E+02  0.18556197947E+02  0.16004181005E+02  0.33966141945E+02  0.00000000000E+00 0. -1.
         -5    1    3    3    0  503 -0.62098178990E+02 -0.28942041086E+02 -0.36635397696E+02  0.77833591337E+02  0.47000000000E+01 0.  1.
         11    1    4    4    0    0  0.39828651463E+02 -0.18061101841E+02 -0.42826824603E+02  0.61209981070E+02  0.00000000000E+00 0. -1.
        -12    1    4    4    0    0  0.44247763756E+01  0.35210741834E+02 -0.11981066454E+03  0.12495587351E+03  0.00000000000E+00 0.  1.
</event>
<event>
12    1  0.1630640E-001  0.2555534E+03  0.7818608E-02  0.1109878E+00
         21   -1    0    0  503  502  0.00000000000E+00  0.00000000000E+00  0.10182022564E+03  0.10182022564E+03  0.00000000000E+00 0.  1.
         21   -1    0    0  501  503 -0.00000000000E+00 -0.00000000000E+00 -0.72468015194E+03  0.72468015194E+03  0.00000000000E+00 0. -1.
          6    2    1    2  501    0  0.33644252896E+02 -0.18595171272E+03 -0.45185770024E+03  0.51901164114E+03  0.17171990900E+03 0.  0.
         24    2    3    3    0    0  0.58837762547E+02 -0.11604705989E+03 -0.40356504519E+03  0.43026681623E+03  0.73047827041E+02 0.  0.
         -6    2    1    2    0  502 -0.33644252896E+02  0.18595171272E+03 -0.17100222605E+03  0.30748873644E+03  0.17203949112E+03 0.  0.
        -24    2    5    5    0    0  0.38919929097E+02  0.53034946340E+02 -0.63576505423E+02  0.12176097129E+03  0.80351077619E+02 0.  0.
          5    1    3    3  501    0 -0.25193509651E+02 -0.69904652830E+02 -0.48292655051E+02  0.88744824906E+02  0.47000000000E+01 0. -1.
        -11    1    4    4    0    0  0.10098272612E+02 -0.24348863277E+02 -0.20550630583E+02  0.33424103130E+02  0.00000000000E+00 0.  1.
         12    1    4    4    0    0  0.48739489934E+02 -0.91698196614E+02 -0.38301441461E+03  0.39684271310E+03  0.00000000000E+00 0. -1.
         -5    1    5    5    0  502 -0.72564181993E+02  0.13291676638E+03 -0.10742572063E+03  0.18572776515E+03  0.47000000000E+01 0.  1.
         11    1    6    6    0    0 -0.61085966669E+01  0.16942740399E+02 -0.61427067389E+02  0.64012936298E+02  0.00000000000E+00 0. -1.
        -12    1    6    6    0    0  0.45028525764E+02  0.36092205940E+02 -0.21494380347E+01  0.57748034996E+02  0.00000000000E+00 0.  1.
</event>
<event>
12    1  0.1630640E-001  0.3312309E+03  0.7818608E-02  0.1070660E+00
         21   -1    0    0  501  502  0.00000000000E+00  0.00000000000E+00  0.47271036617E+03  0.47271036617E+03  0.00000000000E+00 0. -1.
         21   -1    0    0  502  503 -0.00000000000E+00 -0.00000000000E+00 -0.25123007870E+03  0.25123007870E+03  0.00000000000E+00 0.  1.
         -6    2    1    2    0  503  0.10059632683E+02 -0.28222053532E+03  0.98477842001E+01  0.33137721609E+03  0.17310185938E+03 0.  0.
        -24    2    3    3    0    0 -0.24051606209E+02 -0.17592581929E+03 -0.52876136774E+02  0.20324242949E+03  0.83565696602E+02 0.  0.
          6    2    1    2  501    0 -0.10059632683E+02  0.28222053532E+03  0.21163250327E+03  0.39256322879E+03  0.17195332328E+03 0.  0.
         24    2    5    5    0    0  0.25882567589E+02  0.12169828419E+03  0.36530527214E+02  0.15226752161E+03  0.79815656599E+02 0.  0.
          5    1    5    5  501    0 -0.35942200271E+02  0.16052225114E+03  0.17510197606E+03  0.24029570718E+03  0.47000000000E+01 0. -1.
        -13    1    6    6    0    0  0.42022309564E+02  0.24501269869E+02  0.18837685968E+02  0.52163638091E+02  0.00000000000E+00 0.  1.
         14    1    6    6    0    0 -0.16139741975E+02  0.97197014317E+02  0.17692841246E+02  0.10010388351E+03  0.00000000000E+00 0. -1.
         -5    1    3    3    0  503  0.34111238892E+02 -0.10629471603E+03  0.62723920974E+02  0.12813478660E+03  0.47000000000E+01 0.  1.
         13    1    4    4    0    0 -0.43790512357E+02 -0.60647250331E+02  0.20383816538E+00  0.74804675624E+02  0.00000000000E+00 0. -1.
        -14    1    4    4    0    0  0.19738906148E+02 -0.11527856896E+03 -0.53079974940E+02  0.12843775386E+03  0.00000000000E+00 0.  1.
</event>
<event>
12    1  0.1630640E-001  0.1995270E+03  0.7818608E-02  0.1150567E+00
         21   -1    0    0  503  502  0.00000000000E+00  0.00000000000E+00  0.11850932993E+04  0.11850932993E+04  0.00000000000E+00 0.  1.
         21   -1    0    0  501  503 -0.00000000000E+00 -0.00000000000E+00 -0.91126183733E+02  0.91126183733E+02  0.00000000000E+00 0. -1.
          6    2    1    2  501    0 -0.78718714846E+02  0.62686883764E+02  0.37458030582E+02  0.20103463311E+03  0.16995745995E+03 0.  0.
         24    2    3    3    0    0  0.69619147525E+01  0.66078380572E+02 -0.70379296497E+01  0.10431517790E+03  0.80108072324E+02 0.  0.
         -6    2    1    2    0  502  0.78718714846E+02 -0.62686883764E+02  0.10565090850E+04  0.10751848499E+04  0.17229258073E+03 0.  0.
        -24    2    5    5    0    0  0.10587847847E+03 -0.65550697793E+02  0.10139595027E+04  0.10244067922E+04  0.76080593078E+02 0.  0.
          5    1    3    3  501    0 -0.85680629599E+02 -0.33914968074E+01  0.44495960232E+02  0.96719455209E+02  0.47000000000E+01 0. -1.
        -11    1    4    4    0    0  0.40359880884E+02  0.21260626281E+02 -0.14636379291E+02  0.47907805351E+02  0.00000000000E+00 0.  1.
         12    1    4    4    0    0 -0.33397966132E+02  0.44817754291E+02  0.75984496408E+01  0.56407372553E+02  0.00000000000E+00 0. -1.
         -5    1    5    5    0  502 -0.27159763619E+02  0.28638140289E+01  0.42549582244E+02  0.50778057660E+02  0.47000000000E+01 0.  1.
         11    1    6    6    0    0  0.18036428995E+02 -0.53708642084E+02  0.34973366242E+03  0.35429305051E+03  0.00000000000E+00 0. -1.
        -12    1    6    6    0    0  0.87842049470E+02 -0.11842055709E+02  0.66422584030E+03  0.67011374174E+03  0.00000000000E+00 0.  1.
</event>
<event>
12    1  0.1630640E-001  0.1909664E+03  0.7818608E-02  0.1157896E+00
         21   -1    0    0  501  502  0.00000000000E+00  0.00000000000E+00  0.24858920989E+03  0.24858920989E+03  0.00000000000E+00 0. -1.
         21   -1    0    0  502  503 -0.00000000000E+00 -0.00000000000E+00 -0.15745369980E+03  0.15745369980E+03  0.00000000000E+00 0. -1.
         -6    2    1    2    0  503 -0.32705143066E+02 -0.74410109340E+02 -0.98359728853E+01  0.19121958371E+03  0.17280535894E+03 0.  0.
        -24    2    3    3    0    0 -0.72122156916E+02 -0.47108466073E+02 -0.51723678145E+02  0.12737797849E+03  0.78287913680E+02 0.  0.
          6    2    1    2  501    0  0.32705143066E+02  0.74410109340E+02  0.10097148297E+03  0.21482332597E+03  0.17131062504E+03 0.  0.
         24    2    5    5    0    0  0.70272848325E+02  0.46517408218E+02  0.11886633419E+03  0.16450781192E+03  0.76364077291E+02 0.  0.
          5    1    5    5  501    0 -0.37567705259E+02  0.27892701121E+02 -0.17894851215E+02  0.50315514052E+02  0.47000000000E+01 0. -1.
        -11    1    6    6    0    0 -0.12814514929E+02  0.23318538115E+02  0.19928432651E+02  0.33243171338E+02  0.00000000000E+00 0.  1.
         12    1    6    6    0    0  0.83087363255E+02  0.23198870103E+02  0.98937901537E+02  0.13126464058E+03  0.00000000000E+00 0. -1.
         -5    1    3    3    0  503  0.39417013850E+02 -0.27301643266E+02  0.41887705260E+02  0.63841605226E+02  0.47000000000E+01 0.  1.
         11    1    4    4    0    0 -0.41511098530E+02  0.16744106520E+02 -0.27523241507E+02  0.52545839296E+02  0.00000000000E+00 0. -1.
        -12    1    4    4    0    0 -0.30611058386E+02 -0.63852572593E+02 -0.24200436638E+02  0.74832139190E+02  0.00000000000E+00 0.  1.
</event>
<event>
12    1  0.1630640E-001  0.1735163E+03  0.7818608E-02  0.1174323E+00
         21   -1    0    0  503  502  0.00000000000E+00  0.00000000000E+00  0.14517890704E+04  0.14517890704E+04  0.00000000000E+00 0. -1.
         21   -1    0    0  501  503 -0.00000000000E+00 -0.00000000000E+00 -0.32782028740E+02  0.32782028740E+02  0.00000000000E+00 0. -1.
          6    2    1    2  501    0  0.15555153869E+02  0.82737309361E+01  0.25829787571E+03  0.31096397183E+03  0.17225092668E+03 0.  0.
         24    2    3    3    0    0  0.72663705832E+02  0.31623079164E+02  0.17838471150E+03  0.20989576424E+03  0.77169250795E+02 0.  0.
         -6    2    1    2    0  502 -0.15555153869E+02 -0.82737309361E+01  0.11607091659E+04  0.11736071273E+04  0.17261953520E+03 0.  0.
        -24    2    5    5    0    0  0.40636526256E+02  0.90146319949E+01  0.96728615650E+03  0.97139203640E+03  0.78913807236E+02 0.  0.
          5    1    3    3  501    0 -0.57108551962E+02 -0.23349348228E+02  0.79913164211E+02  0.10106820758E+03  0.47000000000E+01 0. -1.
        -13    1    4    4    0    0  0.24292666639E+02  0.17633531497E+02  0.14815417639E+03  0.15116459594E+03  0.00000000000E+00 0.  1.
         14    1    4    4    0    0  0.48371039193E+02  0.13989547667E+02  0.30230535115E+02  0.58731168300E+02  0.00000000000E+00 0. -1.
         -5    1    5    5    0  502 -0.56191680126E+02 -0.17288362931E+02  0.19342300940E+03  0.20221509086E+03  0.47000000000E+01 0.  1.
         11    1    6    6    0    0 -0.13970729236E+02  0.20166298450E+02  0.13282037074E+03  0.13506706391E+03  0.00000000000E+00 0. -1.
        -12    1    6    6    0    0  0.54607255492E+02 -0.11151666455E+02  0.83446578576E+03  0.83632497249E+03  0.00000000000E+00 0.  1.
</event>
<event>
12    1  0.1630640E-001  0.4149723E+03  0.7818608E-02  0.1038730E+00
         21   -1    0    0  503  502  0.00000000000E+00  0.00000000000E+00  0.14592178640E+03  0.14592178640E+03  0.00000000000E+00 0.  1.
         21   -1    0    0  501  503 -0.00000000000E+00 -0.00000000000E+00 -0.12842236010E+04  0.12842236010E+04  0.00000000000E+00 0. -1.
          6    2    1    2  501    0 -0.37703837084E+03  0.18994873312E+02 -0.36515451489E+03  0.55275657560E+03  0.17228834502E+03 0.  0.
         24    2    3    3    0    0 -0.28889800945E+03 -0.41104726218E+02 -0.31063047029E+03  0.43285809100E+03  0.75651698552E+02 0.  0.
         -6    2    1    2    0  502  0.37703837084E+03 -0.18994873312E+02 -0.77314729970E+03  0.87738881178E+03  0.17185936610E+03 0.  0.
        -24    2    5    5    0    0  0.24851916038E+03 -0.53965173733E+02 -0.61764282854E+03  0.67258685887E+03  0.78844188253E+02 0.  0.
          5    1    3    3  501    0 -0.88140361390E+02  0.60099599530E+02 -0.54524044596E+02  0.11989848460E+03  0.47000000000E+01 0. -1.
        -13    1    4    4    0    0 -0.94822152939E+02 -0.49933632828E+02 -0.10861084227E+03  0.15258087506E+03  0.00000000000E+00 0.  1.
         14    1    4    4    0    0 -0.19407585651E+03  0.88289066099E+01 -0.20201962802E+03  0.28027721595E+03  0.00000000000E+00 0. -1.
         -5    1    5    5    0  502  0.12851921046E+03  0.34970300421E+02 -0.15550447116E+03  0.20480195292E+03  0.47000000000E+01 0.  1.
         11    1    6    6    0    0  0.63633475120E+02 -0.41652547893E+02 -0.24303626443E+03  0.25465816250E+03  0.00000000000E+00 0. -1.
        -12    1    6    6    0    0  0.18488568526E+03 -0.12312625840E+02 -0.37460656411E+03  0.41792869636E+03  0.00000000000E+00 0.  1.
</event>
<event>
12    1  0.1630640E-001  0.2248800E+03  0.7818608E-02  0.1130559E+00
         21   -1    0    0  503  502  0.00000000000E+00  0.00000000000E+00  0.10436141095E+03  0.10436141095E+03  0.00000000000E+00 0.  1.
         21   -1    0    0  501  503 -0.00000000000E+00 -0.00000000000E+00 -0.64074832802E+03  0.64074832802E+03  0.00000000000E+00 0.  1.
          6    2    1    2  501    0  0.15261628159E+02  0.14409493540E+03 -0.45329495356E+03  0.50536965541E+03  0.17007617701E+03 0.  0.
         24    2    3    3    0    0 -0.12326914526E+02  0.77253928619E+02 -0.11796931625E+03  0.16230374205E+03  0.79407951730E+02 0.  0.
         -6    2    1    2    0  502 -0.15261628159E+02 -0.14409493540E+03 -0.83091963508E+02  0.23974008356E+03  0.17197315362E+03 0.  0.
        -24    2    5    5    0    0 -0.52833633068E+02 -0.34742494827E+02 -0.76275309430E+01  0.10158588567E+03  0.79139618457E+02 0.  0.
          5    1    3    3  501    0  0.27588542685E+02  0.66841006782E+02 -0.33532563731E+03  0.34306591336E+03  0.47000000000E+01 0. -1.
        -13    1    4    4    0    0 -0.43762167981E+02  0.56048854611E+02 -0.92290911259E+02  0.11650842781E+03  0.00000000000E+00 0.  1.
         14    1    4    4    0    0  0.31435253455E+02  0.21205074008E+02 -0.25678404992E+02  0.45795314241E+02  0.00000000000E+00 0. -1.
         -5    1    5    5    0  502  0.37572004909E+02 -0.10935244057E+03 -0.75464432565E+02  0.13815419789E+03  0.47000000000E+01 0.  1.
         13    1    6    6    0    0 -0.65390802526E+01  0.84085931969E+01 -0.32032123012E+02  0.33756790646E+02  0.00000000000E+00 0. -1.
        -14    1    6    6    0    0 -0.46294552815E+02 -0.43151088024E+02  0.24404592069E+02  0.67829095026E+02  0.00000000000E+00 0.  1.
</event>
<event>
12    1  0.1630640E-001  0.1809946E+03  0.7818608E-02  0.1167077E+00
         21   -1    0    0  503  502  0.00000000000E+00  0.00000000000E+00  0.79776157014E+02  0.79776157014E+02  0.00000000000E+00 0. -1.
         21   -1    0    0  501  503 -0.00000000000E+00 -0.00000000000E+00 -0.45901205880E+03  0.45901205880E+03  0.00000000000E+00 0. -1.
          6    2    1    2  501    0 -0.32960454616E+02  0.43582737580E+02 -0.27948045101E+03  0.33296900806E+03  0.17254909808E+03 0.  0.
         24    2    3    3    0    0 -0.14838744360E+02 -0.41364594787E+02 -0.11283129335E+03  0.14498369638E+03  0.79738029956E+02 0.  0.
         -6    2    1    2    0  502  0.32960454616E+02 -0.43582737580E+02 -0.99755450777E+02  0.20581920775E+03  0.17153585554E+03 0.  0.
        -24    2    5    5    0    0  0.69697553604E+02 -0.70778942586E+02 -0.96339585680E+02  0.15974311696E+03  0.79806891641E+02 0.  0.
          5    1    3    3  501    0 -0.18121710256E+02  0.84947332366E+02 -0.16664915766E+03  0.18798531168E+03  0.47000000000E+01 0. -1.
        -11    1    4    4    0    0 -0.55963133640E+01 -0.22961762116E+02  0.59980262416E+01  0.24383140928E+02  0.00000000000E+00 0.  1.
         12    1    4    4    0    0 -0.92424309958E+01 -0.18402832671E+02 -0.11882931959E+03  0.12060055545E+03  0.00000000000E+00 0. -1.
         -5    1    5    5    0  502 -0.36737098989E+02  0.27196205007E+02 -0.34158650971E+01  0.46076090798E+02  0.47000000000E+01 0.  1.
         13    1    6    6    0    0  0.37719077890E+02 -0.81705006807E+02 -0.85814325823E+02  0.12434844386E+03  0.00000000000E+00 0. -1.
        -14    1    6    6    0    0  0.31978475714E+02  0.10926064220E+02 -0.10525259857E+02  0.35394673094E+02  0.00000000000E+00 0.  1.
</event>
<event>
12    1  0.1630640E-001  0.2164104E+03  0.7818608E-02  0.1139264E+00
         21   -1    0    0  501  502  0.00000000000E+00  0.00000000000E+00  0.66237917839E+03  0.66237917839E+03  0.00000000000E+00 0.  1.
         21   -1    0    0  502  503 -0.00000000000E+00 -0.00000000000E+00 -0.13299112752E+04  0.13299112752E+04  0.00000000000E+00 0. -1.
         -6    2    1    2    0  503 -0.11845059774E+03 -0.55780442821E+02 -0.13041839884E+04  0.13198627090E+04  0.15491834329E+03 0.  0.
        -24    2    3    3    0    0 -0.13056379769E+03 -0.28242167713E+02 -0.12307547789E+04  0.12403704136E+04  0.76921466506E+02 0.  0.
          6    2    1    2  501    0  0.11845059774E+03  0.55780442821E+02  0.63665189158E+03  0.67242774460E+03  0.17231203888E+03 0.  0.
         24    2    5    5    0    0  0.73588158907E+01  0.68724039925E+02  0.32779418093E+03  0.34390971445E+03  0.77767093357E+02 0.  0.
          5    1    5    5  501    0  0.11109178185E+03 -0.12943597104E+02  0.30885771066E+03  0.32851803015E+03  0.47000000000E+01 0. -1.
        -13    1    6    6    0    0 -0.10632486331E+02 -0.19173503417E+01  0.16716183078E+03  0.16751060763E+03  0.00000000000E+00 0.  1.
         14    1    6    6    0    0  0.17991302222E+02  0.70641390267E+02  0.16063235015E+03  0.17639910682E+03  0.00000000000E+00 0. -1.
         -5    1    3    3    0  503  0.12113199953E+02 -0.27538275107E+02 -0.73429209540E+02  0.79492295366E+02  0.47000000000E+01 0.  1.
         11    1    4    4    0    0 -0.83504865139E+02  0.13065408851E+02 -0.51582431749E+03  0.52270306477E+03  0.00000000000E+00 0. -1.
        -12    1    4    4    0    0 -0.47058932554E+02 -0.41307576564E+02 -0.71493046138E+03  0.71766734886E+03  0.00000000000E+00 0.  1.
</event>
<event>
12    1  0.1630640E-001  0.2229030E+03  0.7818608E-02  0.1132095E+00
         21   -1    0    0  501  502  0.00000000000E+00  0.00000000000E+00  0.19460947798E+04  0.19460947798E+04  0.00000000000E+00 0. -1.
         21   -1    0    0  502  503 -0.00000000000E+00 -0.00000000000E+00 -0.27188217570E+02  0.27188217570E+02  0.00000000000E+00 0. -1.
         -6    2    1    2    0  503 -0.12790280654E+03 -0.57987551328E+02  0.12227557679E+04  0.12429068384E+04  0.17310129101E+03 0.  0.
        -24    2    3    3    0    0 -0.70018870375E+02 -0.10893608515E+03  0.71296428549E+03  0.72729482465E+03  0.62209137055E+02 0.  0.
          6    2    1    2  501    0  0.12790280654E+03  0.57987551328E+02  0.69615079433E+03  0.73037615898E+03  0.17059226574E+03 0.  0.
         24    2    5    5    0    0  0.11309531458E+03 -0.21394315282E+02  0.44918494666E+03  0.47050126123E+03  0.79724861914E+02 0.  0.
          5    1    5    5  501    0  0.14807491961E+02  0.79381866609E+02  0.24696584767E+03  0.25987489775E+03  0.47000000000E+01 0. -1.
        -11    1    6    6    0    0  0.59903748889E+01  0.50030863676E+01 -0.16794267735E+00  0.78066426365E+01  0.00000000000E+00 0.  1.
         12    1    6    6    0    0  0.10710493969E+03 -0.26397401650E+02  0.44935288934E+03  0.46269461860E+03  0.00000000000E+00 0. -1.
         -5    1    3    3    0  503 -0.57883936169E+02  0.50948533827E+02  0.50979148238E+03  0.51561201370E+03  0.47000000000E+01 0.  1.
         11    1    4    4    0    0 -0.56663065635E+02 -0.92130598682E+02  0.42556171430E+03  0.43909170215E+03  0.00000000000E+00 0. -1.
        -12    1    4    4    0    0 -0.13355804740E+02 -0.16805486472E+02  0.28740257119E+03  0.28820312251E+03  0.00000000000E+00 0.  1.
</event>
<event>
12    1  0.1630640E-001  0.1856105E+03  0.7818608E-02  0.1163363E+00
         21   -1    0    0  501  502  0.00000000000E+00  0.00000000000E+00  0.47343618356E+03  0.47343618356E+03  0.00000000000E+00 0. -1.
         21   -1    0    0  502  503 -0.00000000000E+00 -0.00000000000E+00 -0.73608677068E+02  0.73608677068E+02  0.00000000000E+00 0. -1.
         -6    2    1    2    0  503 -0.63538159903E+02  0.47220885034E+01  0.15349701858E+03  0.24085805396E+03  0.17433264628E+03 0.  0.
        -24    2    3    3    0    0 -0.49399498323E+00 -0.44734166486E+02  0.12600233648E+03  0.15601387071E+03  0.80388739088E+02 0.  0.
          6    2    1    2  501    0  0.63538159903E+02 -0.47220885034E+01  0.24633048791E+03  0.30618680667E+03  0.17032984301E+03 0.  0.
         24    2    5    5    0    0 -0.22888666335E+02  0.23606299366E+02  0.14912317924E+03  0.17298228455E+03  0.81264997179E+02 0.  0.
          5    1    5    5  501    0  0.86426826238E+02 -0.28328387869E+02  0.97207308669E+02  0.13320452211E+03  0.47000000000E+01 0. -1.
        -13    1    6    6    0    0  0.15962235257E+02 -0.96376032687E+01  0.39398231535E+01  0.19057768958E+02  0.00000000000E+00 0.  1.
         14    1    6    6    0    0 -0.38850901593E+02  0.33243902635E+02  0.14518335608E+03  0.15392451559E+03  0.00000000000E+00 0. -1.
         -5    1    3    3    0  503 -0.63044164919E+02  0.49456254989E+02  0.27494682102E+02  0.84844183253E+02  0.47000000000E+01 0.  1.
         11    1    4    4    0    0  0.18254728956E+02 -0.26606303714E+02  0.55126059744E+01  0.32734070190E+02  0.00000000000E+00 0. -1.
        -12    1    4    4    0    0 -0.18748723940E+02 -0.18127862772E+02  0.12048973051E+03  0.12327980052E+03  0.00000000000E+00 0.  1.
</event>
<event>
12    1  0.1630640E-001  0.3539667E+03  0.7818608E-02  0.1061104E+00
         21   -1    0    0  501  502  0.00000000000E+00  0.00000000000E+00  0.14014374965E+03  0.14014374965E+03  0.00000000000E+00 0.  1.
         21   -1    0    0  502  503 -0.00000000000E+00 -0.00000000000E+00 -0.15352039027E+04  0.15352039027E+04  0.00000000000E+00 0.  1.
         -6    2    1    2    0  503 -0.18968871119E+03 -0.24411031589E+03 -0.12405899461E+04  0.12900991563E+04  0.17239711511E+03 0.  0.
        -24    2    3    3    0    0 -0.62134313165E+02 -0.35653717188E+02 -0.32551253964E+03  0.34293864838E+03  0.80725724927E+02 0.  0.
          6    2    1    2  501    0  0.18968871119E+03  0.24411031589E+03 -0.15447020696E+03  0.38524849602E+03  0.17024601427E+03 0.  0.
         24    2    5    5    0    0  0.18343685320E+03  0.26191004719E+03 -0.15830027273E+03  0.36543245286E+03  0.78968027249E+02 0.  0.
          5    1    5    5  501    0  0.62518579893E+01 -0.17799731301E+02  0.38300657728E+01  0.19816043160E+02  0.47000000000E+01 0. -1.
        -13    1    6    6    0    0  0.40512640961E+02  0.11077812081E+03 -0.32536036125E+02  0.12235873396E+03  0.00000000000E+00 0.  1.
         14    1    6    6    0    0  0.14292421224E+03  0.15113192638E+03 -0.12576423660E+03  0.24307371891E+03  0.00000000000E+00 0. -1.
         -5    1    3    3    0  503 -0.12755439802E+03 -0.20845659871E+03 -0.91507740646E+03  0.94716050794E+03  0.47000000000E+01 0.  1.
         13    1    4    4    0    0 -0.34043280781E+02 -0.21551459207E+02 -0.29933166381E+03  0.30203121580E+03  0.00000000000E+00 0. -1.
        -14    1    4    4    0    0 -0.28091032385E+02 -0.14102257981E+02 -0.26180875836E+02  0.40907432578E+02  0.00000000000E+00 0.  1.
</event>
<event>
12    1  0.1630640E-001  0.2208191E+03  0.7818608E-02  0.1133326E+00
         21   -1    0    0  503  502  0.00000000000E+00  0.00000000000E+00  0.18885570221E+03  0.18885570221E+03  0.00000000000E+00 0.  1.
         21   -1    0    0  501  503 -0.00000000000E+00 -0.00000000000E+00 -0.43517459016E+03  0.43517459016E+03  0.00000000000E+00 0.  1.
          6    2    1    2  501    0  0.55119751342E+02  0.12658845302E+03 -0.32227608909E+03  0.39051251516E+03  0.17197477567E+03 0.  0.
         24    2    3    3    0    0  0.11272650688E+02  0.55513745973E+02 -0.74637321674E+02  0.12912921166E+03  0.88852545670E+02 0.  0.
         -6    2    1    2    0  502 -0.55119751342E+02 -0.12658845302E+03  0.75957201142E+02  0.23351777721E+03  0.17233175112E+03 0.  0.
        -24    2    5    5    0    0 -0.46915110429E+02 -0.84796097946E+02 -0.29115159603E+02  0.12004439678E+03  0.64587606126E+02 0.  0.
          5    1    3    3  501    0  0.43847100654E+02  0.71074707044E+02 -0.24763876742E+03  0.26138330349E+03  0.47000000000E+01 0. -1.
        -11    1    4    4    0    0  0.22735183235E+02  0.71640067228E+02 -0.31164552009E+02  0.81365945524E+02  0.00000000000E+00 0.  1.
         12    1    4    4    0    0 -0.11462532547E+02 -0.16126321255E+02 -0.43472769666E+02  0.47763266137E+02  0.00000000000E+00 0. -1.
         -5    1    5    5    0  502 -0.82046409136E+01 -0.41792355071E+02  0.10507236074E+03  0.11347338043E+03  0.47000000000E+01 0.  1.
         13    1    6    6    0    0 -0.97001049064E+01  0.45818743856E+01  0.10891837441E+02  0.15287829503E+02  0.00000000000E+00 0. -1.
        -14    1    6    6    0    0 -0.37215005522E+02 -0.89377972332E+02 -0.40006997044E+02  0.10475656727E+03  0.00000000000E+00 0.  1.
</event>
<event>
12    1  0.1630640E-001  0.3971884E+03  0.7818608E-02  0.1044793E+00
         21   -1    0    0  503  502  0.00000000000E+00  0.00000000000E+00  0.45961590808E+03  0.45961590808E+03  0.00000000000E+00 0. -1.
         21   -1    0    0  501  503 -0.00000000000E+00 -0.00000000000E+00 -0.51593593138E+03  0.51593593138E+03  0.00000000000E+00 0.  1.
          6    2    1    2  501    0 -0.35752886034E+03 -0.87908007139E+01  0.25433713237E+03  0.47130337572E+03  0.17185846185E+03 0.  0.
         24    2    3    3    0    0 -0.12653200591E+03  0.30222783050E+02  0.15115806135E+03  0.21527678107E+03  0.81065207205E+02 0.  0.
         -6    2    1    2    0  502  0.35752886034E+03  0.87908007139E+01 -0.31065715568E+03  0.50424846374E+03  0.17278449196E+03 0.  0.
        -24    2    5    5    0    0  0.31695461464E+03 -0.19844537408E+02 -0.20297555930E+03  0.38557383207E+03  0.81326926054E+02 0.  0.
          5    1    3    3  501    0 -0.23099685442E+03 -0.39013583764E+02  0.10317907102E+03  0.25602659465E+03  0.47000000000E+01 0. -1.
        -11    1    4    4    0    0 -0.53787545555E+02  0.53101138229E+02  0.89975886787E+02  0.11750953638E+03  0.00000000000E+00 0.  1.
         12    1    4    4    0    0 -0.72744460357E+02 -0.22878355179E+02  0.61182174566E+02  0.97767244683E+02  0.00000000000E+00 0. -1.
         -5    1    5    5    0  502  0.40574245699E+02  0.28635338122E+02 -0.10768159638E+03  0.11867463167E+03  0.47000000000E+01 0.  1.
         13    1    6    6    0    0  0.73641066605E+02  0.13089683751E+02 -0.14847694156E+02  0.76254839409E+02  0.00000000000E+00 0. -1.
        -14    1    6    6    0    0  0.24331354803E+03 -0.32934221160E+02 -0.18812786514E+03  0.30931899266E+03  0.00000000000E+00 0.  1.
</event>
<event>
12    1  0.1630640E-001  0.2230607E+03  0.7818608E-02  0.1131644E+00
         21   -1    0    0  503  502  0.00000000000E+00  0.00000000000E+00  0.11158286660E+04  0.11158286660E+04  0.00000000000E+00 0. -1.
         21   -1    0    0  501  503 -0.00000000000E+00 -0.00000000000E+00 -0.46649452508E+02  0.46649452508E+02  0.00000000000E+00 0.  1.
          6    2    1    2  501    0 -0.15579747995E+02 -0.14074561999E+03  0.41162492455E+03  0.46811961444E+03  0.17218837598E+03 0.  0.
         24    2    3    3    0    0 -0.70325928523E+02 -0.68526421840E+02  0.18062440615E+03  0.21993402589E+03  0.78129334664E+02 0.  0.
         -6    2    1    2    0  502  0.15579747995E+02  0.14074561999E+03  0.65755428893E+03  0.69435850406E+03  0.17234857460E+03 0.  0.
        -24    2    5    5    0    0  0.50128324393E+02  0.36885787758E+02  0.42783153539E+03  0.43984897107E+03  0.80956064856E+02 0.  0.
          5    1    3    3  501    0  0.54746180528E+02 -0.72219198149E+02  0.23100051840E+03  0.24818558855E+03  0.47000000000E+01 0. -1.
        -11    1    4    4    0    0 -0.50811988311E+02 -0.68516046921E+02  0.78378243608E+02  0.11584237529E+03  0.00000000000E+00 0.  1.
         12    1    4    4    0    0 -0.19513940212E+02 -0.10374918473E-01  0.10224616254E+03  0.10409165060E+03  0.00000000000E+00 0. -1.
         -5    1    5    5    0  502 -0.34548576399E+02  0.10385983223E+03  0.22972275355E+03  0.25450953298E+03  0.47000000000E+01 0.  1.
         11    1    6    6    0    0 -0.18700880180E+02 -0.75378197716E+01  0.88901541693E+02  0.91159342702E+02  0.00000000000E+00 0. -1.
        -12    1    6    6    0    0  0.68829204573E+02  0.44423607530E+02  0.33892999369E+03  0.34868962837E+03  0.00000000000E+00 0.  1.
</event>
<event>
12    1  0.1630640E-001  0.2202020E+03  0.7818608E-02  0.1135160E+00
         21   -1    0    0  503  502  0.00000000000E+00  0.00000000000E+00  0.16277959006E+04  0.16277959006E+04  0.00000000000E+00 0. -1.
         21   -1    0    0  501  503 -0.00000000000E+00 -0.00000000000E+00 -0.72877765958E+02  0.72877765958E+02  0.00000000000E+00 0. -1.
          6    2    1    2  501    0 -0.69135127250E+02 -0.10617392133E+03  0.11069587212E+03  0.23976064708E+03  0.17081868866E+03 0.  0.
         24    2    3    3    0    0 -0.37175392264E+01 -0.99420610104E+02  0.12007432163E+03  0.17316400039E+03  0.75297081655E+02 0.  0.
         -6    2    1    2    0  502  0.69135127250E+02  0.10617392133E+03  0.14442222625E+04  0.14609130195E+04  0.18010091480E+03 0.  0.
        -24    2    5    5    0    0  0.44558883879E+00  0.12245325840E+03  0.10573435426E+04  0.10676185962E+04  0.82698855431E+02 0.  0.
          5    1    3    3  501    0 -0.65417588024E+02 -0.67533112288E+01 -0.93784495077E+01  0.66596646692E+02  0.47000000000E+01 0. -1.
        -13    1    4    4    0    0 -0.25771849168E+02 -0.31589939311E+01  0.23014688023E+02  0.34696445308E+02  0.00000000000E+00 0.  1.
         14    1    4    4    0    0  0.22054309942E+02 -0.96261616173E+02  0.97059633603E+02  0.13846755508E+03  0.00000000000E+00 0. -1.
         -5    1    5    5    0  502  0.68689538412E+02 -0.16279337064E+02  0.38687871991E+03  0.39329442333E+03  0.47000000000E+01 0.  1.
         13    1    6    6    0    0 -0.17087939552E+02  0.42129487275E+01  0.33414255002E+03  0.33460572372E+03  0.00000000000E+00 0. -1.
        -14    1    6    6    0    0  0.17533528391E+02  0.11824030967E+03  0.72320099262E+03  0.73301287245E+03  0.00000000000E+00 0.  1.
</event>
<event>
12    1  0.1630640E-001  0.2425988E+03  0.7818608E-02  0.1118247E+00
         21   -1    0    0  503  502  0.00000000000E+00  0.00000000000E+00  0.93991878223E+03  0.93991878223E+03  0.00000000000E+00 0.  1.
         21   -1    0    0  501  503 -0.00000000000E+00 -0.00000000000E+00 -0.12098119765E+03  0.12098119765E+03  0.00000000000E+00 0.  1.
          6    2    1    2  501    0  0.33986799010E+02  0.16619953957E+03  0.39717773856E+02  0.24478866102E+03  0.17194940402E+03 0.  0.
         24    2    3    3    0    0  0.65094087310E+02  0.52358801213E+02 -0.14007053314E+02  0.11503572598E+03  0.77835316167E+02 0.  0.
         -6    2    1    2    0  502 -0.33986799010E+02 -0.16619953957E+03  0.77921981072E+03  0.81611131886E+03  0.17342658932E+03 0.  0.
        -24    2    5    5    0    0 -0.26282374491E+02 -0.36202738194E+02  0.48903652076E+03  0.49801234322E+03  0.82814092418E+02 0.  0.
          5    1    3    3  501    0 -0.31107288301E+02  0.11384073836E+03  0.53724827170E+02  0.12975293504E+03  0.47000000000E+01 0. -1.
        -13    1    4    4    0    0  0.13187584168E+02  0.56418592373E+02 -0.22742441956E+02  0.62242980388E+02  0.00000000000E+00 0.  1.
         14    1    4    4    0    0  0.51906503143E+02 -0.40597911595E+01  0.87353886424E+01  0.52792745595E+02  0.00000000000E+00 0. -1.
         -5    1    5    5    0  502 -0.77044245183E+01 -0.12999680138E+03  0.29018328996E+03  0.31809897563E+03  0.47000000000E+01 0.  1.
         11    1    6    6    0    0 -0.44225219932E+02 -0.43429843833E+02  0.45198445177E+03  0.45621482446E+03  0.00000000000E+00 0. -1.
        -12    1    6    6    0    0  0.17942845441E+02  0.72271056391E+01  0.37052068992E+02  0.41797518767E+02  0.00000000000E+00 0.  1.
</event>
<event>
12    1  0.1630640E-001  0.1807494E+03  0.7818608E-02  0.1168725E+00
         21   -1    0    0  503  502  0.00000000000E+00  0.00000000000E+00  0.58081233993E+02  0.58081233993E+02  0.00000000000E+00 0.  1.
         21   -1    0    0  501  503 -0.00000000000E+00 -0.00000000000E+00 -0.58980430205E+03  0.58980430205E+03  0.00000000000E+00 0.  1.
          6    2    1    2  501    0  0.18093094952E+02  0.43459123316E+02 -0.35361597342E+03  0.39412883057E+03  0.16756259410E+03 0.  0.
         24    2    3    3    0    0  0.58708859858E+02  0.75188325462E+02 -0.26618387711E+03  0.29252743248E+03  0.74956172591E+02 0.  0.
         -6    2    1    2    0  502 -0.18093094952E+02 -0.43459123316E+02 -0.17810709463E+03  0.25375670547E+03  0.17451152664E+03 0.  0.
        -24    2    5    5    0    0  0.48184374510E+02 -0.32521256357E+02 -0.15483665189E+03  0.18251105018E+03  0.77178550187E+02 0.  0.
          5    1    3    3  501    0 -0.40615764906E+02 -0.31729202146E+02 -0.87432096305E+02  0.10160139808E+03  0.47000000000E+01 0. -1.
        -11    1    4    4    0    0  0.52725737992E+02  0.71861495447E+02 -0.27024777382E+03  0.28456622644E+03  0.00000000000E+00 0.  1.
         12    1    4    4    0    0  0.59831218668E+01  0.33268300150E+01  0.40638967090E+01  0.79612060445E+01  0.00000000000E+00 0. -1.
         -5    1    5    5    0  502 -0.66277469463E+02 -0.10937866959E+02 -0.23270442745E+02  0.71245655289E+02  0.47000000000E+01 0.  1.
         11    1    6    6    0    0  0.20124553964E+02  0.20491755559E+02 -0.20186853650E+02  0.35105822572E+02  0.00000000000E+00 0. -1.
        -12    1    6    6    0    0  0.28059820546E+02 -0.53013011916E+02 -0.13464979824E+03  0.14740522761E+03  0.00000000000E+00 0.  1.
</event>
<event>
12    1  0.1630640E-001  0.2146699E+03  0.7818608E-02  0.1138029E+00
         21   -1    0    0  501  502  0.00000000000E+00  0.00000000000E+00  0.18124192156E+03  0.18124192156E+03  0.00000000000E+00 0.  1.
         21   -1    0    0  502  503 -0.00000000000E+00 -0.00000000000E+00 -0.29064016016E+03  0.29064016016E+03  0.00000000000E+00 0.  1.
         -6    2    1    2    0  503 -0.19621511819E+02  0.12751627520E+03 -0.13886678842E+03  0.25519896133E+03  0.17087165000E+03 0.  0.
        -24    2    3    3    0    0  0.42025579796E+02  0.10727957820E+03 -0.12678593297E+03  0.18903307225E+03  0.79898512799E+02 0.  0.
          6    2    1    2  501    0  0.19621511819E+02 -0.12751627520E+03  0.29468549817E+02  0.21668312040E+03  0.17157440098E+03 0.  0.
         24    2    5    5    0    0  0.49272197527E+02 -0.11982383238E+03 -0.22686653894E+02  0.15601523669E+03  0.83908101865E+02 0.  0.
          5    1    5    5  501    0 -0.29650685708E+02 -0.76924428152E+01  0.52155203711E+02  0.60667883708E+02  0.47000000000E+01 0. -1.
        -11    1    6    6    0    0  0.20777399806E+02 -0.97425755855E+02  0.18319832767E+02  0.10128718833E+03  0.00000000000E+00 0.  1.
         12    1    6    6    0    0  0.28494797720E+02 -0.22398076525E+02 -0.41006486661E+02  0.54728048361E+02  0.00000000000E+00 0. -1.
         -5    1    3    3    0  503 -0.61647091615E+02  0.20236696997E+02 -0.12080855443E+02  0.66165889083E+02  0.47000000000E+01 0.  1.
         13    1    4    4    0    0  0.13714067607E+02 -0.98031192489E+01 -0.46439352707E+01  0.17485506345E+02  0.00000000000E+00 0. -1.
        -14    1    4    4    0    0  0.28311512188E+02  0.11708269745E+03 -0.12214199770E+03  0.17154756590E+03  0.00000000000E+00 0.  1.
</event>
<event>
12    1  0.1630640E-001  0.1920908E+03  0.7818608E-02  0.1157271E+00
         21   -1    0    0  503  502  0.00000000000E+00  0.00000000000E+00  0.17983805591E+02  0.17983805591E+02  0.00000000000E+00 0. -1.
         21   -1    0    0  501  503 -0.00000000000E+00 -0.00000000000E+00 -0.27048591751E+04  0.27048591751E+04  0.00000000000E+00 0. -1.
          6    2    1    2  501    0  0.72834973340E+01 -0.77426914255E+02 -0.66611961918E+03  0.69326346838E+03  0.17564428017E+03 0.  0.
         24    2    3    3    0    0  0.73609434660E+00 -0.12199531520E+03 -0.47416723110E+03  0.49604019355E+03  0.79611003016E+02 0.  0.
         -6    2    1    2    0  502 -0.72834973340E+01  0.77426914255E+02 -0.20207557504E+04  0.20295795123E+04  0.17231139803E+03 0.  0.
        -24    2    5    5    0    0  0.15341968577E+02 -0.10359583801E+02 -0.14189256489E+04  0.14209417367E+04  0.73367056061E+02 0.  0.
          5    1    3    3  501    0  0.65474029874E+01  0.44568400942E+02 -0.19195238808E+03  0.19722327483E+03  0.47000000000E+01 0. -1.
        -11    1    4    4    0    0  0.20025828900E+02 -0.10092870432E+03 -0.43815665157E+03  0.45007653626E+03  0.00000000000E+00 0.  1.
         12    1    4    4    0    0 -0.19289734554E+02 -0.21066610880E+02 -0.36010579535E+02  0.45963657291E+02  0.00000000000E+00 0. -1.
         -5    1    5    5    0  502 -0.22625465911E+02  0.87786498056E+02 -0.60183010147E+03  0.60863777568E+03  0.47000000000E+01 0.  1.
         11    1    6    6    0    0 -0.85179709170E+01  0.14598493249E+01 -0.12414208535E+04  0.12414509344E+04  0.00000000000E+00 0. -1.
        -12    1    6    6    0    0  0.23859939494E+02 -0.11819433126E+02 -0.17750479538E+03  0.17949080226E+03  0.00000000000E+00 0.  1.
</event>
<event>
12    1  0.1630640E-001  0.2359091E+03  0.7818608E-02  0.1122918E+00
         21   -1    0    0  503  502  0.00000000000E+00  0.00000000000E+00  0.76831633502E+03  0.76831633502E+03  0.00000000000E+00 0.  1.
         21   -1    0    0  501  503 -0.00000000000E+00 -0.00000000000E+00 -0.93325690704E+02  0.93325690704E+02  0.00000000000E+00 0.  1.
          6    2    1    2  501    0  0.15495726341E+03  0.48798013104E+02  0.54333307611E+03  0.59148129245E+03  0.16806632073E+03 0.  0.
         24    2    3    3    0    0  0.12231809707E+03  0.95583618446E+02  0.37961994759E+03  0.41805036529E+03  0.80974430089E+02 0.  0.
         -6    2    1    2    0  502 -0.15495726341E+03 -0.48798013104E+02  0.13165756821E+03  0.27016073327E+03  0.17105585921E+03 0.  0.
        -24    2    5    5    0    0 -0.53830575653E+02 -0.74536291318E+02  0.25980209579E+02  0.12157116409E+03  0.75174377617E+02 0.  0.
          5    1    3    3  501    0  0.32639166340E+02 -0.46785605343E+02  0.16371312852E+03  0.17343092716E+03  0.47000000000E+01 0. -1.
        -13    1    4    4    0    0  0.12966134796E+03  0.88393784481E+02  0.37551236548E+03  0.40698287791E+03  0.00000000000E+00 0.  1.
         14    1    4    4    0    0 -0.73432508872E+01  0.71898339652E+01  0.41075821081E+01  0.11067487376E+02  0.00000000000E+00 0. -1.
         -5    1    5    5    0  502 -0.10112668776E+03  0.25738278215E+02  0.10567735863E+03  0.14858956918E+03  0.47000000000E+01 0.  1.
         13    1    6    6    0    0  0.51222684857E+01 -0.52859578462E+01 -0.18806870935E+02  0.20195974330E+02  0.00000000000E+00 0. -1.
        -14    1    6    6    0    0 -0.58952844139E+02 -0.69250333472E+02  0.44787080514E+02  0.10137518976E+03  0.00000000000E+00 0.  1.
</event>
<event>
12    1  0.1630640E-001  0.2239964E+03  0.7818608E-02  0.1133800E+00
         21   -1    0    0  503  502  0.00000000000E+00  0.00000000000E+00  0.10804782344E+03  0.10804782344E+03  0.00000000000E+00 0.  1.
         21   -1    0    0  501  503 -0.00000000000E+00 -0.00000000000E+00 -0.45080297851E+03  0.45080297851E+03  0.00000000000E+00 0.  1.
          6    2    1    2  501    0  0.79097032605E+02  0.87227390925E+02 -0.22029383173E+03  0.30356441077E+03  0.17250223446E+03 0.  0.
         24    2    3    3    0    0  0.24891072703E+02 -0.20619765996E+02 -0.69540444482E+02  0.11038581695E+03  0.79400345809E+02 0.  0.
         -6    2    1    2    0  502 -0.79097032605E+02 -0.87227390925E+02 -0.12246132334E+03  0.25528639118E+03  0.19055027555E+03 0.  0.
        -24    2    5    5    0    0 -0.25583953991E+02 -0.45556795226E+02 -0.15317668872E+03  0.18068336309E+03  0.80333177688E+02 0.  0.
          5    1    3    3  501    0  0.54205959901E+02  0.10784715692E+03 -0.15075338725E+03  0.19317859383E+03  0.47000000000E+01 0. -1.
        -13    1    4    4    0    0  0.64371266916E+01 -0.47366564313E+00  0.17767241996E+02  0.18903329002E+02  0.00000000000E+00 0.  1.
         14    1    4    4    0    0  0.18453946012E+02 -0.20146100353E+02 -0.87307686478E+02  0.91482487947E+02  0.00000000000E+00 0. -1.
         -5    1    5    5    0  502 -0.53513078614E+02 -0.41670595699E+02  0.30715365384E+02  0.74603028084E+02  0.47000000000E+01 0.  1.
         13    1    6    6    0    0  0.14971515001E+02 -0.23149998321E+02 -0.86243364599E+01  0.28886811230E+02  0.00000000000E+00 0. -1.
        -14    1    6    6    0    0 -0.40555468992E+02 -0.22406796905E+02 -0.14455235226E+03  0.15179655186E+03  0.00000000000E+00 0.  1.
</event>
<event>
12    1  0.1630640E-001  0.1843048E+03  0.7818608E-02  0.1164358E+00
         21   -1    0    0  503  502  0.00000000000E+00  0.00000000000E+00  0.17894881266E+03  0.17894881266E+03  0.00000000000E+00 0. -1.
         21   -1    0    0  501  503 -0.00000000000E+00 -0.00000000000E+00 -0.18723403626E+03  0.18723403626E+03  0.00000000000E+00 0. -1.
          6    2    1    2  501    0 -0.67370369653E+02 -0.29341936195E+01  0.27676481090E+01  0.18154689601E+03  0.16853557303E+03 0.  0.
         24    2    3    3    0    0 -0.32214216720E+02 -0.32574218175E+02 -0.55706885961E+02  0.10700933984E+03  0.79050023541E+02 0.  0.
         -6    2    1    2    0  502  0.67370369653E+02  0.29341936195E+01 -0.11052871709E+02  0.18463595292E+03  0.17152519622E+03 0.  0.
        -24    2    5    5    0    0  0.71297802478E+02  0.25133731498E+02 -0.63648478920E+02  0.12721964767E+03  0.80116345316E+02 0.  0.
          5    1    3    3  501    0 -0.35156152933E+02  0.29640024555E+02  0.58474534070E+02  0.74537556167E+02  0.47000000000E+01 0. -1.
        -11    1    4    4    0    0 -0.17818530477E+01  0.10313519777E+02  0.15368798968E+02  0.18594183827E+02  0.00000000000E+00 0.  1.
         12    1    4    4    0    0 -0.30432363673E+02 -0.42887737952E+02 -0.71075684929E+02  0.88415156017E+02  0.00000000000E+00 0. -1.
         -5    1    5    5    0  502 -0.39274328245E+01 -0.22199537878E+02  0.52595607211E+02  0.57416305249E+02  0.47000000000E+01 0.  1.
         13    1    6    6    0    0  0.12644649574E+02  0.11235616919E+02  0.18669122787E+02  0.25192506744E+02  0.00000000000E+00 0. -1.
        -14    1    6    6    0    0  0.58653152904E+02  0.13898114579E+02 -0.82317601707E+02  0.10202714092E+03  0.00000000000E+00 0.  1.
</event>
<event>
12    1  0.1630640E-001  0.1887345E+03  0.7818608E-02  0.1159906E+00
         21   -1    0    0  501  502  0.00000000000E+00  0.00000000000E+00  0.39322853218E+03  0.39322853218E+03  0.00000000000E+00 0.  1.
         21   -1    0    0  502  503 -0.00000000000E+00 -0.00000000000E+00 -0.14767463222E+03  0.14767463222E+03  0.00000000000E+00 0.  1.
         -6    2    1    2    0  503  0.57934760829E+02  0.51864887552E+02 -0.46557459672E+02  0.19312484095E+03  0.17053798423E+03 0.  0.
        -24    2    3    3    0    0 -0.19845781454E+02  0.24895432365E+02  0.19436456681E+02  0.87510205281E+02  0.79162002160E+02 0.  0.
          6    2    1    2  501    0 -0.57934760829E+02 -0.51864887552E+02  0.29211135964E+03  0.34777832346E+03  0.17197183713E+03 0.  0.
         24    2    5    5    0    0 -0.34261902672E+02  0.25613524653E+02  0.82791614808E+02  0.12327853694E+03  0.80704495340E+02 0.  0.
          5    1    5    5  501    0 -0.23672858157E+02 -0.77478412204E+02  0.20931974483E+03  0.22449978652E+03  0.47000000000E+01 0. -1.
        -13    1    6    6    0    0  0.20329355038E+02 -0.95593356039E+01  0.71303867309E+01  0.23569174537E+02  0.00000000000E+00 0.  1.
         14    1    6    6    0    0 -0.54591257710E+02  0.35172860257E+02  0.75661228077E+02  0.99709362405E+02  0.00000000000E+00 0. -1.
         -5    1    3    3    0  503  0.77780542283E+02  0.26969455187E+02 -0.65993916353E+02  0.10561463566E+03  0.47000000000E+01 0.  1.
         13    1    4    4    0    0  0.21017510163E+02  0.17630787771E+02  0.33853596624E+02  0.43573459988E+02  0.00000000000E+00 0. -1.
        -14    1    4    4    0    0 -0.40863291617E+02  0.72646445938E+01 -0.14417139943E+02  0.43936745294E+02  0.00000000000E+00 0.  1.
</event>
<event>
12    1  0.1630640E-001  0.1961472E+03  0.7818608E-02  0.1153395E+00
         21   -1    0    0  501  502  0.00000000000E+00  0.00000000000E+00  0.11274271400E+03  0.11274271400E+03  0.00000000000E+00 0. -1.
         21   -1    0    0  502  503 -0.00000000000E+00 -0.00000000000E+00 -0.44235817645E+03  0.44235817645E+03  0.00000000000E+00 0. -1.
         -6    2    1    2    0  503 -0.60614782950E+02  0.69562401708E+02 -0.29885147224E+03  0.35655581510E+03  0.17119219369E+03 0.  0.
        -24    2    3    3    0    0 -0.33431902936E+02  0.86059583523E+02 -0.10905562339E+03  0.16405745091E+03  0.80608772213E+02 0.  0.
          6    2    1    2  501    0  0.60614782950E+02 -0.69562401708E+02 -0.30763990210E+02  0.19854507536E+03  0.17309143310E+03 0.  0.
         24    2    5    5    0    0 -0.31887538810E+02 -0.57294701447E+02 -0.86329863178E+01  0.10252920514E+03  0.78346738977E+02 0.  0.
          5    1    5    5  501    0  0.92502321759E+02 -0.12267700261E+02 -0.22131003893E+02  0.96015870218E+02  0.47000000000E+01 0. -1.
        -11    1    6    6    0    0 -0.37851383873E+02  0.59378336184E+01  0.78046838962E+00  0.38322242368E+02  0.00000000000E+00 0.  1.
         12    1    6    6    0    0  0.59638450633E+01 -0.63232535066E+02 -0.94134547074E+01  0.64206962771E+02  0.00000000000E+00 0. -1.
         -5    1    3    3    0  503 -0.27182880013E+02 -0.16497181815E+02 -0.18979584885E+03  0.19249836418E+03  0.47000000000E+01 0.  1.
         11    1    4    4    0    0 -0.12456992743E+02  0.33843788504E+02  0.54493004145E+01  0.36472915478E+02  0.00000000000E+00 0. -1.
        -12    1    4    4    0    0 -0.20974910193E+02  0.52215795019E+02 -0.11450492380E+03  0.12758453544E+03  0.00000000000E+00 0.  1.
</event>
<event>
12    1  0.1630640E-001  0.1752182E+03  0.7818608E-02  0.1172905E+00
         21   -1    0    0  501  502  0.00000000000E+00  0.00000000000E+00  0.19397549688E+03  0.19397549688E+03  0.00000000000E+00 0.  1.
         21   -1    0    0  502  503 -0.00000000000E+00 -0.00000000000E+00 -0.16158526156E+03  0.16158526156E+03  0.00000000000E+00 0.  1.
         -6    2    1    2    0  503  0.18462773700E+02 -0.25119914023E+02 -0.14102123304E+02  0.17578477148E+03  0.17242253886E+03 0.  0.
        -24    2    3    3    0    0  0.44955687578E+02  0.70385623298E+01  0.47221696360E+02  0.10149652917E+03  0.77466777530E+02 0.  0.
          6    2    1    2  501    0 -0.18462773700E+02  0.25119914023E+02  0.46492358624E+02  0.17977598696E+03  0.17083905286E+03 0.  0.
         24    2    5    5    0    0 -0.60885456676E+02  0.19956539376E+02 -0.15492316904E+02  0.10434035566E+03  0.80880131293E+02 0.  0.
          5    1    5    5  501    0  0.42422682976E+02  0.51633746468E+01  0.61984675528E+02  0.75435631296E+02  0.47000000000E+01 0. -1.
        -11    1    6    6    0    0 -0.28477342785E+02  0.42830743815E+02  0.15810945155E+02  0.53809085242E+02  0.00000000000E+00 0.  1.
         12    1    6    6    0    0 -0.32408113890E+02 -0.22874204439E+02 -0.31303262059E+02  0.50531270419E+02  0.00000000000E+00 0. -1.
         -5    1    3    3    0  503 -0.26492913878E+02 -0.32158476353E+02 -0.61323819664E+02  0.74288242308E+02  0.47000000000E+01 0.  1.
         11    1    4    4    0    0  0.30301216408E+02  0.34413154170E+02  0.10611310317E+01  0.45864527631E+02  0.00000000000E+00 0. -1.
        -12    1    4    4    0    0  0.14654471170E+02 -0.27374591840E+02  0.46160565328E+02  0.55632001537E+02  0.00000000000E+00 0.  1.
</event>
<event>
12    1  0.1630640E-001  0.2063040E+03  0.7818608E-02  0.1145542E+00
         21   -1    0    0  503  502  0.00000000000E+00  0.00000000000E+00  0.17104497334E+03  0.17104497334E+03  0.00000000000E+00 0.  1.
         21   -1    0    0  501  503 -0.00000000000E+00 -0.00000000000E+00 -0.44807538811E+03  0.44807538811E+03  0.00000000000E+00 0. -1.
          6    2    1    2  501    0 -0.11229453242E+03 -0.15544433887E+02 -0.34889374851E+03  0.40532479705E+03  0.17236488017E+03 0.  0.
         24    2    3    3    0    0 -0.12302256733E+03  0.18311366255E+02 -0.33556303991E+03  0.36710041049E+03  0.81794250525E+02 0.  0.
         -6    2    1    2    0  502  0.11229453242E+03  0.15544433887E+02  0.71863333734E+02  0.21379556440E+03  0.16641067629E+03 0.  0.
        -24    2    5    5    0    0  0.55767691626E+02  0.13876384140E+02 -0.25070779298E+02  0.10147291134E+03  0.79784824969E+02 0.  0.
          5    1    3    3  501    0  0.10728034913E+02 -0.33855800143E+02 -0.13330708604E+02  0.38224386565E+02  0.47000000000E+01 0. -1.
        -11    1    4    4    0    0 -0.21729698632E+02  0.39770671111E+02 -0.10128157415E+03  0.11095874614E+03  0.00000000000E+00 0.  1.
         12    1    4    4    0    0 -0.10129286870E+03 -0.21459304855E+02 -0.23428146576E+03  0.25614166435E+03  0.00000000000E+00 0. -1.
         -5    1    5    5    0  502  0.56526840796E+02  0.16680497475E+01  0.96934113032E+02  0.11232265306E+03  0.47000000000E+01 0.  1.
         11    1    6    6    0    0  0.39975218818E+01  0.29056929327E+02 -0.35990989559E+02  0.46428834279E+02  0.00000000000E+00 0. -1.
        -12    1    6    6    0    0  0.51770169744E+02 -0.15180545187E+02  0.10920210260E+02  0.55044077062E+02  0.00000000000E+00 0.  1.
</event>
<event>
12    1  0.1630640E-001  0.2070738E+03  0.7818608E-02  0.1144143E+00
         21   -1    0    0  501  502  0.00000000000E+00  0.00000000000E+00  0.21870891102E+03  0.21870891102E+03  0.00000000000E+00 0. -1.
         21   -1    0    0  502  503 -0.00000000000E+00 -0.00000000000E+00 -0.47253376711E+03  0.47253376711E+03  0.00000000000E+00 0.  1.
         -6    2    1    2    0  503 -0.19197538633E+02 -0.11148889444E+03 -0.39166520555E+03  0.44248673490E+03  0.17203068984E+03 0.  0.
        -24    2    3    3    0    0 -0.50908070046E+02 -0.68592084140E+02 -0.35956019575E+03  0.38004863923E+03  0.88639315250E+02 0.  0.
          6    2    1    2  501    0  0.19197538633E+02  0.11148889444E+03  0.13784034946E+03  0.24875594323E+03  0.17343943692E+03 0.  0.
         24    2    5    5    0    0 -0.48278374604E+01  0.14447114217E+03  0.10592512079E+03  0.19673941525E+03  0.81185265685E+02 0.  0.
          5    1    5    5  501    0  0.24025376094E+02 -0.32982247728E+02  0.31915228669E+02  0.52016527975E+02  0.47000000000E+01 0. -1.
        -11    1    6    6    0    0  0.32916726151E+02  0.27604209095E+02  0.26132809187E+02  0.50283465834E+02  0.00000000000E+00 0.  1.
         12    1    6    6    0    0 -0.37744563612E+02  0.11686693308E+03  0.79792311606E+02  0.14645594942E+03  0.00000000000E+00 0. -1.
         -5    1    3    3    0  503  0.31710531413E+02 -0.42896810303E+02 -0.32105009800E+02  0.62438095670E+02  0.47000000000E+01 0.  1.
         13    1    4    4    0    0 -0.48257437548E+02 -0.26249097313E+02 -0.78548134476E+02  0.95851994336E+02  0.00000000000E+00 0. -1.
        -14    1    4    4    0    0 -0.26506324980E+01 -0.42342986827E+02 -0.28101206127E+03  0.28419664489E+03  0.00000000000E+00 0.  1.
</event>
<event>
12    1  0.1630640E-001  0.1896920E+03  0.7818608E-02  0.1159998E+00
         21   -1    0    0  501  502  0.00000000000E+00  0.00000000000E+00  0.34331830059E+03  0.34331830059E+03  0.00000000000E+00 0.  1.
         21   -1    0    0  502  503 -0.00000000000E+00 -0.00000000000E+00 -0.28794438862E+03  0.28794438862E+03  0.00000000000E+00 0.  1.
         -6    2    1    2    0  503  0.19205196164E+02 -0.73825380332E+02 -0.22622183633E+03  0.29173474517E+03  0.16767175065E+03 0.  0.
        -24    2    3    3    0    0  0.58213620468E+02 -0.29516519092E+02 -0.70698282521E+02  0.12531780450E+03  0.80288569962E+02 0.  0.
          6    2    1    2  501    0 -0.19205196164E+02  0.73825380332E+02  0.28159574831E+03  0.33952794404E+03  0.17367795766E+03 0.  0.
         24    2    5    5    0    0 -0.71720031797E+01  0.37414968752E+02  0.48683402317E+02  0.10343311834E+03  0.82927792642E+02 0.  0.
          5    1    5    5  501    0 -0.12033192984E+02  0.36410411581E+02  0.23291234599E+03  0.23609482570E+03  0.47000000000E+01 0. -1.
        -11    1    6    6    0    0 -0.44862197307E+02  0.18954808773E+02  0.31978331347E+02  0.58262468181E+02  0.00000000000E+00 0.  1.
         12    1    6    6    0    0  0.37690194127E+02  0.18460159979E+02  0.16705070970E+02  0.45170650160E+02  0.00000000000E+00 0. -1.
         -5    1    3    3    0  503 -0.39008424304E+02 -0.44308861241E+02 -0.15552355381E+03  0.16641694067E+03  0.47000000000E+01 0.  1.
         11    1    4    4    0    0 -0.15711461768E+02 -0.23563299044E+02 -0.12100904824E+02  0.30797905615E+02  0.00000000000E+00 0. -1.
        -12    1    4    4    0    0  0.73925082236E+02 -0.59532200476E+01 -0.58597377697E+02  0.94519898887E+02  0.00000000000E+00 0.  1.
</event>
<event>
12    1  0.1630640E-001  0.1802008E+03  0.7818608E-02  0.1168149E+00
         21   -1    0    0  503  502  0.00000000000E+00  0.00000000000E+00  0.12098029101E+03  0.12098029101E+03  0.00000000000E+00 0.  1.
         21   -1    0    0  501  503 -0.00000000000E+00 -0.00000000000E+00 -0.33145592820E+03  0.33145592820E+03  0.00000000000E+00 0.  1.
          6    2    1    2  501    0  0.22479410004E+02  0.50687854547E+02 -0.20696838351E+03  0.27442345088E+03  0.17145768034E+03 0.  0.
         24    2    3    3    0    0 -0.49737034435E+02  0.50465390247E+02 -0.13491254683E+03  0.17229902707E+03  0.80405417930E+02 0.  0.
         -6    2    1    2    0  502 -0.22479410004E+02 -0.50687854547E+02 -0.35072536884E+01  0.17801276833E+03  0.16912026013E+03 0.  0.
        -24    2    5    5    0    0 -0.58264100324E+02  0.10345874631E+02 -0.25924572339E+02  0.10364687336E+03  0.81048432421E+02 0.  0.
          5    1    3    3  501    0  0.72216444440E+02  0.22246429935E+00 -0.72055836682E+02  0.10212442381E+03  0.47000000000E+01 0. -1.
        -11    1    4    4    0    0 -0.64394403479E+02  0.31927555620E+02 -0.59617185880E+02  0.93382101387E+02  0.00000000000E+00 0.  1.
         12    1    4    4    0    0  0.14657369043E+02  0.18537834628E+02 -0.75295360947E+02  0.78916925688E+02  0.00000000000E+00 0. -1.
         -5    1    5    5    0  502  0.35784690320E+02 -0.61033729178E+02  0.22417318650E+02  0.74365894966E+02  0.47000000000E+01 0.  1.
         13    1    6    6    0    0 -0.22616335010E+02 -0.33835368616E+02 -0.23123890587E+02  0.46808600647E+02  0.00000000000E+00 0. -1.
        -14    1    6    6    0    0 -0.35647765314E+02  0.44181243247E+02 -0.28006817515E+01  0.56838272713E+02  0.00000000000E+00 0.  1.
</event>
<event>
12    1  0.1630640E-001  0.1906637E+03  0.7818608E-02  0.1158032E+00
         21   -1    0    0  501  502  0.00000000000E+00  0.00000000000E+00  0.12388489617E+03  0.12388489617E+03  0.00000000000E+00 0. -1.
         21   -1    0    0  502  503 -0.00000000000E+00 -0.00000000000E+00 -0.51774810747E+03  0.51774810747E+03  0.00000000000E+00 0. -1.
         -6    2    1    2    0  503  0.68969813358E+02  0.45119738966E+02 -0.40841701908E+03  0.45041465777E+03  0.17110311647E+03 0.  0.
        -24    2    3    3    0    0  0.26848101032E+02 -0.39983220767E+02 -0.21523871631E+03  0.23510859872E+03  0.81417871026E+02 0.  0.
          6    2    1    2  501    0 -0.68969813358E+02 -0.45119738966E+02  0.14553807781E+02  0.19121834586E+03  0.17193026632E+03 0.  0.
         24    2    5    5    0    0 -0.42479387827E+02  0.48650728974E+01  0.64337572968E+02  0.11571511853E+03  0.86153920610E+02 0.  0.
          5    1    5    5  501    0 -0.26490425531E+02 -0.49984811864E+02 -0.49783765187E+02  0.75503227335E+02  0.47000000000E+01 0. -1.
        -11    1    6    6    0    0 -0.53077436037E+02  0.15580195325E+02  0.62085750310E+01  0.55664199505E+02  0.00000000000E+00 0.  1.
         12    1    6    6    0    0  0.10598048210E+02 -0.10715122428E+02  0.58128997937E+02  0.60050919024E+02  0.00000000000E+00 0. -1.
         -5    1    3    3    0  503  0.42121712326E+02  0.85102959733E+02 -0.19317830277E+03  0.21530605905E+03  0.47000000000E+01 0.  1.
         13    1    4    4    0    0  0.51553126475E+02 -0.20112911029E+02 -0.17693061511E+03  0.18538256823E+03  0.00000000000E+00 0. -1.
        -14    1    4    4    0    0 -0.24705025443E+02 -0.19870309738E+02 -0.38308101200E+02  0.49726030495E+02  0.00000000000E+00 0.  1.
</event>
<event>
12    1  0.1630640E-001  0.1989114E+03  0.7818608E-02  0.1150709E+00
         21   -1    0    0  503  502  0.00000000000E+00  0.00000000000E+00  0.35386621341E+03  0.35386621341E+03  0.00000000000E+00 0.  1.
         21   -1    0    0  501  503 -0.00000000000E+00 -0.00000000000E+00 -0.11362239068E+03  0.11362239068E+03  0.00000000000E+00 0.  1.
          6    2    1    2  501    0  0.31105901558E+02  0.96479239370E+02  0.89500257311E+02  0.21791019222E+03  0.17087637365E+03 0.  0.
         24    2    3    3    0    0  0.86465631876E+02  0.70938250540E+02  0.56560210809E+02  0.14845388570E+03  0.79567316452E+02 0.  0.
         -6    2    1    2    0  502 -0.31105901558E+02 -0.96479239370E+02  0.15074356541E+03  0.24957841188E+03  0.17114304082E+03 0.  0.
        -24    2    5    5    0    0 -0.29362099684E+02 -0.80587566825E+02  0.18072960478E+03  0.21527332977E+03  0.79516838743E+02 0.  0.
          5    1    3    3  501    0 -0.55359730318E+02  0.25540988830E+02  0.32940046503E+02  0.69456306516E+02  0.47000000000E+01 0. -1.
        -13    1    4    4    0    0  0.45690386670E+02  0.52595249769E+02 -0.77810017341E+01  0.70102893809E+02  0.00000000000E+00 0.  1.
         14    1    4    4    0    0  0.40775245206E+02  0.18343000770E+02  0.64341212543E+02  0.78350991891E+02  0.00000000000E+00 0. -1.
         -5    1    5    5    0  502 -0.17438018743E+01 -0.15891672545E+02 -0.29986039366E+02  0.34305082103E+02  0.47000000000E+01 0.  1.
         13    1    6    6    0    0 -0.41840128119E+02 -0.17384901724E+02  0.11326112984E+03  0.12198735451E+03  0.00000000000E+00 0. -1.
        -14    1    6    6    0    0  0.12478028435E+02 -0.63202665101E+02  0.67468474942E+02  0.93285975261E+02  0.00000000000E+00 0.  1.
</event>
<event>
12    1  0.1630640E-001  0.1858756E+03  0.7818608E-02  0.1162354E+00
         21   -1    0    0  501  502  0.00000000000E+00  0.00000000000E+00  0.40715089220E+03  0.40715089220E+03  0.00000000000E+00 0. -1.
         21   -1    0    0  502  503 -0.00000000000E+00 -0.00000000000E+00 -0.14627846638E+03  0.14627846638E+03  0.00000000000E+00 0.  1.
         -6    2    1    2    0  503  0.48971513753E+02 -0.50167296638E+02 -0.49318792926E+02  0.19181029310E+03  0.17159218628E+03 0.  0.
        -24    2    3    3    0    0  0.42074465523E+02 -0.82839061587E+02  0.64324460725E+01  0.12665429453E+03  0.85833345425E+02 0.  0.
          6    2    1    2  501    0 -0.48971513753E+02  0.50167296638E+02  0.31019121874E+03  0.36161906548E+03  0.17214758065E+03 0.  0.
         24    2    5    5    0    0 -0.79210655032E+02  0.27401969897E+02  0.11503784321E+03  0.16277340737E+03  0.78970126959E+02 0.  0.
          5    1    5    5  501    0  0.30239141280E+02  0.22765326741E+02  0.19515337553E+03  0.19884565811E+03  0.47000000000E+01 0. -1.
        -11    1    6    6    0    0  0.14758319529E+02  0.13623369882E+02  0.22719395733E+02  0.30324497436E+02  0.00000000000E+00 0.  1.
         12    1    6    6    0    0 -0.93968974561E+02  0.13778600015E+02  0.92318447478E+02  0.13244890994E+03  0.00000000000E+00 0. -1.
         -5    1    3    3    0  503  0.68970482292E+01  0.32671764949E+02 -0.55751238999E+02  0.65155998566E+02  0.47000000000E+01 0.  1.
         11    1    4    4    0    0  0.43035942245E+02 -0.19187003794E+01 -0.96484462671E+01  0.44145965291E+02  0.00000000000E+00 0. -1.
        -12    1    4    4    0    0 -0.96147672194E+00 -0.80920361208E+02  0.16080892340E+02  0.82508329240E+02  0.00000000000E+00 0.  1.
</event>
<event>
12    1  0.1630640E-001  0.2184721E+03  0.7818608E-02  0.1135312E+00
         21   -1    0    0  503  502  0.00000000000E+00  0.00000000000E+00  0.25726579817E+02  0.25726579817E+02  0.00000000000E+00 0. -1.
         21   -1    0    0  501  503 -0.00000000000E+00 -0.00000000000E+00 -0.21642428384E+04  0.21642428384E+04  0.00000000000E+00 0. -1.
          6    2    1    2  501    0 -0.13102633112E+03 -0.24834403002E+02 -0.64391149651E+03  0.67948159547E+03  0.17113905525E+03 0.  0.
         24    2    3    3    0    0 -0.95651214463E+02  0.78367928185E+01 -0.60430008158E+03  0.61695192166E+03  0.78996929630E+02 0.  0.
         -6    2    1    2    0  502  0.13102633112E+03  0.24834403002E+02 -0.14946047620E+04  0.15104878227E+04  0.17304745250E+03 0.  0.
        -24    2    5    5    0    0  0.14544837676E+03  0.59042123377E+02 -0.13128933081E+04  0.13249634145E+04  0.84841079538E+02 0.  0.
          5    1    3    3  501    0 -0.35375116659E+02 -0.32671195821E+02 -0.39611414931E+02  0.62529673818E+02  0.47000000000E+01 0. -1.
        -13    1    4    4    0    0 -0.42144308725E+02  0.32342044124E+02 -0.15581934324E+03  0.16462629895E+03  0.00000000000E+00 0.  1.
         14    1    4    4    0    0 -0.53506905738E+02 -0.24505251306E+02 -0.44848073833E+03  0.45232562271E+03  0.00000000000E+00 0. -1.
         -5    1    5    5    0  502 -0.14422045638E+02 -0.34207720375E+02 -0.18171145397E+03  0.18552440820E+03  0.47000000000E+01 0.  1.
         13    1    6    6    0    0  0.24548894188E+02  0.17370148750E+02 -0.59568973427E+03  0.59644834628E+03  0.00000000000E+00 0. -1.
        -14    1    6    6    0    0  0.12089948257E+03  0.41671974627E+02 -0.71720357380E+03  0.72851506823E+03  0.00000000000E+00 0.  1.
</event>
<event>
12    1  0.1630640E-001  0.2614872E+03  0.7818608E-02  0.1106347E+00
         21   -1    0    0  503  502  0.00000000000E+00  0.00000000000E+00  0.48810685933E+03  0.48810685933E+03  0.00000000000E+00 0. -1.
         21   -1    0    0  501  503 -0.00000000000E+00 -0.00000000000E+00 -0.51533730693E+03  0.51533730693E+03  0.00000000000E+00 0. -1.
          6    2    1    2  501    0  0.56931200723E+01  0.19643394146E+03 -0.44193728882E+03  0.51318166303E+03  0.17154634083E+03 0.  0.
         24    2    3    3    0    0 -0.63576298667E+02  0.10930517178E+03 -0.23933675359E+03  0.28197019759E+03  0.78965463202E+02 0.  0.
         -6    2    1    2    0  502 -0.56931200723E+01 -0.19643394146E+03  0.41470684122E+03  0.49026250323E+03  0.17250174765E+03 0.  0.
        -24    2    5    5    0    0 -0.56667425039E+02 -0.93920950230E+02  0.29029397479E+03  0.32112367128E+03  0.82568023520E+02 0.  0.
          5    1    3    3  501    0  0.69269418739E+02  0.87128769672E+02 -0.20260053523E+03  0.23121146544E+03  0.47000000000E+01 0. -1.
        -13    1    4    4    0    0 -0.72155425362E+02  0.78973003257E+02 -0.13092936004E+03  0.16907287770E+03  0.00000000000E+00 0.  1.
         14    1    4    4    0    0  0.85791266946E+01  0.30332168528E+02 -0.10840739355E+03  0.11289731989E+03  0.00000000000E+00 0. -1.
         -5    1    5    5    0  502  0.50974304966E+02 -0.10251299123E+03  0.12441286643E+03  0.16913883194E+03  0.47000000000E+01 0.  1.
         11    1    6    6    0    0 -0.16160780355E+02 -0.94467969255E+02  0.18603722350E+03  0.20927306698E+03  0.00000000000E+00 0. -1.
        -12    1    6    6    0    0 -0.40506644684E+02  0.54701902460E+00  0.10425675129E+03  0.11185060430E+03  0.00000000000E+00 0.  1.
</event>
<event>
12    1  0.1630640E-001  0.2307150E+03  0.7818608E-02  0.1126658E+00
         21   -1    0    0  503  502  0.00000000000E+00  0.00000000000E+00  0.13706058522E+04  0.13706058522E+04  0.00000000000E+00 0.  1.
         21   -1    0    0  501  503 -0.00000000000E+00 -0.00000000000E+00 -0.38932363335E+02  0.38932363335E+02  0.00000000000E+00 0.  1.
          6    2    1    2  501    0 -0.45000399029E+02  0.14271704307E+03  0.58321292275E+03  0.62718954942E+03  0.17560246966E+03 0.  0.
         24    2    3    3    0    0 -0.62500843290E+02  0.86061708991E+02  0.20450125088E+03  0.24383499703E+03  0.79509565462E+02 0.  0.
         -6    2    1    2    0  502  0.45000399029E+02 -0.14271704307E+03  0.74846056612E+03  0.78234866611E+03  0.17170622015E+03 0.  0.
        -24    2    5    5    0    0  0.80852987993E+02 -0.54631949765E+02  0.31969427941E+03  0.34313686024E+03  0.77566854824E+02 0.  0.
          5    1    3    3  501    0  0.17500444261E+02  0.56655334079E+02  0.37871167187E+03  0.38335455239E+03  0.47000000000E+01 0. -1.
        -13    1    4    4    0    0 -0.13634564589E+02  0.62323507580E+02  0.16429924441E+03  0.17625085152E+03  0.00000000000E+00 0.  1.
         14    1    4    4    0    0 -0.48866278701E+02  0.23738201411E+02  0.40202006472E+02  0.67584145513E+02  0.00000000000E+00 0. -1.
         -5    1    5    5    0  502 -0.35852588964E+02 -0.88085093306E+02  0.42876628671E+03  0.43921180587E+03  0.47000000000E+01 0.  1.
         11    1    6    6    0    0  0.74920064094E+02 -0.62057826051E+02  0.19344036287E+03  0.21652566538E+03  0.00000000000E+00 0. -1.
        -12    1    6    6    0    0  0.59329238987E+01  0.74258762866E+01  0.12625391654E+03  0.12661119487E+03  0.00000000000E+00 0.  1.
</event>
<event>
12    1  0.1630640E-001  0.1779911E+03  0.7818608E-02  0.1171515E+00
         21   -1    0    0  501  502  0.00000000000E+00  0.00000000000E+00  0.18353016758E+03  0.18353016758E+03  0.00000000000E+00 0.  1.
         21   -1    0    0  502  503 -0.00000000000E+00 -0.00000000000E+00 -0.17804211202E+03  0.17804211202E+03  0.00000000000E+00 0. -1.
         -6    2    1    2    0  503  0.17673408516E+02  0.40064625564E+02  0.49983233265E+02  0.18487601822E+03  0.17252041884E+03 0.  0.
        -24    2    3    3    0    0  0.32704513298E+02  0.85505249615E+02  0.10359650835E+02  0.12256307647E+03  0.80831011670E+02 0.  0.
          6    2    1    2  501    0 -0.17673408516E+02 -0.40064625564E+02 -0.44495177706E+02  0.17669626138E+03  0.16530040640E+03 0.  0.
         24    2    5    5    0    0  0.70741201737E+01 -0.78944796425E+02 -0.59884038017E+02  0.12788012794E+03  0.80528908186E+02 0.  0.
          5    1    5    5  501    0 -0.24747528690E+02  0.38880170861E+02  0.15388860311E+02  0.48816133440E+02  0.47000000000E+01 0. -1.
        -13    1    6    6    0    0 -0.71610540304E+01 -0.40125943688E+02  0.14097206960E+02  0.43128914845E+02  0.00000000000E+00 0.  1.
         14    1    6    6    0    0  0.14235174204E+02 -0.38818852738E+02 -0.73981244977E+02  0.84751213094E+02  0.00000000000E+00 0. -1.
         -5    1    3    3    0  503 -0.15031104783E+02 -0.45440624050E+02  0.39623582430E+02  0.62312941751E+02  0.47000000000E+01 0.  1.
         13    1    4    4    0    0  0.29581458123E+02  0.10736262239E+02  0.31778874226E+02  0.44723895611E+02  0.00000000000E+00 0. -1.
        -14    1    4    4    0    0  0.31230551754E+01  0.74768987375E+02 -0.21419223390E+02  0.77839180863E+02  0.00000000000E+00 0.  1.
</event>
<event>
12    1  0.1630640E-001  0.2481043E+03  0.7818608E-02  0.1115148E+00
         21   -1    0    0  503  502  0.00000000000E+00  0.00000000000E+00  0.44610983967E+03  0.44610983967E+03  0.00000000000E+00 0.  1.
         21   -1    0    0  501  503 -0.00000000000E+00 -0.00000000000E+00 -0.15331603266E+03  0.15331603266E+03  0.00000000000E+00 0. -1.
          6    2    1    2  501    0  0.14398765988E+03  0.10624931389E+03  0.43994507995E+02  0.24806159863E+03  0.16606527958E+03 0.  0.
         24    2    3    3    0    0  0.13993095324E+03  0.97074271923E+02 -0.14046150719E+02  0.18897313675E+03  0.80681262498E+02 0.  0.
         -6    2    1    2    0  502 -0.14398765988E+03 -0.10624931389E+03  0.24879929902E+03  0.35136427369E+03  0.17185574979E+03 0.  0.
        -24    2    5    5    0    0 -0.86861468327E+02 -0.60061689140E+02  0.53627797223E+02  0.14277207932E+03  0.79722047233E+02 0.  0.
          5    1    3    3  501    0  0.40567066410E+01  0.91750419644E+01  0.58040658715E+02  0.59088461884E+02  0.47000000000E+01 0. -1.
        -11    1    4    4    0    0 -0.10573122677E+00  0.12626329905E+02  0.18341641918E+02  0.22267716861E+02  0.00000000000E+00 0.  1.
         12    1    4    4    0    0  0.14003668447E+03  0.84447942019E+02 -0.32387792637E+02  0.16670541989E+03  0.00000000000E+00 0. -1.
         -5    1    5    5    0  502 -0.57126191557E+02 -0.46187624747E+02  0.19517150180E+03  0.20859219438E+03  0.47000000000E+01 0.  1.
         13    1    6    6    0    0 -0.96295963497E+02 -0.67810264681E+02  0.39783454320E+02  0.12431358663E+03  0.00000000000E+00 0. -1.
        -14    1    6    6    0    0  0.94344951700E+01  0.77485755409E+01  0.13844342903E+02  0.18458492692E+02  0.00000000000E+00 0.  1.
</event>
<event>
12    1  0.1630640E-001  0.1813616E+03  0.7818608E-02  0.1166571E+00
         21   -1    0    0  501  502  0.00000000000E+00  0.00000000000E+00  0.38990602783E+03  0.38990602783E+03  0.00000000000E+00 0. -1.
         21   -1    0    0  502  503 -0.00000000000E+00 -0.00000000000E+00 -0.94824779231E+02  0.94824779231E+02  0.00000000000E+00 0. -1.
         -6    2    1    2    0  503 -0.28504853509E+02 -0.49364310622E+02  0.66313545106E+02  0.19279468041E+03  0.17182241033E+03 0.  0.
        -24    2    3    3    0    0  0.13746028556E+02  0.24803600474E+02  0.65312284823E+02  0.10730135556E+03  0.80272750412E+02 0.  0.
          6    2    1    2  501    0  0.28504853509E+02  0.49364310622E+02  0.22876770349E+03  0.29193612665E+03  0.17217049122E+03 0.  0.
         24    2    5    5    0    0  0.21074661226E+02  0.70968281594E+02  0.69383026357E+02  0.13085383518E+03  0.82632218278E+02 0.  0.
          5    1    5    5  501    0  0.74301922823E+01 -0.21603970972E+02  0.15938467713E+03  0.16108229146E+03  0.47000000000E+01 0. -1.
        -11    1    6    6    0    0 -0.30227829752E+02  0.34274576923E+02  0.16645172150E+02  0.48636715254E+02  0.00000000000E+00 0.  1.
         12    1    6    6    0    0  0.51302490979E+02  0.36693704671E+02  0.52737854207E+02  0.82217119929E+02  0.00000000000E+00 0. -1.
         -5    1    3    3    0  503 -0.42250882064E+02 -0.74167911097E+02  0.10012602835E+01  0.85493324849E+02  0.47000000000E+01 0.  1.
         13    1    4    4    0    0 -0.31665135677E+02  0.35008027274E+00  0.36121424650E+02  0.48037076227E+02  0.00000000000E+00 0. -1.
        -14    1    4    4    0    0  0.45411164233E+02  0.24453520202E+02  0.29190860173E+02  0.59264279333E+02  0.00000000000E+00 0.  1.
</event>
<event>
12    1  0.1630640E-001  0.2088294E+03  0.7818608E-02  0.1142897E+00
         21   -1    0    0  501  502  0.00000000000E+00  0.00000000000E+00  0.78400023999E+02  0.78400023999E+02  0.00000000000E+00 0. -1.
         21   -1    0    0  502  503 -0.00000000000E+00 -0.00000000000E+00 -0.57793479129E+03  0.57793479129E+03  0.00000000000E+00 0.  1.
         -6    2    1    2    0  503  0.44902847789E+00  0.11756801369E+03 -0.32183337547E+03  0.38364882370E+03  0.17258985743E+03 0.  0.
        -24    2    3    3    0    0 -0.58812013770E+02  0.42687307023E+02 -0.21084996378E+03  0.23716196753E+03  0.80666179227E+02 0.  0.
          6    2    1    2  501    0 -0.44902847789E+00 -0.11756801369E+03 -0.17770139182E+03  0.27268599159E+03  0.17016881584E+03 0.  0.
         24    2    5    5    0    0  0.29775092740E+02 -0.35240174622E+02 -0.28465022547E+02  0.99524348889E+02  0.83465037339E+02 0.  0.
          5    1    5    5  501    0 -0.30224121218E+02 -0.82327839071E+02 -0.14923636927E+03  0.17316164270E+03  0.47000000000E+01 0. -1.
        -11    1    6    6    0    0 -0.15803604439E+02  0.66710246063E+01  0.15870344520E+02  0.23369302894E+02  0.00000000000E+00 0.  1.
         12    1    6    6    0    0  0.45578697180E+02 -0.41911199229E+02 -0.44335367067E+02  0.76155045994E+02  0.00000000000E+00 0. -1.
         -5    1    3    3    0  503  0.59261042248E+02  0.74880706671E+02 -0.11098341169E+03  0.14648685617E+03  0.47000000000E+01 0.  1.
         11    1    4    4    0    0 -0.33477809999E+02 -0.10595656837E+02 -0.14299928898E+03  0.14724750713E+03  0.00000000000E+00 0. -1.
        -12    1    4    4    0    0 -0.25334203772E+02  0.53282963859E+02 -0.67850674797E+02  0.89914460398E+02  0.00000000000E+00 0.  1.
</event>
<event>
12    1  0.1630640E-001  0.2199817E+03  0.7818608E-02  0.1134658E+00
         21   -1    0    0  501  502  0.00000000000E+00  0.00000000000E+00  0.25347036079E+04  0.25347036079E+04  0.00000000000E+00 0. -1.
         21   -1    0    0  502  503 -0.00000000000E+00 -0.00000000000E+00 -0.37927184548E+02  0.37927184548E+02  0.00000000000E+00 0.  1.
         -6    2    1    2    0  503 -0.10221843434E+02  0.12966981295E+03  0.33928037688E+03  0.40435522062E+03  0.17740694415E+03 0.  0.
        -24    2    3    3    0    0  0.21302738198E+01 -0.82089003866E+01  0.13191431911E+03  0.15498423933E+03  0.80912315154E+02 0.  0.
          6    2    1    2  501    0  0.10221843434E+02 -0.12966981295E+03  0.21574960464E+04  0.21682755718E+04  0.17236884397E+03 0.  0.
         24    2    5    5    0    0  0.72179195080E+02 -0.69202542118E+02  0.14290277366E+04  0.14346658849E+04  0.78403452034E+02 0.  0.
          5    1    5    5  501    0 -0.61957351646E+02 -0.60467270834E+02  0.72846830987E+03  0.73360968692E+03  0.47000000000E+01 0. -1.
        -13    1    6    6    0    0  0.53814295492E+02 -0.77654388561E+02  0.84091461786E+03  0.84620539882E+03  0.00000000000E+00 0.  1.
         14    1    6    6    0    0  0.18364899589E+02  0.84518464433E+01  0.58811311871E+03  0.58846048605E+03  0.00000000000E+00 0. -1.
         -5    1    3    3    0  503 -0.12352117254E+02  0.13787871334E+03  0.20736605777E+03  0.24937098129E+03  0.47000000000E+01 0.  1.
         11    1    4    4    0    0  0.25708452021E+02 -0.33290431866E+02  0.98070268876E+02  0.10670967621E+03  0.00000000000E+00 0. -1.
        -12    1    4    4    0    0 -0.23578178201E+02  0.25081531480E+02  0.33844050234E+02  0.48274563125E+02  0.00000000000E+00 0.  1.
</event>
<event>
12    1  0.1630640E-001  0.2310342E+03  0.7818608E-02  0.1126490E+00
         21   -1    0    0  501  502  0.00000000000E+00  0.00000000000E+00  0.13314572599E+03  0.13314572599E+03  0.00000000000E+00 0. -1.
         21   -1    0    0  502  503 -0.00000000000E+00 -0.00000000000E+00 -0.39644612829E+03  0.39644612829E+03  0.00000000000E+00 0. -1.
         -6    2    1    2    0  503 -0.14774980531E+03  0.47451566538E+02 -0.11611127958E+03  0.25565496452E+03  0.16672125089E+03 0.  0.
        -24    2    3    3    0    0 -0.84739386255E+02 -0.65690448973E+01 -0.53327182600E+01  0.11715399334E+03  0.80453118876E+02 0.  0.
          6    2    1    2  501    0  0.14774980531E+03 -0.47451566538E+02 -0.14718912272E+03  0.27393688976E+03  0.17115818878E+03 0.  0.
         24    2    5    5    0    0  0.44553698263E+02  0.36824649860E+01  0.19571310055E+01  0.85440681066E+02  0.72785211698E+02 0.  0.
          5    1    5    5  501    0  0.10319610705E+03 -0.51134031524E+02 -0.14914625373E+03  0.18849620869E+03  0.47000000000E+01 0. -1.
        -13    1    6    6    0    0 -0.14351818357E+02 -0.16984846512E+02 -0.44815953693E+01  0.22683571109E+02  0.00000000000E+00 0.  1.
         14    1    6    6    0    0  0.58905516620E+02  0.20667311498E+02  0.64387263748E+01  0.62757109957E+02  0.00000000000E+00 0. -1.
         -5    1    3    3    0  503 -0.63010419058E+02  0.54020611435E+02 -0.11077856132E+03  0.13850097118E+03  0.47000000000E+01 0.  1.
         13    1    4    4    0    0 -0.21035664983E+02 -0.36357211761E+02 -0.17999255477E+02  0.45698131757E+02  0.00000000000E+00 0. -1.
        -14    1    4    4    0    0 -0.63703721272E+02  0.29788166864E+02  0.12666537217E+02  0.71455861580E+02  0.00000000000E+00 0.  1.
</event>
<event>
12    1  0.1630640E-001  0.1862069E+03  0.7818608E-02  0.1162110E+00
         21   -1    0    0  501  502  0.00000000000E+00  0.00000000000E+00  0.18629466832E+03  0.18629466832E+03  0.00000000000E+00 0.  1.
         21   -1    0    0  502  503 -0.00000000000E+00 -0.00000000000E+00 -0.18862747412E+03  0.18862747412E+03  0.00000000000E+00 0.  1.
         -6    2    1    2    0  503  0.56946574999E+02 -0.37480299043E+02 -0.25937569045E+02  0.18722508152E+03  0.17243198207E+03 0.  0.
        -24    2    3    3    0    0  0.56546384050E+02 -0.63890592122E+02  0.34733451873E+02  0.12088710964E+03  0.78280133419E+02 0.  0.
          6    2    1    2  501    0 -0.56946574999E+02  0.37480299043E+02  0.23604763245E+02  0.18769706092E+03  0.17327814811E+03 0.  0.
         24    2    5    5    0    0 -0.15442871992E+02  0.24675212187E+02  0.63952671653E+02  0.12822798219E+03  0.10726193553E+03 0.  0.
          5    1    5    5  501    0 -0.41503703007E+02  0.12805086856E+02 -0.40347908407E+02  0.59469078734E+02  0.47000000000E+01 0. -1.
        -13    1    6    6    0    0  0.26834445617E+02 -0.22057316863E+02  0.54321212069E+02  0.64477955763E+02  0.00000000000E+00 0.  1.
         14    1    6    6    0    0 -0.42277317609E+02  0.46732529050E+02  0.96314595836E+01  0.63750026426E+02  0.00000000000E+00 0. -1.
         -5    1    3    3    0  503  0.40019094908E+00  0.26410293079E+02 -0.60671020917E+02  0.66337971875E+02  0.47000000000E+01 0.  1.
         11    1    4    4    0    0  0.61093782497E+02 -0.36932772446E+02 -0.62057509573E+01  0.71658853502E+02  0.00000000000E+00 0. -1.
        -12    1    4    4    0    0 -0.45473984473E+01 -0.26957819676E+02  0.40939202830E+02  0.49228256141E+02  0.00000000000E+00 0.  1.
</event>
<event>
12    1  0.1630640E-001  0.3039599E+03  0.7818608E-02  0.1083377E+00
         21   -1    0    0  501  502  0.00000000000E+00  0.00000000000E+00  0.33120942688E+03  0.33120942688E+03  0.00000000000E+00 0. -1.
         21   -1    0    0  502  503 -0.00000000000E+00 -0.00000000000E+00 -0.30094342726E+03  0.30094342726E+03  0.00000000000E+00 0.  1.
         -6    2    1    2    0  503 -0.13234568405E+03 -0.21263980624E+03  0.10197624736E+03  0.31984857608E+03  0.17080072984E+03 0.  0.
        -24    2    3    3    0    0 -0.94003079815E+02 -0.46055014620E+02  0.49689026384E+02  0.14102829878E+03  0.80388670392E+02 0.  0.
          6    2    1    2  501    0  0.13234568405E+03  0.21263980624E+03 -0.71710247736E+02  0.31230427805E+03  0.17222234227E+03 0.  0.
         24    2    5    5    0    0  0.66799838341E+02  0.27665146273E+02 -0.21479856181E+02  0.10967884788E+03  0.79627173310E+02 0.  0.
          5    1    5    5  501    0  0.65545845707E+02  0.18497465996E+03 -0.50230391554E+02  0.20262543018E+03  0.47000000000E+01 0. -1.
        -13    1    6    6    0    0 -0.12064755196E+02 -0.67667631287E+01 -0.19112266930E+02  0.23592925812E+02  0.00000000000E+00 0.  1.
         14    1    6    6    0    0  0.78864593537E+02  0.34431909402E+02 -0.23675892510E+01  0.86085922064E+02  0.00000000000E+00 0. -1.
         -5    1    3    3    0  503 -0.38342604233E+02 -0.16658479162E+03  0.52287220977E+02  0.17882027730E+03  0.47000000000E+01 0.  1.
         11    1    4    4    0    0  0.58371009765E+01 -0.28188025034E+02  0.20970607045E+02  0.35614643940E+02  0.00000000000E+00 0. -1.
        -12    1    4    4    0    0 -0.99840180792E+02 -0.17866989585E+02  0.28718419339E+02  0.10541365484E+03  0.00000000000E+00 0.  1.
</event>
<event>
12    1  0.1630640E-001  0.2082589E+03  0.7818608E-02  0.1143000E+00
         21   -1    0    0  503  502  0.00000000000E+00  0.00000000000E+00  0.37812951261E+03  0.37812951261E+03  0.00000000000E+00 0. -1.
         21   -1    0    0  501  503 -0.00000000000E+00 -0.00000000000E+00 -0.74707656696E+03  0.74707656696E+03  0.00000000000E+00 0.  1.
          6    2    1    2  501    0 -0.97144704139E+02 -0.66017775824E+02 -0.70212675582E+03  0.73229324843E+03  0.17168570178E+03 0.  0.
         24    2    3    3    0    0 -0.10919704867E+03 -0.53946438084E+02 -0.69894392545E+03  0.71431557860E+03  0.83005549695E+02 0.  0.
         -6    2    1    2    0  502  0.97144704139E+02  0.66017775824E+02  0.33317970147E+03  0.39291283114E+03  0.17197772862E+03 0.  0.
        -24    2    5    5    0    0  0.12754267455E+03  0.85457619548E+02  0.27128571825E+03  0.32111520383E+03  0.77129077752E+02 0.  0.
          5    1    3    3  501    0  0.12052344529E+02 -0.12071337740E+02 -0.31828303631E+01  0.17977669832E+02  0.47000000000E+01 0. -1.
        -11    1    4    4    0    0 -0.60409215833E+02 -0.33975516352E+02 -0.58108775769E+03  0.58520645178E+03  0.00000000000E+00 0.  1.
         12    1    4    4    0    0 -0.48787832835E+02 -0.19970921732E+02 -0.11785616776E+03  0.12910912681E+03  0.00000000000E+00 0. -1.
         -5    1    5    5    0  502 -0.30397970412E+02 -0.19439843724E+02  0.61893983214E+02  0.71797627309E+02  0.47000000000E+01 0.  1.
         11    1    6    6    0    0  0.53416959872E+02  0.36625606246E+02  0.47353915058E+02  0.80232162542E+02  0.00000000000E+00 0. -1.
        -12    1    6    6    0    0  0.74125714679E+02  0.48832013301E+02  0.22393180320E+03  0.24088304129E+03  0.00000000000E+00 0.  1.
</event>
<event>
12    1  0.1630640E-001  0.1878513E+03  0.7818608E-02  0.1160786E+00
         21   -1    0    0  503  502  0.00000000000E+00  0.00000000000E+00  0.84363077065E+02  0.84363077065E+02  0.00000000000E+00 0.  1.
         21   -1    0    0  501  503 -0.00000000000E+00 -0.00000000000E+00 -0.63465699815E+03  0.63465699815E+03  0.00000000000E+00 0.  1.
          6    2    1    2  501    0 -0.65131048698E+02 -0.24965878643E+02 -0.48757481350E+03  0.52251057114E+03  0.17442118446E+03 0.  0.
         24    2    3    3    0    0 -0.71798850705E+02 -0.47593807588E+02 -0.48404927314E+03  0.49820003460E+03  0.80494286528E+02 0.  0.
         -6    2    1    2    0  502  0.65131048698E+02  0.24965878643E+02 -0.62719107589E+02  0.19650950408E+03  0.17267585279E+03 0.  0.
        -24    2    5    5    0    0 -0.32537886637E+02  0.18783368548E+02 -0.22226709790E+02  0.90494558720E+02  0.79269852586E+02 0.  0.
          5    1    3    3  501    0  0.66678020070E+01  0.22627928945E+02 -0.35255403607E+01  0.24310536539E+02  0.47000000000E+01 0. -1.
        -11    1    4    4    0    0 -0.74106713573E+02 -0.53014975148E+02 -0.28817209736E+03  0.30223426391E+03  0.00000000000E+00 0.  1.
         12    1    4    4    0    0  0.23078628684E+01  0.54211675595E+01 -0.19587717578E+03  0.19596577068E+03  0.00000000000E+00 0. -1.
         -5    1    5    5    0  502  0.97668935335E+02  0.61825100945E+01 -0.40492397799E+02  0.10601494536E+03  0.47000000000E+01 0.  1.
         13    1    6    6    0    0 -0.14053202250E+02 -0.31222863531E+02 -0.59576289962E+01  0.34754180235E+02  0.00000000000E+00 0. -1.
        -14    1    6    6    0    0 -0.18484684387E+02  0.50006232080E+02 -0.16269080794E+02  0.55740378484E+02  0.00000000000E+00 0.  1.
</event>
<event>
12    1  0.1630640E-001  0.2123794E+03  0.7818608E-02  0.1139706E+00
         21   -1    0    0  503  502  0.00000000000E+00  0.00000000000E+00  0.74901408523E+03  0.74901408523E+03  0.00000000000E+00 0. -1.
         21   -1    0    0  501  503 -0.00000000000E+00 -0.00000000000E+00 -0.16194506984E+03  0.16194506984E+03  0.00000000000E+00 0.  1.
          6    2    1    2  501    0  0.84486472779E+02 -0.92530591298E+02 -0.67502425745E+02  0.22279580385E+03  0.17141037986E+03 0.  0.
         24    2    3    3    0    0  0.81486044753E+01  0.14723385177E+01 -0.61820029606E+02  0.10147638835E+03  0.80044823674E+02 0.  0.
         -6    2    1    2    0  502 -0.84486472779E+02  0.92530591298E+02  0.65457144113E+03  0.68816335122E+03  0.17147930488E+03 0.  0.
        -24    2    5    5    0    0 -0.61369929886E+02  0.13193863705E+03  0.49366605408E+03  0.52083133932E+03  0.79906437901E+02 0.  0.
          5    1    3    3  501    0  0.76337868304E+02 -0.94002929816E+02 -0.56823961394E+01  0.12131941550E+03  0.47000000000E+01 0. -1.
        -13    1    4    4    0    0  0.44135807409E+02  0.14123276299E+01 -0.29494691636E+02  0.53102740039E+02  0.00000000000E+00 0.  1.
         14    1    4    4    0    0 -0.35987202934E+02  0.60010887821E-01 -0.32325337969E+02  0.48373648313E+02  0.00000000000E+00 0. -1.
         -5    1    5    5    0  502 -0.23116542893E+02 -0.39408045750E+02  0.16090538705E+03  0.16733201190E+03  0.47000000000E+01 0.  1.
         11    1    6    6    0    0 -0.79963971380E+02  0.10127007598E+03  0.35955371256E+03  0.38200620050E+03  0.00000000000E+00 0. -1.
        -12    1    6    6    0    0  0.18594041494E+02  0.30668561072E+02  0.13411234152E+03  0.13882513881E+03  0.00000000000E+00 0.  1.
</event>
<event>
12    1  0.1630640E-001  0.2151703E+03  0.7818608E-02  0.1137663E+00
         21   -1    0    0  501  502  0.00000000000E+00  0.00000000000E+00  0.49328129937E+03  0.49328129937E+03  0.00000000000E+00 0. -1.
         21   -1    0    0  502  503 -0.00000000000E+00 -0.00000000000E+00 -0.22558096739E+03  0.22558096739E+03  0.00000000000E+00 0.  1.
         -6    2    1    2    0  503  0.11960761731E+03  0.44332971774E+02 -0.14102566235E+03  0.25726738697E+03  0.17328264902E+03 0.  0.
        -24    2    3    3    0    0  0.10351730367E+03  0.77263224634E+02 -0.15584431213E+03  0.21745555295E+03  0.79460869904E+02 0.  0.
          6    2    1    2  501    0 -0.11960761731E+03 -0.44332971774E+02  0.40872599434E+03  0.46159487979E+03  0.17245724134E+03 0.  0.
         24    2    5    5    0    0 -0.35506501152E+02 -0.71133276110E+02  0.30730322143E+03  0.32705892580E+03  0.78813808737E+02 0.  0.
          5    1    5    5  501    0 -0.84101116159E+02  0.26800304335E+02  0.10142277291E+03  0.13453595399E+03  0.47000000000E+01 0. -1.
        -13    1    6    6    0    0  0.11024716359E+01  0.15835185920E+02  0.67906868343E+02  0.69737445644E+02  0.00000000000E+00 0.  1.
         14    1    6    6    0    0 -0.36608972788E+02 -0.86968462030E+02  0.23939635309E+03  0.25732148015E+03  0.00000000000E+00 0. -1.
         -5    1    3    3    0  503  0.16090313645E+02 -0.32930252860E+02  0.14818649782E+02  0.39811834019E+02  0.47000000000E+01 0.  1.
         13    1    4    4    0    0  0.57291873666E+02  0.59643519316E+01 -0.28249010082E+02  0.64155583177E+02  0.00000000000E+00 0. -1.
        -14    1    4    4    0    0  0.46225430000E+02  0.71298872703E+02 -0.12759530205E+03  0.15329996978E+03  0.00000000000E+00 0.  1.
</event>
<event>
12    1  0.1630640E-001  0.2553015E+03  0.7818608E-02  0.1110056E+00
         21   -1    0    0  503  502  0.00000000000E+00  0.00000000000E+00  0.15002591531E+04  0.15002591531E+04  0.00000000000E+00 0. -1.
         21   -1    0    0  501  503 -0.00000000000E+00 -0.00000000000E+00 -0.81028873988E+02  0.81028873988E+02  0.00000000000E+00 0.  1.
          6    2    1    2  501    0  0.62958777094E+02  0.17666000787E+03  0.17042842260E+03  0.30665673677E+03  0.17268451287E+03 0.  0.
         24    2    3    3    0    0  0.95837441684E+02  0.79509339196E+02  0.72274162326E+02  0.16461587005E+03  0.79801503031E+02 0.  0.
         -6    2    1    2    0  502 -0.62958777094E+02 -0.17666000787E+03  0.12488018565E+04  0.12746312903E+04  0.17322321850E+03 0.  0.
        -24    2    5    5    0    0 -0.15897054449E+02 -0.17027150148E+03  0.74120763205E+03  0.76479837115E+03  0.79263447782E+02 0.  0.
          5    1    3    3  501    0 -0.32878664589E+02  0.97150668671E+02  0.98154260273E+02  0.14204086672E+03  0.47000000000E+01 0. -1.
        -11    1    4    4    0    0  0.57107360286E+02  0.24339240906E+02 -0.47523644739E+01  0.62259410653E+02  0.00000000000E+00 0.  1.
         12    1    4    4    0    0  0.38730081397E+02  0.55170098290E+02  0.77026526800E+02  0.10235645940E+03  0.00000000000E+00 0. -1.
         -5    1    5    5    0  502 -0.47061722645E+02 -0.63885063867E+01  0.50759422446E+03  0.50983291915E+03  0.47000000000E+01 0.  1.
         13    1    6    6    0    0 -0.10883942428E+02 -0.36943132165E+02  0.33576737485E+03  0.33796891163E+03  0.00000000000E+00 0. -1.
        -14    1    6    6    0    0 -0.50131120207E+01 -0.13332836932E+03  0.40544025720E+03  0.42682945952E+03  0.00000000000E+00 0.  1.
</event>
<event>
12    1  0.1630640E-001  0.1784431E+03  0.7818608E-02  0.1169344E+00
         21   -1    0    0  503  502  0.00000000000E+00  0.00000000000E+00  0.26662407579E+03  0.26662407579E+03  0.00000000000E+00 0.  1.
         21   -1    0    0  501  503 -0.00000000000E+00 -0.00000000000E+00 -0.25622926653E+03  0.25622926653E+03  0.00000000000E+00 0.  1.
          6    2    1    2  501    0  0.47616835307E+02 -0.55253080436E+01 -0.18587272224E+03  0.25766375164E+03  0.17188382123E+03 0.  0.
         24    2    3    3    0    0  0.48182200893E+02 -0.46441109660E+02 -0.18985722352E+03  0.21628273292E+03  0.79083209887E+02 0.  0.
         -6    2    1    2    0  502 -0.47616835307E+02  0.55253080436E+01  0.19626753150E+03  0.26518959068E+03  0.17177509438E+03 0.  0.
        -24    2    5    5    0    0 -0.45128505986E+01 -0.41499719270E+02  0.45133882329E+02  0.10107750519E+03  0.80230930449E+02 0.  0.
          5    1    3    3  501    0 -0.56536558571E+00  0.40915801616E+02  0.39845012767E+01  0.41381018723E+02  0.47000000000E+01 0. -1.
        -13    1    4    4    0    0  0.25850421479E+02 -0.35002775449E+02 -0.26367978581E+02  0.50879356071E+02  0.00000000000E+00 0.  1.
         14    1    4    4    0    0  0.22331779414E+02 -0.11438334211E+02 -0.16348924494E+03  0.16540337685E+03  0.00000000000E+00 0. -1.
         -5    1    5    5    0  502 -0.43103984709E+02  0.47025027313E+02  0.15113364917E+03  0.16411208549E+03  0.47000000000E+01 0.  1.
         11    1    6    6    0    0 -0.19781323222E+02 -0.44216470033E+02  0.61661911851E+02  0.78412934799E+02  0.00000000000E+00 0. -1.
        -12    1    6    6    0    0  0.15268472624E+02  0.27167507635E+01 -0.16528029523E+02  0.22664570388E+02  0.00000000000E+00 0.  1.
</event>
<event>
12    1  0.1630640E-001  0.1884189E+03  0.7818608E-02  0.1160018E+00
         21   -1    0    0  503  502  0.00000000000E+00  0.00000000000E+00  0.57627402978E+03  0.57627402978E+03  0.00000000000E+00 0. -1.
         21   -1    0    0  501  503 -0.00000000000E+00 -0.00000000000E+00 -0.21709910910E+03  0.21709910910E+03  0.00000000000E+00 0. -1.
          6    2    1    2  501    0 -0.31253519931E+02 -0.70230994535E+02 -0.15624738649E+03  0.24477525288E+03  0.17202471780E+03 0.  0.
         24    2    3    3    0    0 -0.69036806571E+02 -0.94442829312E+02 -0.99742785720E+02  0.17246585100E+03  0.78168521712E+02 0.  0.
         -6    2    1    2    0  502  0.31253519931E+02  0.70230994535E+02  0.51542230717E+03  0.54859788599E+03  0.17143602505E+03 0.  0.
        -24    2    5    5    0    0 -0.46885350505E+02  0.54010652959E+02  0.28236996394E+03  0.30221552616E+03  0.80535960843E+02 0.  0.
          5    1    3    3  501    0  0.37783286640E+02  0.24211834776E+02 -0.56504600773E+02  0.72309401886E+02  0.47000000000E+01 0. -1.
        -11    1    4    4    0    0 -0.20137620497E+02  0.11847403760E+02 -0.21197249076E+02  0.31546919081E+02  0.00000000000E+00 0.  1.
         12    1    4    4    0    0 -0.48899186074E+02 -0.10629023307E+03 -0.78545536643E+02  0.14091893191E+03  0.00000000000E+00 0. -1.
         -5    1    5    5    0  502  0.78138870435E+02  0.16220341576E+02  0.23305234323E+03  0.24638235984E+03  0.47000000000E+01 0.  1.
         13    1    6    6    0    0 -0.42393726653E+02  0.23783843545E+02  0.25958588917E+03  0.26409796124E+03  0.00000000000E+00 0. -1.
        -14    1    6    6    0    0 -0.44916238519E+01  0.30226809414E+02  0.22784074770E+02  0.38117564919E+02  0.00000000000E+00 0.  1.
</event>
<event>
12    1  0.1630640E-001  0.2114053E+03  0.7818608E-02  0.1140813E+00
         21   -1    0    0  503  502  0.00000000000E+00  0.00000000000E+00  0.10143519348E+03  0.10143519348E+03  0.00000000000E+00 0. -1.
         21   -1    0    0  501  503 -0.00000000000E+00 -0.00000000000E+00 -0.13388358661E+04  0.13388358661E+04  0.00000000000E+00 0. -1.
          6    2    1    2  501    0 -0.10042358798E+03 -0.66792085143E+02 -0.12106457449E+04  0.12289651507E+04  0.17362644463E+03 0.  0.
         24    2    3    3    0    0 -0.54967198135E+02 -0.28126879456E+02 -0.28416818581E+03  0.30055573722E+03  0.75958403930E+02 0.  0.
         -6    2    1    2    0  502  0.10042358798E+03  0.66792085143E+02 -0.26754927733E+02  0.21130590892E+03  0.17143010624E+03 0.  0.
        -24    2    5    5    0    0  0.10565505789E+03  0.66561008631E+02 -0.72658082272E+02  0.16486658000E+03  0.79425645438E+02 0.  0.
          5    1    3    3  501    0 -0.45456389845E+02 -0.38665205687E+02 -0.92647755907E+03  0.92840941345E+03  0.47000000000E+01 0. -1.
        -11    1    4    4    0    0 -0.56877812912E+02  0.10366855700E+02 -0.19559212194E+03  0.20395792572E+03  0.00000000000E+00 0.  1.
         12    1    4    4    0    0  0.19106147766E+01 -0.38493735156E+02 -0.88576063872E+02  0.96597811497E+02  0.00000000000E+00 0. -1.
         -5    1    5    5    0  502 -0.52314699081E+01  0.23107651156E+00  0.45903154539E+02  0.46439328918E+02  0.47000000000E+01 0.  1.
         13    1    6    6    0    0  0.62504533925E+02  0.14372721209E+02 -0.72969309552E+02  0.97148916683E+02  0.00000000000E+00 0. -1.
        -14    1    6    6    0    0  0.43150523963E+02  0.52188287422E+02  0.31122727989E+00  0.67717663315E+02  0.00000000000E+00 0.  1.
</event>
<event>
12    1  0.1630640E-001  0.3065265E+03  0.7818608E-02  0.1082257E+00
         21   -1    0    0  501  502  0.00000000000E+00  0.00000000000E+00  0.16948933087E+04  0.16948933087E+04  0.00000000000E+00 0.  1.
         21   -1    0    0  502  503 -0.00000000000E+00 -0.00000000000E+00 -0.14991593092E+03  0.14991593092E+03  0.00000000000E+00 0. -1.
         -6    2    1    2    0  503  0.56486899732E+02 -0.24631559469E+03  0.37994285175E+02  0.30696772957E+03  0.17006904264E+03 0.  0.
        -24    2    3    3    0    0  0.45062903539E+02 -0.24964142283E+03  0.68007686354E+02  0.27434161929E+03  0.79289175831E+02 0.  0.
          6    2    1    2  501    0 -0.56486899732E+02  0.24631559469E+03  0.15069830926E+04  0.15378415100E+04  0.17348292890E+03 0.  0.
         24    2    5    5    0    0 -0.68274649565E+02  0.16562276951E+03  0.70414139119E+03  0.73085503519E+03  0.79004139913E+02 0.  0.
          5    1    5    5  501    0  0.11787749833E+02  0.80692825183E+02  0.80284170138E+03  0.80698647483E+03  0.47000000000E+01 0. -1.
        -11    1    6    6    0    0 -0.50066457166E+02  0.13575402891E+03  0.65336857706E+03  0.66919825462E+03  0.00000000000E+00 0.  1.
         12    1    6    6    0    0 -0.18208192399E+02  0.29868740602E+02  0.50772814129E+02  0.61656780569E+02  0.00000000000E+00 0. -1.
         -5    1    3    3    0  503  0.11423996193E+02  0.33258281381E+01 -0.30013401179E+02  0.32626110282E+02  0.47000000000E+01 0.  1.
         11    1    4    4    0    0  0.30005282546E+02 -0.12684029173E+03  0.75080177503E+02  0.15041878088E+03  0.00000000000E+00 0. -1.
        -12    1    4    4    0    0  0.15057620993E+02 -0.12280113110E+03 -0.70724911482E+01  0.12392283841E+03  0.00000000000E+00 0.  1.
</event>
<event>
12    1  0.1630640E-001  0.1741399E+03  0.7818608E-02  0.1174931E+00
         21   -1    0    0  503  502  0.00000000000E+00  0.00000000000E+00  0.11454275325E+03  0.11454275325E+03  0.00000000000E+00 0. -1.
         21   -1    0    0  501  503 -0.00000000000E+00 -0.00000000000E+00 -0.54654232122E+03  0.54654232122E+03  0.00000000000E+00 0. -1.
          6    2    1    2  501    0  0.21535984277E+02  0.19968229942E+02 -0.45814678787E+03  0.49012568994E+03  0.17164551808E+03 0.  0.
         24    2    3    3    0    0 -0.28519219585E+01 -0.45560282439E+02 -0.96462362738E+02  0.12171495545E+03  0.58529224836E+02 0.  0.
         -6    2    1    2    0  502 -0.21535984277E+02 -0.19968229942E+02  0.26147219896E+02  0.17095938454E+03  0.16637579520E+03 0.  0.
        -24    2    5    5    0    0 -0.19929204445E+02 -0.16853689090E+02 -0.47315027673E+02  0.97263564278E+02  0.80871930030E+02 0.  0.
          5    1    3    3  501    0  0.24387906235E+02  0.65528512381E+02 -0.36168442513E+03  0.36841073449E+03  0.47000000000E+01 0. -1.
        -13    1    4    4    0    0  0.23411896221E+02 -0.11178769564E+02 -0.59124263653E+02  0.64565937816E+02  0.00000000000E+00 0.  1.
         14    1    4    4    0    0 -0.26263818180E+02 -0.34381512875E+02 -0.37338099086E+02  0.57149017632E+02  0.00000000000E+00 0. -1.
         -5    1    5    5    0  502 -0.16067798320E+01 -0.31145408518E+01  0.73462247569E+02  0.73695820262E+02  0.47000000000E+01 0.  1.
         11    1    6    6    0    0 -0.51583448471E+02 -0.95992890850E+01 -0.27856330923E+02  0.59405165428E+02  0.00000000000E+00 0. -1.
        -12    1    6    6    0    0  0.31654244026E+02 -0.72544000050E+01 -0.19458696750E+02  0.37858398850E+02  0.00000000000E+00 0.  1.
</event>
<event>
12    1  0.1630640E-001  0.2484919E+03  0.7818608E-02  0.1114271E+00
         21   -1    0    0  503  502  0.00000000000E+00  0.00000000000E+00  0.94761328068E+02  0.94761328068E+02  0.00000000000E+00 0.  1.
         21   -1    0    0  501  503 -0.00000000000E+00 -0.00000000000E+00 -0.71271561329E+03  0.71271561329E+03  0.00000000000E+00 0. -1.
          6    2    1    2  501    0 -0.14995939209E+03 -0.98223265304E+02 -0.42730408559E+03  0.49427458870E+03  0.17199697190E+03 0.  0.
         24    2    3    3    0    0 -0.91167379377E+02 -0.60304007065E+02 -0.39760798718E+03  0.41812789366E+03  0.69215313752E+02 0.  0.
         -6    2    1    2    0  502  0.14995939209E+03  0.98223265304E+02 -0.19065019963E+03  0.31320235266E+03  0.17208307869E+03 0.  0.
        -24    2    5    5    0    0  0.92820191169E+02  0.96246773423E+00 -0.14903310298E+03  0.19287519962E+03  0.79833969032E+02 0.  0.
          5    1    3    3  501    0 -0.58792012713E+02 -0.37919258239E+02 -0.29696098417E+02  0.76146695039E+02  0.47000000000E+01 0. -1.
        -13    1    4    4    0    0 -0.89469663723E+02 -0.36175594984E+02 -0.24002949778E+03  0.25870379627E+03  0.00000000000E+00 0.  1.
         14    1    4    4    0    0 -0.16977156540E+01 -0.24128412082E+02 -0.15757848940E+03  0.15942409739E+03  0.00000000000E+00 0. -1.
         -5    1    5    5    0  502  0.57139200921E+02  0.97260797570E+02 -0.41617096647E+02  0.12032715304E+03  0.47000000000E+01 0.  1.
         13    1    6    6    0    0  0.41466970799E+02  0.33139863804E+02 -0.10600136322E+03  0.11854977539E+03  0.00000000000E+00 0. -1.
        -14    1    6    6    0    0  0.51353220371E+02 -0.32177396070E+02 -0.43031739761E+02  0.74325424231E+02  0.00000000000E+00 0.  1.
</event>
<event>
12    1  0.1630640E-001  0.1972149E+03  0.7818608E-02  0.1154901E+00
         21   -1    0    0  503  502  0.00000000000E+00  0.00000000000E+00  0.68714551091E+02  0.68714551091E+02  0.00000000000E+00 0.  1.
         21   -1    0    0  501  503 -0.00000000000E+00 -0.00000000000E+00 -0.10436160826E+04  0.10436160826E+04  0.00000000000E+00 0.  1.
          6    2    1    2  501    0  0.60265153331E+02 -0.74758120438E+02 -0.86914796980E+03  0.88855056856E+03  0.15774426836E+03 0.  0.
         24    2    3    3    0    0  0.58120035966E+02  0.89824406991E+01 -0.42056110918E+03  0.43218520546E+03  0.80335437063E+02 0.  0.
         -6    2    1    2    0  502 -0.60265153331E+02  0.74758120438E+02 -0.10575356167E+03  0.22378006509E+03  0.17225863244E+03 0.  0.
        -24    2    5    5    0    0 -0.82183717239E+02  0.11991835991E+02 -0.10777589719E+03  0.15710015996E+03  0.78529285852E+02 0.  0.
          5    1    3    3  501    0  0.21451173653E+01 -0.83740561137E+02 -0.44858686062E+03  0.45636536309E+03  0.47000000000E+01 0. -1.
        -13    1    4    4    0    0  0.42483698082E+02  0.29047326919E+02 -0.38521174522E+03  0.38863440463E+03  0.00000000000E+00 0.  1.
         14    1    4    4    0    0  0.15636337884E+02 -0.20064886220E+02 -0.35349363958E+02  0.43550800839E+02  0.00000000000E+00 0. -1.
         -5    1    5    5    0  502  0.21918563908E+02  0.62766284446E+02  0.20223355194E+01  0.66679905129E+02  0.47000000000E+01 0.  1.
         11    1    6    6    0    0 -0.56994941797E+02 -0.29935175224E+02 -0.50783111344E+02  0.81996722520E+02  0.00000000000E+00 0. -1.
        -12    1    6    6    0    0 -0.25188775442E+02  0.41927011216E+02 -0.56992785844E+02  0.75103437444E+02  0.00000000000E+00 0.  1.
</event>
<event>
12    1  0.1630640E-001  0.2378567E+03  0.7818608E-02  0.1121230E+00
         21   -1    0    0  503  502  0.00000000000E+00  0.00000000000E+00  0.96693855155E+02  0.96693855155E+02  0.00000000000E+00 0.  1.
         21   -1    0    0  501  503 -0.00000000000E+00 -0.00000000000E+00 -0.58990796646E+03  0.58990796646E+03  0.00000000000E+00 0. -1.
          6    2    1    2  501    0  0.42774625046E+02  0.15983564877E+03 -0.21556634071E+03  0.32100571499E+03  0.17087632558E+03 0.  0.
         24    2    3    3    0    0 -0.41716623895E+02  0.76986190634E+02 -0.10095188668E+03  0.15619865527E+03  0.80867708178E+02 0.  0.
         -6    2    1    2    0  502 -0.42774625046E+02 -0.15983564877E+03 -0.27764777060E+03  0.36559610663E+03  0.17086581138E+03 0.  0.
        -24    2    5    5    0    0  0.29036682975E+01 -0.17184901823E+03 -0.22633075326E+03  0.29569364746E+03  0.81661538813E+02 0.  0.
          5    1    3    3  501    0  0.84491248942E+02  0.82849458133E+02 -0.11461445403E+03  0.16480705972E+03  0.47000000000E+01 0. -1.
        -11    1    4    4    0    0 -0.33321581395E+01  0.24647976953E+02  0.10681032658E+02  0.27068625831E+02  0.00000000000E+00 0.  1.
         12    1    4    4    0    0 -0.38384465756E+02  0.52338213681E+02 -0.11163291934E+03  0.12913002944E+03  0.00000000000E+00 0. -1.
         -5    1    5    5    0  502 -0.45678293344E+02  0.12013369467E+02 -0.51317017334E+02  0.69902459162E+02  0.47000000000E+01 0.  1.
         13    1    6    6    0    0 -0.35105969903E+02 -0.12514640321E+03 -0.15029460888E+03  0.19870209063E+03  0.00000000000E+00 0. -1.
        -14    1    6    6    0    0  0.38009638200E+02 -0.46702615021E+02 -0.76036144378E+02  0.96991556838E+02  0.00000000000E+00 0.  1.
</event>
<event>
12    1  0.1630640E-001  0.2060724E+03  0.7818608E-02  0.1144930E+00
         21   -1    0    0  501  502  0.00000000000E+00  0.00000000000E+00  0.15127704706E+03  0.15127704706E+03  0.00000000000E+00 0. -1.
         21   -1    0    0  502  503 -0.00000000000E+00 -0.00000000000E+00 -0.61811006415E+03  0.61811006415E+03  0.00000000000E+00 0. -1.
         -6    2    1    2    0  503  0.37341453041E+02 -0.10546703217E+03  0.51134578315E+02  0.21232189097E+03  0.17305537060E+03 0.  0.
        -24    2    3    3    0    0  0.28781204225E+01  0.72824897367E+01 -0.45805550751E+01  0.81836481533E+02  0.81332096929E+02 0.  0.
          6    2    1    2  501    0 -0.37341453041E+02  0.10546703217E+03 -0.51796759540E+03  0.55706522025E+03  0.17179508356E+03 0.  0.
         24    2    5    5    0    0 -0.68229460179E+02  0.50933875401E+02 -0.18566946779E+03  0.21887582097E+03  0.78638125839E+02 0.  0.
          5    1    5    5  501    0  0.30888007138E+02  0.54533156774E+02 -0.33229812761E+03  0.33818939928E+03  0.47000000000E+01 0. -1.
        -13    1    6    6    0    0 -0.67334385254E+02  0.37083383440E+01 -0.12451740907E+03  0.14160598989E+03  0.00000000000E+00 0.  1.
         14    1    6    6    0    0 -0.89507492497E+00  0.47225537057E+02 -0.61152058723E+02  0.77269831082E+02  0.00000000000E+00 0. -1.
         -5    1    3    3    0  503  0.34463332618E+02 -0.11274952191E+03  0.55715133390E+02  0.13048540943E+03  0.47000000000E+01 0.  1.
         11    1    4    4    0    0 -0.13636780862E+02 -0.24269990687E+02  0.23541868342E+02  0.36458384567E+02  0.00000000000E+00 0. -1.
        -12    1    4    4    0    0  0.16514901285E+02  0.31552480424E+02 -0.28122423417E+02  0.45378096965E+02  0.00000000000E+00 0.  1.
</event>
<event>
12    1  0.1630640E-001  0.1903973E+03  0.7818608E-02  0.1158515E+00
         21   -1    0    0  501  502  0.00000000000E+00  0.00000000000E+00  0.55628563955E+03  0.55628563955E+03  0.00000000000E+00 0. -1.
         21   -1    0    0  502  503 -0.00000000000E+00 -0.00000000000E+00 -0.84203517297E+02  0.84203517297E+02  0.00000000000E+00 0.  1.
         -6    2    1    2    0  503 -0.46116306206E+02 -0.61704724214E+02  0.80438085767E+02  0.20501677628E+03  0.17212613464E+03 0.  0.
        -24    2    3    3    0    0 -0.72576589671E+02 -0.91098338213E+02  0.84759618254E+02  0.16495561319E+03  0.80373458581E+02 0.  0.
          6    2    1    2  501    0  0.46116306206E+02  0.61704724214E+02  0.39164403649E+03  0.43547238056E+03  0.17411765054E+03 0.  0.
         24    2    5    5    0    0 -0.42826523608E+01 -0.29124505575E+02  0.19100904241E+03  0.20949341062E+03  0.80848357280E+02 0.  0.
          5    1    5    5  501    0  0.50398958566E+02  0.90829229789E+02  0.20063499408E+03  0.22597896994E+03  0.47000000000E+01 0. -1.
        -13    1    6    6    0    0  0.22204667294E+02 -0.19709710774E+02  0.19104989969E+02  0.35306098484E+02  0.00000000000E+00 0.  1.
         14    1    6    6    0    0 -0.26487319655E+02 -0.94147948006E+01  0.17190405244E+03  0.17418731214E+03  0.00000000000E+00 0. -1.
         -5    1    3    3    0  503  0.26460283466E+02  0.29393613998E+02 -0.43215324873E+01  0.40061163089E+02  0.47000000000E+01 0.  1.
         13    1    4    4    0    0 -0.33431567565E+02 -0.63314897881E+02  0.91820493865E+02  0.11643645948E+03  0.00000000000E+00 0. -1.
        -14    1    4    4    0    0 -0.39145022107E+02 -0.27783440332E+02 -0.70608756108E+01  0.48519153711E+02  0.00000000000E+00 0.  1.
</event>
<event>
12    1  0.1630640E-001  0.2393809E+03  0.7818608E-02  0.1120510E+00
         21   -1    0    0  503  502  0.00000000000E+00  0.00000000000E+00  0.29178142565E+03  0.29178142565E+03  0.00000000000E+00 0.  1.
         21   -1    0    0  501  503 -0.00000000000E+00 -0.00000000000E+00 -0.36733954568E+03  0.36733954568E+03  0.00000000000E+00 0. -1.
          6    2    1    2  501    0 -0.16319993695E+03 -0.58711165742E+01 -0.26364652940E+03  0.35610769471E+03  0.17502716456E+03 0.  0.
         24    2    3    3    0    0 -0.15906203253E+03 -0.26250239121E+02 -0.12918612319E+03  0.21996761344E+03  0.75543969272E+02 0.  0.
         -6    2    1    2    0  502  0.16319993695E+03  0.58711165742E+01  0.18808840938E+03  0.30301327662E+03  0.17254305733E+03 0.  0.
        -24    2    5    5    0    0  0.12093116258E+03  0.68988025712E+02  0.12191217876E+03  0.20215804867E+03  0.81373235999E+02 0.  0.
          5    1    3    3  501    0 -0.41379044286E+01  0.20379122547E+02 -0.13446040621E+03  0.13614008127E+03  0.47000000000E+01 0. -1.
        -13    1    4    4    0    0 -0.82441323446E+02  0.22914704733E+02 -0.48714098089E+02  0.98461763427E+02  0.00000000000E+00 0.  1.
         14    1    4    4    0    0 -0.76620709080E+02 -0.49164943855E+02 -0.80472025096E+02  0.12150585001E+03  0.00000000000E+00 0. -1.
         -5    1    5    5    0  502  0.42268774371E+02 -0.63116909137E+02  0.66176230614E+02  0.10085522795E+03  0.47000000000E+01 0.  1.
         11    1    6    6    0    0  0.80103009506E+02  0.18850236092E+02  0.25649517953E+02  0.86195831129E+02  0.00000000000E+00 0. -1.
        -12    1    6    6    0    0  0.40828153077E+02  0.50137789619E+02  0.96262660808E+02  0.11596221754E+03  0.00000000000E+00 0.  1.
</event>
<event>
12    1  0.1630640E-001  0.1843262E+03  0.7818608E-02  0.1163780E+00
         21   -1    0    0  503  502  0.00000000000E+00  0.00000000000E+00  0.20619993890E+04  0.20619993890E+04  0.00000000000E+00 0. -1.
         21   -1    0    0  501  503 -0.00000000000E+00 -0.00000000000E+00 -0.25971396034E+02  0.25971396034E+02  0.00000000000E+00 0. -1.
          6    2    1    2  501    0  0.66846536144E+02  0.16189280227E+02  0.38481558934E+03  0.42650199663E+03  0.17055897262E+03 0.  0.
         24    2    3    3    0    0  0.51239416710E+01 -0.38381677208E+02  0.12308754624E+03  0.15207290450E+03  0.80474942182E+02 0.  0.
         -6    2    1    2    0  502 -0.66846536144E+02 -0.16189280227E+02  0.16512124037E+04  0.16614687884E+04  0.17101339354E+03 0.  0.
        -24    2    5    5    0    0 -0.75154390655E+02 -0.64669051497E+02  0.94808677395E+03  0.95660919262E+03  0.80014672424E+02 0.  0.
          5    1    3    3  501    0  0.61722594473E+02  0.54570957434E+02  0.26172804310E+03  0.27442909213E+03  0.47000000000E+01 0. -1.
        -11    1    4    4    0    0  0.72779601341E+01 -0.59987390223E+02  0.11297581604E+03  0.12812100023E+03  0.00000000000E+00 0.  1.
         12    1    4    4    0    0 -0.21540184631E+01  0.21605713015E+02  0.10111730199E+02  0.23951904268E+02  0.00000000000E+00 0. -1.
         -5    1    5    5    0  502  0.83078545106E+01  0.48479771270E+02  0.70312562971E+03  0.70485959583E+03  0.47000000000E+01 0.  1.
         13    1    6    6    0    0 -0.39607955393E+02 -0.19061218377E+02  0.71882499738E+03  0.72016768674E+03  0.00000000000E+00 0. -1.
        -14    1    6    6    0    0 -0.35546435262E+02 -0.45607833121E+02  0.22926177658E+03  0.23644150587E+03  0.00000000000E+00 0.  1.
</event>
<event>
12    1  0.1630640E-001  0.1823767E+03  0.7818608E-02  0.1165538E+00
         21   -1    0    0  503  502  0.00000000000E+00  0.00000000000E+00  0.38311841228E+03  0.38311841228E+03  0.00000000000E+00 0.  1.
         21   -1    0    0  501  503 -0.00000000000E+00 -0.00000000000E+00 -0.11928360349E+03  0.11928360349E+03  0.00000000000E+00 0.  1.
          6    2    1    2  501    0 -0.55186027130E+02  0.24017622624E+02  0.81956280495E+00  0.18237853720E+03  0.17215956366E+03 0.  0.
         24    2    3    3    0    0 -0.60953164578E+02 -0.46924693192E+02  0.75324914516E+01  0.11073200582E+03  0.79294536900E+02 0.  0.
         -6    2    1    2    0  502  0.55186027130E+02 -0.24017622624E+02  0.26301524598E+03  0.32002347858E+03  0.17209202025E+03 0.  0.
        -24    2    5    5    0    0 -0.23210029438E+02 -0.21507731668E+02  0.66955727766E+02  0.10880400523E+03  0.79711693524E+02 0.  0.
          5    1    3    3  501    0  0.57671374475E+01  0.70942315816E+02 -0.67129286467E+01  0.71646531379E+02  0.47000000000E+01 0. -1.
        -11    1    4    4    0    0 -0.16570155839E+02  0.14582480510E+02 -0.20250787942E+02  0.29955186773E+02  0.00000000000E+00 0.  1.
         12    1    4    4    0    0 -0.44383008739E+02 -0.61507173702E+02  0.27783279393E+02  0.80776819047E+02  0.00000000000E+00 0. -1.
         -5    1    5    5    0  502  0.78396056568E+02 -0.25098909563E+01  0.19605951822E+03  0.21121947335E+03  0.47000000000E+01 0.  1.
         13    1    6    6    0    0 -0.34446292671E+02 -0.30022644954E+02  0.78334101048E+02  0.90687031464E+02  0.00000000000E+00 0. -1.
        -14    1    6    6    0    0  0.11236263233E+02  0.85149132863E+01 -0.11378373282E+02  0.18116973761E+02  0.00000000000E+00 0.  1.
</event>
<event>
12    1  0.1630640E-001  0.2064945E+03  0.7818608E-02  0.1144443E+00
         21   -1    0    0  503  502  0.00000000000E+00  0.00000000000E+00  0.16362614972E+03  0.16362614972E+03  0.00000000000E+00 0. -1.
         21   -1    0    0  501  503 -0.00000000000E+00 -0.00000000000E+00 -0.26072850739E+03  0.26072850739E+03  0.00000000000E+00 0. -1.
          6    2    1    2  501    0 -0.56032810632E+02 -0.99720010280E+02 -0.58449847601E+02  0.21427372835E+03  0.17150244797E+03 0.  0.
         24    2    3    3    0    0 -0.27608971661E+02  0.24957086483E+02 -0.12787860389E+02  0.78408353233E+02  0.67817615717E+02 0.  0.
         -6    2    1    2    0  502  0.56032810632E+02  0.99720010280E+02 -0.38652510071E+02  0.21008092876E+03  0.17191923621E+03 0.  0.
        -24    2    5    5    0    0 -0.28759628834E+02  0.54432164041E+02 -0.56255726072E+02  0.11224070175E+03  0.75121845569E+02 0.  0.
          5    1    3    3  501    0 -0.28423838971E+02 -0.12467709676E+03 -0.45661987213E+02  0.13586537512E+03  0.47000000000E+01 0. -1.
        -11    1    4    4    0    0  0.10961456876E+02  0.29639216154E+02 -0.21965800525E+02  0.38485491601E+02  0.00000000000E+00 0.  1.
         12    1    4    4    0    0 -0.38570428537E+02 -0.46821296711E+01  0.91779401359E+01  0.39922861632E+02  0.00000000000E+00 0. -1.
         -5    1    5    5    0  502  0.84792439466E+02  0.45287846239E+02  0.17603216000E+02  0.97840227009E+02  0.47000000000E+01 0.  1.
         13    1    6    6    0    0 -0.50053750842E+02  0.15443536144E+02 -0.34949031141E+02  0.62970751621E+02  0.00000000000E+00 0. -1.
        -14    1    6    6    0    0  0.21294122008E+02  0.38988627897E+02 -0.21306694930E+02  0.49269950134E+02  0.00000000000E+00 0.  1.
</event>
<event>
12    1  0.1630640E-001  0.2560848E+03  0.7818608E-02  0.1109594E+00
         21   -1    0    0  501  502  0.00000000000E+00  0.00000000000E+00  0.59479547107E+03  0.59479547107E+03  0.00000000000E+00 0.  1.
         21   -1    0    0  502  503 -0.00000000000E+00 -0.00000000000E+00 -0.11005378026E+03  0.11005378026E+03  0.00000000000E+00 0. -1.
         -6    2    1    2    0  503  0.61850905937E+02  0.17862951862E+03  0.24592122795E+03  0.35504463314E+03  0.17275821740E+03 0.  0.
        -24    2    3    3    0    0 -0.20722628935E+02  0.73038774212E+02  0.16419946180E+03  0.19798308142E+03  0.80447171406E+02 0.  0.
          6    2    1    2  501    0 -0.61850905937E+02 -0.17862951862E+03  0.23882046286E+03  0.34980461819E+03  0.17202911945E+03 0.  0.
         24    2    5    5    0    0  0.14259073766E+02 -0.11622976430E+03  0.19847124669E+03  0.24333111165E+03  0.78144192633E+02 0.  0.
          5    1    5    5  501    0 -0.76109979703E+02 -0.62399754312E+02  0.40349216177E+02  0.10647350654E+03  0.47000000000E+01 0. -1.
        -13    1    6    6    0    0  0.14489935818E+01  0.27459862075E+01 -0.58067896464E+01  0.65847421096E+01  0.00000000000E+00 0.  1.
         14    1    6    6    0    0  0.12810080184E+02 -0.11897575051E+03  0.20427803633E+03  0.23674636954E+03  0.00000000000E+00 0. -1.
         -5    1    3    3    0  503  0.82573534871E+02  0.10559074440E+03  0.81721766151E+02  0.15706155172E+03  0.47000000000E+01 0.  1.
         13    1    4    4    0    0 -0.33773766981E+02  0.74009156667E+02  0.84798787444E+02  0.11751109292E+03  0.00000000000E+00 0. -1.
        -14    1    4    4    0    0  0.13051138046E+02 -0.97038245541E+00  0.79400674353E+02  0.80471988506E+02  0.00000000000E+00 0.  1.
</event>
<event>
12    1  0.1630640E-001  0.1941245E+03  0.7818608E-02  0.1154935E+00
         21   -1    0    0  501  502  0.00000000000E+00  0.00000000000E+00  0.10676406543E+03  0.10676406543E+03  0.00000000000E+00 0. -1.
         21   -1    0    0  502  503 -0.00000000000E+00 -0.00000000000E+00 -0.54060128694E+03  0.54060128694E+03  0.00000000000E+00 0. -1.
         -6    2    1    2    0  503  0.78373709841E+02 -0.51929955240E+02 -0.40797098667E+03  0.45152512280E+03  0.16910189803E+03 0.  0.
        -24    2    3    3    0    0  0.96847932852E+02  0.59954936634E+01 -0.32739635371E+03  0.35047555070E+03  0.78925732009E+02 0.  0.
          6    2    1    2  501    0 -0.78373709841E+02  0.51929955240E+02 -0.25866234846E+02  0.19584022956E+03  0.16983867276E+03 0.  0.
         24    2    5    5    0    0 -0.58384576414E+02  0.85562415737E+02 -0.60549409175E+02  0.14334527327E+03  0.78434371726E+02 0.  0.
          5    1    5    5  501    0 -0.19989133427E+02 -0.33632460497E+02  0.34683174329E+02  0.52494956289E+02  0.47000000000E+01 0. -1.
        -11    1    6    6    0    0 -0.18043769528E+02  0.17000942441E+02  0.18703370917E+02  0.31055204819E+02  0.00000000000E+00 0.  1.
         12    1    6    6    0    0 -0.40340806886E+02  0.68561473296E+02 -0.79252780093E+02  0.11229006845E+03  0.00000000000E+00 0. -1.
         -5    1    3    3    0  503 -0.18474223011E+02 -0.57925448903E+02 -0.80574632952E+02  0.10104957210E+03  0.47000000000E+01 0.  1.
         11    1    4    4    0    0 -0.41836411182E+01  0.16442499645E+02 -0.17567999291E+02  0.24423211228E+02  0.00000000000E+00 0. -1.
        -12    1    4    4    0    0  0.10103157397E+03 -0.10447005982E+02 -0.30982835442E+03  0.32605233947E+03  0.00000000000E+00 0.  1.
</event>
<event>
12    1  0.1630640E-001  0.1802318E+03  0.7818608E-02  0.1167931E+00
         21   -1    0    0  503  502  0.00000000000E+00  0.00000000000E+00  0.19463779186E+03  0.19463779186E+03  0.00000000000E+00 0. -1.
         21   -1    0    0  501  503 -0.00000000000E+00 -0.00000000000E+00 -0.19122455442E+03  0.19122455442E+03  0.00000000000E+00 0. -1.
          6    2    1    2  501    0  0.50267919359E+02  0.95185054307E+01 -0.68977671622E+02  0.19298033612E+03  0.17281789631E+03 0.  0.
         24    2    3    3    0    0 -0.11065253120E+02  0.45196317853E+02 -0.18784172087E+02  0.10593930131E+03  0.93301358333E+02 0.  0.
         -6    2    1    2    0  502 -0.50267919359E+02 -0.95185054307E+01  0.72390909062E+02  0.19288201015E+03  0.17130545952E+03 0.  0.
        -24    2    5    5    0    0 -0.47377443078E+02 -0.58726998144E+02  0.63407671499E+01  0.11033177178E+03  0.80245947640E+02 0.  0.
          5    1    3    3  501    0  0.61333172478E+02 -0.35677812422E+02 -0.50193499535E+02  0.87041034812E+02  0.47000000000E+01 0. -1.
        -11    1    4    4    0    0 -0.47436830103E+01  0.60755392810E+02  0.19622263740E+02  0.64021508247E+02  0.00000000000E+00 0.  1.
         12    1    4    4    0    0 -0.63215701094E+01 -0.15559074957E+02 -0.38406435827E+02  0.41917793061E+02  0.00000000000E+00 0. -1.
         -5    1    5    5    0  502 -0.28904762802E+01  0.49208492713E+02  0.66050141912E+02  0.82550238370E+02  0.47000000000E+01 0.  1.
         11    1    6    6    0    0 -0.30046027577E+02 -0.65490118569E+02  0.31833456967E+02  0.78772383395E+02  0.00000000000E+00 0. -1.
        -12    1    6    6    0    0 -0.17331415502E+02  0.67631204246E+01 -0.25492689817E+02  0.31559388386E+02  0.00000000000E+00 0.  1.
</event>
<event>
12    1  0.1630640E-001  0.2491533E+03  0.7818608E-02  0.1114017E+00
         21   -1    0    0  503  502  0.00000000000E+00  0.00000000000E+00  0.85783331796E+03  0.85783331796E+03  0.00000000000E+00 0.  1.
         21   -1    0    0  501  503 -0.00000000000E+00 -0.00000000000E+00 -0.80406147010E+02  0.80406147010E+02  0.00000000000E+00 0. -1.
          6    2    1    2  501    0 -0.12992325212E+03  0.12287924645E+03  0.23820652371E+03  0.34470234718E+03  0.17348775047E+03 0.  0.
         24    2    3    3    0    0 -0.47601764650E+02 -0.54818909835E+01  0.10596430842E+03  0.14280261363E+03  0.82874439204E+02 0.  0.
         -6    2    1    2    0  502  0.12992325212E+03 -0.12287924645E+03  0.53922064724E+03  0.59353711779E+03  0.17189544245E+03 0.  0.
        -24    2    5    5    0    0  0.18595051117E+02 -0.43685176873E+02  0.33666760517E+03  0.34916957934E+03  0.79499359506E+02 0.  0.
          5    1    3    3  501    0 -0.82321487475E+02  0.12836113743E+03  0.13224221529E+03  0.20189973355E+03  0.47000000000E+01 0. -1.
        -11    1    4    4    0    0  0.21777818043E+02  0.91293346985E+01  0.36998971470E+02  0.43892391147E+02  0.00000000000E+00 0.  1.
         12    1    4    4    0    0 -0.69379582693E+02 -0.14611225682E+02  0.68965336950E+02  0.98910222481E+02  0.00000000000E+00 0. -1.
         -5    1    5    5    0  502  0.11132820101E+03 -0.79194069577E+02  0.20255304207E+03  0.24436753845E+03  0.47000000000E+01 0.  1.
         13    1    6    6    0    0 -0.29704875671E+02 -0.13082503712E+02  0.82625773039E+02  0.88772461452E+02  0.00000000000E+00 0. -1.
        -14    1    6    6    0    0  0.48299926788E+02 -0.30602673161E+02  0.25404183213E+03  0.26039711789E+03  0.00000000000E+00 0.  1.
</event>
<event>
12    1  0.1630640E-001  0.1792831E+03  0.7818608E-02  0.1168764E+00
         21   -1    0    0  501  502  0.00000000000E+00  0.00000000000E+00  0.72284545474E+03  0.72284545474E+03  0.00000000000E+00 0. -1.
         21   -1    0    0  502  503 -0.00000000000E+00 -0.00000000000E+00 -0.12453370494E+03  0.12453370494E+03  0.00000000000E+00 0. -1.
         -6    2    1    2    0  503 -0.47983538920E+02 -0.42267718573E+01 -0.40819475877E+02  0.18387135611E+03  0.17269093890E+03 0.  0.
        -24    2    3    3    0    0 -0.62030250523E+02 -0.56567044744E+02 -0.46542348847E+02  0.12917532748E+03  0.86443579645E+02 0.  0.
          6    2    1    2  501    0  0.47983538920E+02  0.42267718573E+01  0.63913122567E+03  0.66350780357E+03  0.17156222243E+03 0.  0.
         24    2    5    5    0    0  0.38454645744E+02 -0.56850768540E+02  0.50332305267E+03  0.51421876981E+03  0.79850348886E+02 0.  0.
          5    1    5    5  501    0  0.95288931759E+01  0.61077540397E+02  0.13580817300E+03  0.14928903376E+03  0.47000000000E+01 0. -1.
        -13    1    6    6    0    0  0.56994619983E+02 -0.63748687872E+02  0.40944736713E+03  0.41828151807E+03  0.00000000000E+00 0.  1.
         14    1    6    6    0    0 -0.18539974239E+02  0.68979193323E+01  0.93875685544E+02  0.95937251744E+02  0.00000000000E+00 0. -1.
         -5    1    3    3    0  503  0.14046711603E+02  0.52340272887E+02  0.57228729694E+01  0.54696028628E+02  0.47000000000E+01 0.  1.
         11    1    4    4    0    0 -0.56704913568E+02 -0.51836508025E+02 -0.70444239098E+02  0.10423464688E+03  0.00000000000E+00 0. -1.
        -12    1    4    4    0    0 -0.53253369544E+01 -0.47305367186E+01  0.23901890251E+02  0.24940680602E+02  0.00000000000E+00 0.  1.
</event>
<event>
12    1  0.1630640E-001  0.2063176E+03  0.7818608E-02  0.1145084E+00
         21   -1    0    0  503  502  0.00000000000E+00  0.00000000000E+00  0.16592523364E+04  0.16592523364E+04  0.00000000000E+00 0.  1.
         21   -1    0    0  501  503 -0.00000000000E+00 -0.00000000000E+00 -0.68091806052E+02  0.68091806052E+02  0.00000000000E+00 0.  1.
          6    2    1    2  501    0 -0.26633823938E+01  0.98118915619E+02  0.11299824512E+03  0.23523510463E+03  0.18147323726E+03 0.  0.
         24    2    3    3    0    0  0.77190337207E+01  0.95543138753E+02  0.10899712310E+01  0.12271852383E+03  0.76619665941E+02 0.  0.
         -6    2    1    2    0  502  0.26633823938E+01 -0.98118915619E+02  0.14781622852E+04  0.14921090378E+04  0.17830093680E+03 0.  0.
        -24    2    5    5    0    0  0.30648740989E+02 -0.10740371119E+03  0.14197134231E+04  0.14264756072E+04  0.82289439423E+02 0.  0.
          5    1    3    3  501    0 -0.10382416114E+02  0.25757768655E+01  0.11190827389E+03  0.11251658080E+03  0.47000000000E+01 0. -1.
        -13    1    4    4    0    0 -0.22083256427E+02  0.22366028753E+01 -0.96062851595E+01  0.24185808264E+02  0.00000000000E+00 0.  1.
         14    1    4    4    0    0  0.29802290147E+02  0.93306535878E+02  0.10696256390E+02  0.98532715564E+02  0.00000000000E+00 0. -1.
         -5    1    5    5    0  502 -0.27985358596E+02  0.92847955696E+01  0.58448862120E+02  0.65633430564E+02  0.47000000000E+01 0.  1.
         11    1    6    6    0    0 -0.93999467921E+01 -0.89161519411E+01  0.29710027369E+02  0.32412073235E+02  0.00000000000E+00 0. -1.
        -12    1    6    6    0    0  0.40048687781E+02 -0.98487559248E+02  0.13900033957E+04  0.13940635340E+04  0.00000000000E+00 0.  1.
</event>
<event>
12    1  0.1630640E-001  0.2162694E+03  0.7818608E-02  0.1137786E+00
         21   -1    0    0  501  502  0.00000000000E+00  0.00000000000E+00  0.26315389054E+03  0.26315389054E+03  0.00000000000E+00 0.  1.
         21   -1    0    0  502  503 -0.00000000000E+00 -0.00000000000E+00 -0.18252386677E+03  0.18252386677E+03  0.00000000000E+00 0.  1.
         -6    2    1    2    0  503  0.41887193886E+02 -0.11911405945E+03 -0.97288845383E+01  0.21648810768E+03  0.17558403516E+03 0.  0.
        -24    2    3    3    0    0 -0.39652205117E+02 -0.73635184476E+02  0.24183233853E+02  0.11704403580E+03  0.78230682936E+02 0.  0.
          6    2    1    2  501    0 -0.41887193886E+02  0.11911405945E+03  0.90358908311E+02  0.22918964964E+03  0.16858370924E+03 0.  0.
         24    2    5    5    0    0 -0.35512601480E+02  0.28662811786E+02  0.10281896254E+03  0.13754137315E+03  0.79140309750E+02 0.  0.
          5    1    5    5  501    0 -0.63745924063E+01  0.90451247664E+02 -0.12460054224E+02  0.91648276490E+02  0.47000000000E+01 0. -1.
        -13    1    6    6    0    0 -0.25338056815E+02  0.53353636078E+02  0.46362063786E+02  0.75087073218E+02  0.00000000000E+00 0.  1.
         14    1    6    6    0    0 -0.10174544664E+02 -0.24690824293E+02  0.56456898749E+02  0.62454299930E+02  0.00000000000E+00 0. -1.
         -5    1    3    3    0  503  0.81539399003E+02 -0.45478874974E+02 -0.33912118391E+02  0.99444071881E+02  0.47000000000E+01 0.  1.
         13    1    4    4    0    0  0.16498735434E+02  0.29093658876E+01  0.13495400624E+02  0.21512752469E+02  0.00000000000E+00 0. -1.
        -14    1    4    4    0    0 -0.56150940551E+02 -0.76544550363E+02  0.10687833229E+02  0.95531283327E+02  0.00000000000E+00 0.  1.
</event>
<event>
12    1  0.1630640E-001  0.4950050E+03  0.7818608E-02  0.1015273E+00
         21   -1    0    0  501  502  0.00000000000E+00  0.00000000000E+00  0.35458153488E+03  0.35458153488E+03  0.00000000000E+00 0. -1.
         21   -1    0    0  502  503 -0.00000000000E+00 -0.00000000000E+00 -0.68963013767E+03  0.68963013767E+03  0.00000000000E+00 0.  1.
         -6    2    1    2    0  503  0.43667983866E+03 -0.15785953662E+03 -0.19792591330E+03  0.53056535333E+03  0.16345033559E+03 0.  0.
        -24    2    3    3    0    0  0.38765348886E+03 -0.17061882899E+03 -0.13910514563E+03  0.45279418113E+03  0.79286295731E+02 0.  0.
          6    2    1    2  501    0 -0.43667983866E+03  0.15785953662E+03 -0.13712268949E+03  0.51364631923E+03  0.17152549223E+03 0.  0.
         24    2    5    5    0    0 -0.37918502079E+03  0.14513250088E+03 -0.16858263632E+03  0.44671762751E+03  0.79320934526E+02 0.  0.
          5    1    5    5  501    0 -0.57494817873E+02  0.12727035740E+02  0.31459946827E+02  0.66928691720E+02  0.47000000000E+01 0. -1.
        -13    1    6    6    0    0 -0.42028042440E+02 -0.25331002079E+01 -0.56812169002E+00  0.42108143040E+02  0.00000000000E+00 0.  1.
         14    1    6    6    0    0 -0.33715697835E+03  0.14766560109E+03 -0.16801451463E+03  0.40460948447E+03  0.00000000000E+00 0. -1.
         -5    1    3    3    0  503  0.49026349798E+02  0.12759292373E+02 -0.58820767668E+02  0.77771172200E+02  0.47000000000E+01 0.  1.
         13    1    4    4    0    0  0.25221412235E+02 -0.31143362243E+02 -0.27939599127E+02  0.48853350410E+02  0.00000000000E+00 0. -1.
        -14    1    4    4    0    0  0.36243207663E+03 -0.13947546675E+03 -0.11116554650E+03  0.40394083072E+03  0.00000000000E+00 0.  1.
</event>
<event>
12    1  0.1630640E-001  0.1921484E+03  0.7818608E-02  0.1157454E+00
         21   -1    0    0  503  502  0.00000000000E+00  0.00000000000E+00  0.98028660117E+02  0.98028660117E+02  0.00000000000E+00 0.  1.
         21   -1    0    0  501  503 -0.00000000000E+00 -0.00000000000E+00 -0.70686116638E+03  0.70686116638E+03  0.00000000000E+00 0.  1.
          6    2    1    2  501    0 -0.71611622532E+02 -0.40617514022E+02 -0.58106734845E+03  0.61074579919E+03  0.16909512373E+03 0.  0.
         24    2    3    3    0    0 -0.72183396614E+02 -0.68014620309E+02 -0.30547981798E+03  0.33375932785E+03  0.90779614496E+02 0.  0.
         -6    2    1    2    0  502  0.71611622532E+02  0.40617514022E+02 -0.27765157807E+02  0.19414402730E+03  0.17361737361E+03 0.  0.
        -24    2    5    5    0    0  0.97876050528E+02  0.62341083087E+02  0.12252540621E+02  0.14136865598E+03  0.79805013836E+02 0.  0.
          5    1    3    3  501    0  0.57177408196E+00  0.27397106287E+02 -0.27558753047E+03  0.27698647135E+03  0.47000000000E+01 0. -1.
        -11    1    4    4    0    0 -0.61756506773E+02 -0.90404894302E+02 -0.24068796182E+03  0.26441937525E+03  0.00000000000E+00 0.  1.
         12    1    4    4    0    0 -0.10426889841E+02  0.22390273993E+02 -0.64791856158E+02  0.69339952593E+02  0.00000000000E+00 0. -1.
         -5    1    5    5    0  502 -0.26264427996E+02 -0.21723569065E+02 -0.40017698428E+02  0.52775371323E+02  0.47000000000E+01 0.  1.
         11    1    6    6    0    0  0.11305689747E+02 -0.16764901939E+02  0.13104564208E+02  0.24095853601E+02  0.00000000000E+00 0. -1.
        -12    1    6    6    0    0  0.86570360781E+02  0.79105985026E+02 -0.85202358754E+00  0.11727280238E+03  0.00000000000E+00 0.  1.
</event>
<event>
12    1  0.1630640E-001  0.2122328E+03  0.7818608E-02  0.1140641E+00
         21   -1    0    0  503  502  0.00000000000E+00  0.00000000000E+00  0.11251320494E+03  0.11251320494E+03  0.00000000000E+00 0. -1.
         21   -1    0    0  501  503 -0.00000000000E+00 -0.00000000000E+00 -0.43352279976E+03  0.43352279976E+03  0.00000000000E+00 0.  1.
          6    2    1    2  501    0 -0.11694471858E+03 -0.39614648460E+01 -0.24601068426E+03  0.32490616008E+03  0.17706212379E+03 0.  0.
         24    2    3    3    0    0 -0.21168354222E+02 -0.37130918873E+02 -0.18645195819E+03  0.20725134080E+03  0.79762028508E+02 0.  0.
         -6    2    1    2    0  502  0.11694471858E+03  0.39614648460E+01 -0.74998910555E+02  0.22112984462E+03  0.17199363706E+03 0.  0.
        -24    2    5    5    0    0 -0.39567646365E+01 -0.10335761646E+02 -0.96170444567E+01  0.82860333361E+02  0.81552825490E+02 0.  0.
          5    1    3    3  501    0 -0.95776364357E+02  0.33169454027E+02 -0.59558726065E+02  0.11765481928E+03  0.47000000000E+01 0. -1.
        -11    1    4    4    0    0 -0.24900585094E+02 -0.39158596589E+01 -0.16634813673E+03  0.16824706740E+03  0.00000000000E+00 0.  1.
         12    1    4    4    0    0  0.37322308719E+01 -0.33215059214E+02 -0.20103821462E+02  0.39004273397E+02  0.00000000000E+00 0. -1.
         -5    1    5    5    0  502  0.12090148322E+03  0.14297226492E+02 -0.65381866098E+02  0.13826951126E+03  0.47000000000E+01 0.  1.
         11    1    6    6    0    0 -0.29682850801E+02  0.22718241074E+02 -0.15686929336E+02  0.40537265093E+02  0.00000000000E+00 0. -1.
        -12    1    6    6    0    0  0.25726086165E+02 -0.33054002720E+02  0.60698848796E+01  0.42323068268E+02  0.00000000000E+00 0.  1.
</event>
<event>
12    1  0.1630640E-001  0.2105936E+03  0.7818608E-02  0.1142824E+00
         21   -1    0    0  503  502  0.00000000000E+00  0.00000000000E+00  0.11966250769E+03  0.11966250769E+03  0.00000000000E+00 0.  1.
         21   -1    0    0  501  503 -0.00000000000E+00 -0.00000000000E+00 -0.46258317521E+03  0.46258317521E+03  0.00000000000E+00 0.  1.
          6    2    1    2  501    0  0.98734799138E+02  0.34096168390E+02 -0.30863608988E+03  0.36887958703E+03  0.17293005665E+03 0.  0.
         24    2    3    3    0    0  0.12665445849E+03  0.49959501883E+02 -0.19838158949E+03  0.25394787868E+03  0.81221711113E+02 0.  0.
         -6    2    1    2    0  502 -0.98734799138E+02 -0.34096168390E+02 -0.34284577644E+02  0.21336609586E+03  0.18286210471E+03 0.  0.
        -24    2    5    5    0    0 -0.58934325760E+02  0.38851815876E+02 -0.65220898371E+02  0.12457064536E+03  0.79255042436E+02 0.  0.
          5    1    3    3  501    0 -0.27919659351E+02 -0.15863333493E+02 -0.11025450039E+03  0.11493170835E+03  0.47000000000E+01 0. -1.
        -13    1    4    4    0    0  0.97003228306E+02  0.59287433803E+02 -0.19055882352E+03  0.22189477536E+03  0.00000000000E+00 0.  1.
         14    1    4    4    0    0  0.29651230183E+02 -0.93279319201E+01 -0.78227659616E+01  0.32053103322E+02  0.00000000000E+00 0. -1.
         -5    1    5    5    0  502 -0.39800473378E+02 -0.72947984266E+02  0.30936320726E+02  0.88795450501E+02  0.47000000000E+01 0.  1.
         13    1    6    6    0    0 -0.33242448364E+02  0.37024944825E+02 -0.80489735878E+02  0.94628243640E+02  0.00000000000E+00 0. -1.
        -14    1    6    6    0    0 -0.25691877396E+02  0.18268710514E+01  0.15268837508E+02  0.29942401721E+02  0.00000000000E+00 0.  1.
</event>
<event>
12    1  0.1630640E-001  0.2250620E+03  0.7818608E-02  0.1130285E+00
         21   -1    0    0  501  502  0.00000000000E+00  0.00000000000E+00  0.52918059402E+03  0.52918059402E+03  0.00000000000E+00 0.  1.
         21   -1    0    0  502  503 -0.00000000000E+00 -0.00000000000E+00 -0.16142645934E+03  0.16142645934E+03  0.00000000000E+00 0. -1.
         -6    2    1    2    0  503 -0.14471794842E+03  0.83698066221E+01  0.40481234696E+03  0.46316944664E+03  0.17216144106E+03 0.  0.
        -24    2    3    3    0    0 -0.23821041481E+02  0.49726949185E+02  0.15371175095E+03  0.18138925808E+03  0.78959160791E+02 0.  0.
          6    2    1    2  501    0  0.14471794842E+03 -0.83698066221E+01 -0.37058212275E+02  0.22743760672E+03  0.17129277743E+03 0.  0.
         24    2    5    5    0    0  0.22294632345E+02 -0.35036447866E+02  0.13269861542E+02  0.92331784912E+02  0.81390822390E+02 0.  0.
          5    1    5    5  501    0  0.12242331607E+03  0.26666641244E+02 -0.50328073817E+02  0.13510582181E+03  0.47000000000E+01 0. -1.
        -11    1    6    6    0    0 -0.88503532543E+01 -0.10922937379E+02 -0.30417728928E+02  0.33509365062E+02  0.00000000000E+00 0.  1.
         12    1    6    6    0    0  0.31144985599E+02 -0.24113510486E+02  0.43687590470E+02  0.58822419850E+02  0.00000000000E+00 0. -1.
         -5    1    3    3    0  503 -0.12089690693E+03 -0.41357142563E+02  0.25110059601E+03  0.28178018856E+03  0.47000000000E+01 0.  1.
         11    1    4    4    0    0 -0.36478254945E+02 -0.62933464441E+01  0.43560501135E+02  0.57164556785E+02  0.00000000000E+00 0. -1.
        -12    1    4    4    0    0  0.12657213464E+02  0.56020295630E+02  0.11015124982E+03  0.12422470129E+03  0.00000000000E+00 0.  1.
</event>
<event>
12    1  0.1630640E-001  0.2282671E+03  0.7818608E-02  0.1128424E+00
         21   -1    0    0  501  502  0.00000000000E+00  0.00000000000E+00  0.23788644722E+03  0.23788644722E+03  0.00000000000E+00 0. -1.
         21   -1    0    0  502  503 -0.00000000000E+00 -0.00000000000E+00 -0.93930595130E+03  0.93930595130E+03  0.00000000000E+00 0.  1.
         -6    2    1    2    0  503 -0.93357628333E+02 -0.11029822646E+03 -0.86774775380E+03  0.89726920254E+03  0.17670458989E+03 0.  0.
        -24    2    3    3    0    0 -0.47598446634E+02 -0.10607704924E+03 -0.35024519347E+03  0.37770908957E+03  0.80464329358E+02 0.  0.
          6    2    1    2  501    0  0.93357628333E+02  0.11029822646E+03  0.16632824971E+03  0.27992319597E+03  0.17265735856E+03 0.  0.
         24    2    5    5    0    0  0.79459599972E+02  0.30677908147E+02  0.50854520257E+02  0.13889545943E+03  0.97215247489E+02 0.  0.
          5    1    5    5  501    0  0.13898028361E+02  0.79620318317E+02  0.11547372945E+03  0.14102773654E+03  0.47000000000E+01 0. -1.
        -11    1    6    6    0    0  0.17556192264E+02  0.57995030372E+02  0.15464376506E+02  0.62536312454E+02  0.00000000000E+00 0.  1.
         12    1    6    6    0    0  0.61903407708E+02 -0.27317122225E+02  0.35390143752E+02  0.76359146978E+02  0.00000000000E+00 0. -1.
         -5    1    3    3    0  503 -0.45759181699E+02 -0.42211772210E+01 -0.51750256033E+03  0.51956011297E+03  0.47000000000E+01 0.  1.
         13    1    4    4    0    0 -0.53552012511E+02 -0.64956182027E+02 -0.13971305280E+03  0.16311609593E+03  0.00000000000E+00 0. -1.
        -14    1    4    4    0    0  0.59535658772E+01 -0.41120867216E+02 -0.21053214067E+03  0.21459299364E+03  0.00000000000E+00 0.  1.
</event>
<event>
12    1  0.1630640E-001  0.2282056E+03  0.7818608E-02  0.1128106E+00
         21   -1    0    0  503  502  0.00000000000E+00  0.00000000000E+00  0.50834725180E+03  0.50834725180E+03  0.00000000000E+00 0.  1.
         21   -1    0    0  501  503 -0.00000000000E+00 -0.00000000000E+00 -0.11152164275E+03  0.11152164275E+03  0.00000000000E+00 0. -1.
          6    2    1    2  501    0  0.75915680892E+02  0.12836877988E+03  0.10805850019E+03  0.25249636311E+03  0.17273111957E+03 0.  0.
         24    2    3    3    0    0  0.11864090122E+03  0.84811448618E+02  0.84075572080E+02  0.18676998789E+03  0.80905384845E+02 0.  0.
         -6    2    1    2    0  502 -0.75915680892E+02 -0.12836877988E+03  0.28876710886E+03  0.36737253143E+03  0.17127288005E+03 0.  0.
        -24    2    5    5    0    0  0.15580760739E+02 -0.10458140598E+03  0.17272653803E+03  0.21762293355E+03  0.79657100655E+02 0.  0.
          5    1    3    3  501    0 -0.42725220327E+02  0.43557331266E+02  0.23982928109E+02  0.65726375221E+02  0.47000000000E+01 0. -1.
        -13    1    4    4    0    0  0.77175760299E+02  0.99328093456E+01  0.58776551565E+02  0.97516366283E+02  0.00000000000E+00 0.  1.
         14    1    4    4    0    0  0.41465140920E+02  0.74878639272E+02  0.25299020515E+02  0.89253621606E+02  0.00000000000E+00 0. -1.
         -5    1    5    5    0  502 -0.91496441630E+02 -0.23787373905E+02  0.11604057083E+03  0.14974959789E+03  0.47000000000E+01 0.  1.
         13    1    6    6    0    0  0.39019635058E+02 -0.32702226957E+02  0.39494823107E+02  0.64434529720E+02  0.00000000000E+00 0. -1.
        -14    1    6    6    0    0 -0.23438874320E+02 -0.71879179022E+02  0.13323171492E+03  0.15318840383E+03  0.00000000000E+00 0.  1.
</event>
<event>
12    1  0.1630640E-001  0.2068914E+03  0.7818608E-02  0.1147171E+00
         21   -1    0    0  503  502  0.00000000000E+00  0.00000000000E+00  0.56599224032E+03  0.56599224032E+03  0.00000000000E+00 0. -1.
         21   -1    0    0  501  503 -0.00000000000E+00 -0.00000000000E+00 -0.73845199061E+02  0.73845199061E+02  0.00000000000E+00 0. -1.
          6    2    1    2  501    0 -0.87211003734E+02  0.74501008159E+02  0.18469112516E+03  0.27733526499E+03  0.17218559203E+03 0.  0.
         24    2    3    3    0    0 -0.10780927738E+03  0.89817188873E+02  0.10457346662E+03  0.19307493340E+03  0.81561953642E+02 0.  0.
         -6    2    1    2    0  502  0.87211003734E+02 -0.74501008159E+02  0.30745591610E+03  0.36250217440E+03  0.15402118915E+03 0.  0.
        -24    2    5    5    0    0  0.12560637288E+02 -0.82418584464E+02  0.20674189393E+03  0.23680106268E+03  0.79887044668E+02 0.  0.
          5    1    3    3  501    0  0.20598273642E+02 -0.15316180714E+02  0.80117658546E+02  0.84260331589E+02  0.47000000000E+01 0. -1.
        -11    1    4    4    0    0 -0.14596518299E+02  0.58270168717E+02  0.19979494478E+02  0.63306011629E+02  0.00000000000E+00 0.  1.
         12    1    4    4    0    0 -0.93212759078E+02  0.31547020156E+02  0.84593972140E+02  0.12976892177E+03  0.00000000000E+00 0. -1.
         -5    1    5    5    0  502  0.74650366447E+02  0.79175763047E+01  0.10071402217E+03  0.12570111172E+03  0.47000000000E+01 0.  1.
         13    1    6    6    0    0  0.29700195921E+02 -0.84882078555E+02  0.12962937159E+03  0.15776832026E+03  0.00000000000E+00 0. -1.
        -14    1    6    6    0    0 -0.17139558633E+02  0.24634940914E+01  0.77112522335E+02  0.79032742419E+02  0.00000000000E+00 0.  1.
</event>
<event>
12    1  0.1630640E-001  0.2709384E+03  0.7818608E-02  0.1100775E+00
         21   -1    0    0  501  502  0.00000000000E+00  0.00000000000E+00  0.19755072415E+03  0.19755072415E+03  0.00000000000E+00 0.  1.
         21   -1    0    0  502  503 -0.00000000000E+00 -0.00000000000E+00 -0.39977927665E+03  0.39977927665E+03  0.00000000000E+00 0.  1.
         -6    2    1    2    0  503  0.18197414761E+02 -0.20871021712E+03 -0.18088655647E+03  0.32577225917E+03  0.17180371911E+03 0.  0.
        -24    2    3    3    0    0  0.28224390281E+02 -0.82581403858E+02 -0.15837070951E+03  0.19717182707E+03  0.78607526915E+02 0.  0.
          6    2    1    2  501    0 -0.18197414761E+02  0.20871021712E+03 -0.21341996031E+02  0.27155774163E+03  0.17145560828E+03 0.  0.
         24    2    5    5    0    0 -0.41450074669E+02  0.66160389188E+02 -0.55536311592E+02  0.12305696435E+03  0.77223239917E+02 0.  0.
          5    1    5    5  501    0  0.23252659909E+02  0.14254982793E+03  0.34194315561E+02  0.14850077728E+03  0.47000000000E+01 0. -1.
        -11    1    6    6    0    0 -0.45420853623E+02  0.67650158486E+02 -0.70348279158E+02  0.10764979455E+03  0.00000000000E+00 0.  1.
         12    1    6    6    0    0  0.39707789532E+01 -0.14897692974E+01  0.14811967567E+02  0.15407169800E+02  0.00000000000E+00 0. -1.
         -5    1    3    3    0  503 -0.10026975520E+02 -0.12612881326E+03 -0.22515846953E+02  0.12860043210E+03  0.47000000000E+01 0.  1.
         11    1    4    4    0    0  0.29037918719E+02  0.38516889207E+01 -0.26518509114E+02  0.39512878365E+02  0.00000000000E+00 0. -1.
        -12    1    4    4    0    0 -0.81352843830E+00 -0.86433092778E+02 -0.13185220040E+03  0.15765894870E+03  0.00000000000E+00 0.  1.
</event>
<event>
12    1  0.1630640E-001  0.4325442E+03  0.7818608E-02  0.1033472E+00
         21   -1    0    0  501  502  0.00000000000E+00  0.00000000000E+00  0.21425708156E+03  0.21425708156E+03  0.00000000000E+00 0. -1.
         21   -1    0    0  502  503 -0.00000000000E+00 -0.00000000000E+00 -0.18380021299E+04  0.18380021299E+04  0.00000000000E+00 0.  1.
         -6    2    1    2    0  503  0.39114098234E+03  0.14498834654E+02 -0.15616639736E+04  0.16204594516E+04  0.18410047171E+03 0.  0.
        -24    2    3    3    0    0  0.15213983124E+03 -0.37031361324E+02 -0.51548186015E+03  0.54607776163E+03  0.89227370402E+02 0.  0.
          6    2    1    2  501    0 -0.39114098234E+03 -0.14498834654E+02 -0.62081074786E+02  0.43179975987E+03  0.17145112571E+03 0.  0.
         24    2    5    5    0    0 -0.29217527653E+03  0.31739220124E+02 -0.92860653801E+02  0.31821436855E+03  0.79142359206E+02 0.  0.
          5    1    5    5  501    0 -0.98965705810E+02 -0.46238054778E+02  0.30779579015E+02  0.11358539132E+03  0.47000000000E+01 0. -1.
        -13    1    6    6    0    0 -0.95424795785E+02 -0.20937226007E+02 -0.51272374605E+02  0.11033184255E+03  0.00000000000E+00 0.  1.
         14    1    6    6    0    0 -0.19675048074E+03  0.52676446131E+02 -0.41588279196E+02  0.20788252600E+03  0.00000000000E+00 0. -1.
         -5    1    3    3    0  503  0.23900115110E+03  0.51530195978E+02 -0.10461821134E+04  0.10743816900E+04  0.47000000000E+01 0.  1.
         11    1    4    4    0    0  0.90319585335E+02 -0.29137808883E+02 -0.16713433156E+03  0.19219917843E+03  0.00000000000E+00 0. -1.
        -12    1    4    4    0    0  0.61820245904E+02 -0.78935524413E+01 -0.34834752859E+03  0.35387858320E+03  0.00000000000E+00 0.  1.
</event>
<event>
12    1  0.1630640E-001  0.1841571E+03  0.7818608E-02  0.1164122E+00
         21   -1    0    0  503  502  0.00000000000E+00  0.00000000000E+00  0.71332607765E+03  0.71332607765E+03  0.00000000000E+00 0. -1.
         21   -1    0    0  501  503 -0.00000000000E+00 -0.00000000000E+00 -0.49624322958E+02  0.49624322958E+02  0.00000000000E+00 0. -1.
          6    2    1    2  501    0 -0.58389807580E+01  0.65380075448E+02  0.24709809455E+03  0.30745895992E+03  0.17077732796E+03 0.  0.
         24    2    3    3    0    0 -0.63790054599E+02  0.46647907351E+02  0.20421917555E+03  0.23282711166E+03  0.79106219318E+02 0.  0.
         -6    2    1    2    0  502  0.58389807580E+01 -0.65380075448E+02  0.41660366015E+03  0.45549144069E+03  0.17206160214E+03 0.  0.
        -24    2    5    5    0    0  0.62738025953E+02 -0.38587182218E+02  0.33607820644E+03  0.35320850386E+03  0.79891525342E+02 0.  0.
          5    1    3    3  501    0  0.57951073841E+02  0.18732168097E+02  0.42878918994E+02  0.74631848262E+02  0.47000000000E+01 0. -1.
        -13    1    4    4    0    0 -0.10639766202E+01 -0.10884917942E+02  0.88517236887E+02  0.89190328573E+02  0.00000000000E+00 0.  1.
         14    1    4    4    0    0 -0.62726077978E+02  0.57532825293E+02  0.11570193867E+03  0.14363678309E+03  0.00000000000E+00 0. -1.
         -5    1    5    5    0  502 -0.56899045195E+02 -0.26792893230E+02  0.80525453707E+02  0.10228293683E+03  0.47000000000E+01 0.  1.
         11    1    6    6    0    0  0.56390034657E+02 -0.42689821296E+02  0.13875722443E+03  0.15574281422E+03  0.00000000000E+00 0. -1.
        -12    1    6    6    0    0  0.63479912960E+01  0.41026390784E+01  0.19732098201E+03  0.19746568963E+03  0.00000000000E+00 0.  1.
</event>
<event>
12    1  0.1630640E-001  0.2969120E+03  0.7818608E-02  0.1086999E+00
         21   -1    0    0  501  502  0.00000000000E+00  0.00000000000E+00  0.11892477097E+03  0.11892477097E+03  0.00000000000E+00 0.  1.
         21   -1    0    0  502  503 -0.00000000000E+00 -0.00000000000E+00 -0.84050939922E+03  0.84050939922E+03  0.00000000000E+00 0.  1.
         -6    2    1    2    0  503  0.16251221439E+03  0.17682095460E+03 -0.52977313631E+03  0.60730246815E+03  0.17458763430E+03 0.  0.
        -24    2    3    3    0    0  0.45112616618E+02  0.88120622516E+01 -0.17807726393E+03  0.20021312892E+03  0.79126382725E+02 0.  0.
          6    2    1    2  501    0 -0.16251221439E+03 -0.17682095460E+03 -0.19181149195E+03  0.35213170205E+03  0.17184067426E+03 0.  0.
         24    2    5    5    0    0 -0.18671453452E+03 -0.14760277428E+03 -0.13608007228E+03  0.28454815745E+03  0.76164108766E+02 0.  0.
          5    1    5    5  501    0  0.24202320130E+02 -0.29218180326E+02 -0.55731419669E+02  0.67583544592E+02  0.47000000000E+01 0. -1.
        -11    1    6    6    0    0 -0.81941989814E+02 -0.11293674216E+03 -0.74780070875E+02  0.15830747432E+03  0.00000000000E+00 0.  1.
         12    1    6    6    0    0 -0.10477254471E+03 -0.34666032116E+02 -0.61300001401E+02  0.12624068314E+03  0.00000000000E+00 0. -1.
         -5    1    3    3    0  503  0.11739959777E+03  0.16800889235E+03 -0.35169587237E+03  0.40708933923E+03  0.47000000000E+01 0.  1.
         13    1    4    4    0    0  0.44561124922E+02  0.19089535686E+02 -0.43168791194E+02  0.64912624043E+02  0.00000000000E+00 0. -1.
        -14    1    4    4    0    0  0.55149169584E+00 -0.10277473435E+02 -0.13490847274E+03  0.13530050488E+03  0.00000000000E+00 0.  1.
</event>
<event>
12    1  0.1630640E-001  0.2063735E+03  0.7818608E-02  0.1144902E+00
         21   -1    0    0  501  502  0.00000000000E+00  0.00000000000E+00  0.23995309087E+02  0.23995309087E+02  0.00000000000E+00 0. -1.
         21   -1    0    0  502  503 -0.00000000000E+00 -0.00000000000E+00 -0.18279549742E+04  0.18279549742E+04  0.00000000000E+00 0.  1.
         -6    2    1    2    0  503 -0.78283260080E+02 -0.82504239552E+02 -0.72371785597E+03  0.75256730149E+03  0.17220566156E+03 0.  0.
        -24    2    3    3    0    0 -0.10599729890E+03 -0.10530893508E+03 -0.57691039238E+03  0.60136332188E+03  0.80540951597E+02 0.  0.
          6    2    1    2  501    0  0.78283260080E+02  0.82504239552E+02 -0.10802418092E+04  0.10993829818E+04  0.16966247694E+03 0.  0.
         24    2    5    5    0    0 -0.67700918845E+01  0.80480071248E+02 -0.73505381099E+03  0.74383409063E+03  0.80387644083E+02 0.  0.
          5    1    5    5  501    0  0.85053351965E+02  0.20241683039E+01 -0.34518799816E+03  0.35554889117E+03  0.47000000000E+01 0. -1.
        -13    1    6    6    0    0  0.24218819513E+02  0.72966378920E+02 -0.60793673451E+03  0.61277868504E+03  0.00000000000E+00 0.  1.
         14    1    6    6    0    0 -0.30988911398E+02  0.75136923283E+01 -0.12711707648E+03  0.13105540559E+03  0.00000000000E+00 0. -1.
         -5    1    3    3    0  503  0.27714038820E+02  0.22804695524E+02 -0.14680746359E+03  0.15120397962E+03  0.47000000000E+01 0.  1.
         11    1    4    4    0    0 -0.11536490865E+02 -0.61559262702E+02 -0.16456343736E+03  0.17607884133E+03  0.00000000000E+00 0. -1.
        -12    1    4    4    0    0 -0.94460808035E+02 -0.43749672374E+02 -0.41234695502E+03  0.42528448055E+03  0.00000000000E+00 0.  1.
</event>
<event>
12    1  0.1630640E-001  0.2334966E+03  0.7818608E-02  0.1124214E+00
         21   -1    0    0  503  502  0.00000000000E+00  0.00000000000E+00  0.24336979974E+03  0.24336979974E+03  0.00000000000E+00 0. -1.
         21   -1    0    0  501  503 -0.00000000000E+00 -0.00000000000E+00 -0.24237398126E+03  0.24237398126E+03  0.00000000000E+00 0. -1.
          6    2    1    2  501    0  0.15657975053E+03  0.95690685399E+01 -0.66442814623E+02  0.24276591217E+03  0.17295044131E+03 0.  0.
         24    2    3    3    0    0  0.11760789421E+03 -0.50934441823E+02 -0.10755707344E+02  0.15164717498E+03  0.80344547378E+02 0.  0.
         -6    2    1    2    0  502 -0.15657975053E+03 -0.95690685399E+01  0.67438633109E+02  0.24297786883E+03  0.17286263378E+03 0.  0.
        -24    2    5    5    0    0 -0.17785188943E+03 -0.32905297488E+02  0.72609740391E+02  0.21063727784E+03  0.79886389560E+02 0.  0.
          5    1    3    3  501    0  0.38971856315E+02  0.60503510363E+02 -0.55687107280E+02  0.91118737195E+02  0.47000000000E+01 0. -1.
        -13    1    4    4    0    0  0.23270420794E+02 -0.49704773251E+02  0.79795239200E+01  0.55459442567E+02  0.00000000000E+00 0.  1.
         14    1    4    4    0    0  0.94337473418E+02 -0.12296685721E+01 -0.18735231264E+02  0.96187732410E+02  0.00000000000E+00 0. -1.
         -5    1    5    5    0  502  0.21272138905E+02  0.23336228948E+02 -0.51711072821E+01  0.32340590991E+02  0.47000000000E+01 0.  1.
         11    1    6    6    0    0 -0.14695428931E+03 -0.35989579985E+02  0.88992678773E+02  0.17552922802E+03  0.00000000000E+00 0. -1.
        -12    1    6    6    0    0 -0.30897600124E+02  0.30842824973E+01 -0.16382938381E+02  0.35108049817E+02  0.00000000000E+00 0.  1.
</event>
<event>
12    1  0.1630640E-001  0.1835562E+03  0.7818608E-02  0.1165947E+00
         21   -1    0    0  501  502  0.00000000000E+00  0.00000000000E+00  0.26302166630E+03  0.26302166630E+03  0.00000000000E+00 0. -1.
         21   -1    0    0  502  503 -0.00000000000E+00 -0.00000000000E+00 -0.15245362959E+03  0.15245362959E+03  0.00000000000E+00 0.  1.
         -6    2    1    2    0  503 -0.41523270473E+01 -0.69587540748E+02 -0.35777807134E+02  0.18072012393E+03  0.16284975917E+03 0.  0.
        -24    2    3    3    0    0 -0.33145632702E+02 -0.30168503172E+02 -0.74910519636E+02  0.11788755687E+03  0.79228268700E+02 0.  0.
          6    2    1    2  501    0  0.41523270473E+01  0.69587540748E+02  0.14634584385E+03  0.23475517195E+03  0.16980346610E+03 0.  0.
         24    2    5    5    0    0  0.67496888204E+02  0.31102216056E+02  0.92782270451E+02  0.14318661818E+03  0.79816540614E+02 0.  0.
          5    1    5    5  501    0 -0.63344561156E+02  0.38485324691E+02  0.53563573399E+02  0.91568553772E+02  0.47000000000E+01 0. -1.
        -13    1    6    6    0    0  0.27461817603E+02 -0.25534956119E+02  0.46800690559E+02  0.59970743257E+02  0.00000000000E+00 0.  1.
         14    1    6    6    0    0  0.40035070601E+02  0.56637172176E+02  0.45981579893E+02  0.83215874925E+02  0.00000000000E+00 0. -1.
         -5    1    3    3    0  503  0.28993305654E+02 -0.39419037576E+02  0.39132712501E+02  0.62832567064E+02  0.47000000000E+01 0.  1.
         11    1    4    4    0    0  0.18733666577E+02 -0.21501376776E+02 -0.28318101769E+01  0.28657959026E+02  0.00000000000E+00 0. -1.
        -12    1    4    4    0    0 -0.51879299278E+02 -0.86671263959E+01 -0.72078709459E+02  0.89229597841E+02  0.00000000000E+00 0.  1.
</event>
<event>
12    1  0.1630640E-001  0.1829056E+03  0.7818608E-02  0.1168098E+00
         21   -1    0    0  501  502  0.00000000000E+00  0.00000000000E+00  0.79369223243E+02  0.79369223243E+02  0.00000000000E+00 0.  1.
         21   -1    0    0  502  503 -0.00000000000E+00 -0.00000000000E+00 -0.39377564655E+03  0.39377564655E+03  0.00000000000E+00 0. -1.
         -6    2    1    2    0  503  0.36237802061E+02  0.52106059357E+02 -0.15356521652E+03  0.23882365130E+03  0.17154078517E+03 0.  0.
        -24    2    3    3    0    0 -0.26636580453E+02 -0.18721368563E+02 -0.59574164120E+02  0.10530915601E+03  0.80504287149E+02 0.  0.
          6    2    1    2  501    0 -0.36237802061E+02 -0.52106059357E+02 -0.16084120679E+03  0.23432121849E+03  0.15814019070E+03 0.  0.
         24    2    5    5    0    0  0.13955987323E+02  0.56193938971E+01 -0.55080220808E+02  0.10371065000E+03  0.86577832206E+02 0.  0.
          5    1    5    5  501    0 -0.50193789384E+02 -0.57725453254E+02 -0.10576098598E+03  0.13061056849E+03  0.47000000000E+01 0. -1.
        -13    1    6    6    0    0 -0.21989778623E+01 -0.39625390776E+02 -0.21945936357E+02  0.45350096145E+02  0.00000000000E+00 0.  1.
         14    1    6    6    0    0  0.16154965185E+02  0.45244784673E+02 -0.33134284451E+02  0.58360553856E+02  0.00000000000E+00 0. -1.
         -5    1    3    3    0  503  0.62874382514E+02  0.70827427920E+02 -0.93991052396E+02  0.13351449529E+03  0.47000000000E+01 0.  1.
         11    1    4    4    0    0  0.21232516773E+02 -0.23038611096E+02 -0.36084838012E+01  0.31537573228E+02  0.00000000000E+00 0. -1.
        -12    1    4    4    0    0 -0.47869097226E+02  0.43172425337E+01 -0.55965680318E+02  0.73771582779E+02  0.00000000000E+00 0.  1.
</event>
<event>
12    1  0.1630640E-001  0.1899320E+03  0.7818608E-02  0.1158753E+00
         21   -1    0    0  503  502  0.00000000000E+00  0.00000000000E+00  0.40685866296E+03  0.40685866296E+03  0.00000000000E+00 0. -1.
         21   -1    0    0  501  503 -0.00000000000E+00 -0.00000000000E+00 -0.97971148049E+02  0.97971148049E+02  0.00000000000E+00 0. -1.
          6    2    1    2  501    0  0.21496777055E+02  0.75685852618E+02  0.74321905806E+02  0.20301003184E+03  0.17175234390E+03 0.  0.
         24    2    3    3    0    0  0.13377721412E+02  0.79255907781E+02  0.11101641494E+03  0.16496740629E+03  0.91810339303E+02 0.  0.
         -6    2    1    2    0  502 -0.21496777055E+02 -0.75685852618E+02  0.23456560910E+03  0.30181977916E+03  0.17286900940E+03 0.  0.
        -24    2    5    5    0    0  0.27968422294E+02  0.12283203226E+02  0.13919730733E+03  0.16288611256E+03  0.78885268401E+02 0.  0.
          5    1    3    3  501    0  0.81190556426E+01 -0.35700551629E+01 -0.36694509134E+02  0.38042625554E+02  0.47000000000E+01 0. -1.
        -11    1    4    4    0    0  0.21148144245E+02  0.96084326328E+01  0.88290550340E+02  0.91295056066E+02  0.00000000000E+00 0.  1.
         12    1    4    4    0    0 -0.77704228324E+01  0.69647475148E+02  0.22725864600E+02  0.73672350223E+02  0.00000000000E+00 0. -1.
         -5    1    5    5    0  502 -0.49465199349E+02 -0.87969055844E+02  0.95368301775E+02  0.13893366660E+03  0.47000000000E+01 0.  1.
         13    1    6    6    0    0  0.19076020734E+02 -0.28743265562E+02  0.29359388286E+02  0.45299487445E+02  0.00000000000E+00 0. -1.
        -14    1    6    6    0    0  0.88924015603E+01  0.41026468788E+02  0.10983791904E+03  0.11758662511E+03  0.00000000000E+00 0.  1.
</event>
<event>
12    1  0.1630640E-001  0.1988137E+03  0.7818608E-02  0.1151893E+00
         21   -1    0    0  503  502  0.00000000000E+00  0.00000000000E+00  0.22663923077E+02  0.22663923077E+02  0.00000000000E+00 0. -1.
         21   -1    0    0  501  503 -0.00000000000E+00 -0.00000000000E+00 -0.17243167978E+04  0.17243167978E+04  0.00000000000E+00 0. -1.
          6    2    1    2  501    0  0.61574831280E+01  0.88007746283E+02 -0.73078235877E+03  0.75596284516E+03  0.17220246620E+03 0.  0.
         24    2    3    3    0    0 -0.35567230926E+02  0.24496337441E+02 -0.57952464205E+03  0.58662402007E+03  0.80086401538E+02 0.  0.
         -6    2    1    2    0  502 -0.61574831280E+01 -0.88007746283E+02 -0.97087051598E+03  0.99101787575E+03  0.17816731812E+03 0.  0.
        -24    2    5    5    0    0  0.23698529599E+02 -0.12346738750E+03 -0.65955370105E+03  0.67623379592E+03  0.80468913869E+02 0.  0.
          5    1    3    3  501    0  0.41724714054E+02  0.63511408842E+02 -0.15125771672E+03  0.16933882509E+03  0.47000000000E+01 0. -1.
        -11    1    4    4    0    0 -0.80282281138E+01 -0.73609922966E+01 -0.45578713652E+03  0.45591726275E+03  0.00000000000E+00 0.  1.
         12    1    4    4    0    0 -0.27539002813E+02  0.31857329738E+02 -0.12373750553E+03  0.13070675732E+03  0.00000000000E+00 0. -1.
         -5    1    5    5    0  502 -0.29856012727E+02  0.35459641220E+02 -0.31131681494E+03  0.31478407983E+03  0.47000000000E+01 0.  1.
         11    1    6    6    0    0  0.34754242477E+02 -0.83744589716E+02 -0.57564060574E+03  0.58273760875E+03  0.00000000000E+00 0. -1.
        -12    1    6    6    0    0 -0.11055712878E+02 -0.39722797787E+02 -0.83913095308E+02  0.93496187171E+02  0.00000000000E+00 0.  1.
</event>
<event>
12    1  0.1630640E-001  0.1868246E+03  0.7818608E-02  0.1161475E+00
         21   -1    0    0  501  502  0.00000000000E+00  0.00000000000E+00  0.10495484062E+03  0.10495484062E+03  0.00000000000E+00 0.  1.
         21   -1    0    0  502  503 -0.00000000000E+00 -0.00000000000E+00 -0.33238237466E+03  0.33238237466E+03  0.00000000000E+00 0. -1.
         -6    2    1    2    0  503 -0.48873004481E+01 -0.71184273622E+02 -0.12415919134E+03  0.22431879982E+03  0.17266248186E+03 0.  0.
        -24    2    3    3    0    0 -0.62074005958E+02 -0.19743791500E+02 -0.40725373593E+02  0.11074180201E+03  0.79763344588E+02 0.  0.
          6    2    1    2  501    0  0.48873004481E+01  0.71184273622E+02 -0.10326834270E+03  0.21301841546E+03  0.17210871043E+03 0.  0.
         24    2    5    5    0    0 -0.63278347608E+02  0.33609014714E+02 -0.66615634246E+02  0.12685597182E+03  0.80753202509E+02 0.  0.
          5    1    5    5  501    0  0.68165648056E+02  0.37575258908E+02 -0.36652708449E+02  0.86162443638E+02  0.47000000000E+01 0. -1.
        -13    1    6    6    0    0 -0.41969557826E+02 -0.10001011040E+02 -0.65342863386E+02  0.78301684538E+02  0.00000000000E+00 0.  1.
         14    1    6    6    0    0 -0.21308789782E+02  0.43610025754E+02 -0.12727708596E+01  0.48554287286E+02  0.00000000000E+00 0. -1.
         -5    1    3    3    0  503  0.57186705510E+02 -0.51440482122E+02 -0.83433817747E+02  0.11357699781E+03  0.47000000000E+01 0.  1.
         13    1    4    4    0    0 -0.43980979199E+02 -0.48014383581E+02 -0.41418646235E+02  0.77170018906E+02  0.00000000000E+00 0. -1.
        -14    1    4    4    0    0 -0.18093026759E+02  0.28270592081E+02  0.69327264215E+00  0.33571783105E+02  0.00000000000E+00 0.  1.
</event>
<event>
12    1  0.1630640E-001  0.1957402E+03  0.7818608E-02  0.1153472E+00
         21   -1    0    0  503  502  0.00000000000E+00  0.00000000000E+00  0.18136612648E+03  0.18136612648E+03  0.00000000000E+00 0.  1.
         21   -1    0    0  501  503 -0.00000000000E+00 -0.00000000000E+00 -0.21082379605E+03  0.21082379605E+03  0.00000000000E+00 0.  1.
          6    2    1    2  501    0  0.91355857749E+02 -0.12721739916E+02 -0.15875078694E+02  0.19597899526E+03  0.17218598389E+03 0.  0.
         24    2    3    3    0    0  0.11845312471E+03  0.18697274814E+02 -0.39369358677E+02  0.14806774862E+03  0.77416929285E+02 0.  0.
         -6    2    1    2    0  502 -0.91355857749E+02  0.12721739916E+02 -0.13582590876E+02  0.19621092726E+03  0.17264560751E+03 0.  0.
        -24    2    5    5    0    0 -0.38427733059E+00 -0.40663322041E+02 -0.59696656194E+01  0.90353287413E+02  0.80463819261E+02 0.  0.
          5    1    3    3  501    0 -0.27097266957E+02 -0.31419014731E+02  0.23494279983E+02  0.47911246645E+02  0.47000000000E+01 0. -1.
        -13    1    4    4    0    0  0.82112255516E+02 -0.21599607185E+02 -0.77363348209E+01  0.85257354011E+02  0.00000000000E+00 0.  1.
         14    1    4    4    0    0  0.36340869189E+02  0.40296881999E+02 -0.31633023856E+02  0.62810394606E+02  0.00000000000E+00 0. -1.
         -5    1    5    5    0  502 -0.90971580418E+02  0.53385061958E+02 -0.76129252566E+01  0.10585763985E+03  0.47000000000E+01 0.  1.
         11    1    6    6    0    0  0.24909012544E+02 -0.20585274120E+02  0.28523539312E+02  0.43102258773E+02  0.00000000000E+00 0. -1.
        -12    1    6    6    0    0 -0.25293289875E+02 -0.20078047922E+02 -0.34493204931E+02  0.47251028639E+02  0.00000000000E+00 0.  1.
</event>
<event>
12    1  0.1630640E-001  0.3259276E+03  0.7818608E-02  0.1073007E+00
         21   -1    0    0  501  502  0.00000000000E+00  0.00000000000E+00  0.87612269732E+02  0.87612269732E+02  0.00000000000E+00 0. -1.
         21   -1    0    0  502  503 -0.00000000000E+00 -0.00000000000E+00 -0.12125790120E+04  0.12125790120E+04  0.00000000000E+00 0.  1.
         -6    2    1    2    0  503  0.23494702581E+03 -0.14559485631E+03 -0.58753795061E+03  0.67165447734E+03  0.17181654870E+03 0.  0.
        -24    2    3    3    0    0  0.21694165510E+03 -0.11400580244E+03 -0.37191268907E+03  0.45293455344E+03  0.82277923509E+02 0.  0.
          6    2    1    2  501    0 -0.23494702581E+03  0.14559485631E+03 -0.53742879164E+03  0.62853680437E+03  0.17271607119E+03 0.  0.
         24    2    5    5    0    0 -0.24100824688E+03  0.14444163953E+03 -0.54469081524E+03  0.61791158453E+03  0.78602034295E+02 0.  0.
          5    1    5    5  501    0  0.60612210681E+01  0.11532167739E+01  0.72620236046E+01  0.10625219838E+02  0.47000000000E+01 0. -1.
        -11    1    6    6    0    0 -0.85001149295E+01  0.24690577950E+02 -0.86245530956E+02  0.90111975914E+02  0.00000000000E+00 0.  1.
         12    1    6    6    0    0 -0.23250813195E+03  0.11975106158E+03 -0.45844528429E+03  0.52779960862E+03  0.00000000000E+00 0. -1.
         -5    1    3    3    0  503  0.18005370708E+02 -0.31589053867E+02 -0.21562526154E+03  0.21871992391E+03  0.47000000000E+01 0.  1.
         13    1    4    4    0    0  0.17139494684E+03 -0.47676203338E+02 -0.24881380684E+03  0.30587180099E+03  0.00000000000E+00 0. -1.
        -14    1    4    4    0    0  0.45546708262E+02 -0.66329599103E+02 -0.12309888223E+03  0.14706275244E+03  0.00000000000E+00 0.  1.
</event>
<event>
12    1  0.1630640E-001  0.2451413E+03  0.7818608E-02  0.1117075E+00
         21   -1    0    0  503  502  0.00000000000E+00  0.00000000000E+00  0.11785815387E+04  0.11785815387E+04  0.00000000000E+00 0. -1.
         21   -1    0    0  501  503 -0.00000000000E+00 -0.00000000000E+00 -0.65011308425E+02  0.65011308425E+02  0.00000000000E+00 0. -1.
          6    2    1    2  501    0  0.14810118102E+03  0.77879647021E+02  0.25594594861E+03  0.35162105673E+03  0.17357949096E+03 0.  0.
         24    2    3    3    0    0  0.48283918700E+02  0.62842046102E+02  0.21377138311E+03  0.24212037511E+03  0.81508356891E+02 0.  0.
         -6    2    1    2    0  502 -0.14810118102E+03 -0.77879647021E+02  0.85762428169E+03  0.89197179042E+03  0.17915096184E+03 0.  0.
        -24    2    5    5    0    0 -0.13375052698E+03 -0.12238252581E+03  0.69601135129E+03  0.72366469977E+03  0.79950675280E+02 0.  0.
          5    1    3    3  501    0  0.99817262323E+02  0.15037600919E+02  0.42174565499E+02  0.10950068161E+03  0.47000000000E+01 0. -1.
        -13    1    4    4    0    0 -0.13550324010E+02  0.43997535422E+02  0.11713395860E+03  0.12585610300E+03  0.00000000000E+00 0.  1.
         14    1    4    4    0    0  0.61834242710E+02  0.18844510680E+02  0.96637424513E+02  0.11626427212E+03  0.00000000000E+00 0. -1.
         -5    1    5    5    0  502 -0.14350654047E+02  0.44502878791E+02  0.16161293040E+03  0.16830709066E+03  0.47000000000E+01 0.  1.
         13    1    6    6    0    0 -0.49602856032E+02 -0.29608810206E+02  0.36886716360E+03  0.37336324049E+03  0.00000000000E+00 0. -1.
        -14    1    6    6    0    0 -0.84147670944E+02 -0.92773715606E+02  0.32714418768E+03  0.35030145927E+03  0.00000000000E+00 0.  1.
</event>
<event>
12    1  0.1630640E-001  0.2212848E+03  0.7818608E-02  0.1133162E+00
         21   -1    0    0  501  502  0.00000000000E+00  0.00000000000E+00  0.35053032352E+03  0.35053032352E+03  0.00000000000E+00 0.  1.
         21   -1    0    0  502  503 -0.00000000000E+00 -0.00000000000E+00 -0.17350182653E+03  0.17350182653E+03  0.00000000000E+00 0. -1.
         -6    2    1    2    0  503 -0.14807968451E+02 -0.13717609202E+03 -0.28290335237E+02  0.22308588456E+03  0.17300408281E+03 0.  0.
        -24    2    3    3    0    0 -0.68286691109E+02 -0.59297193823E+02  0.90622490987E+01  0.12138828322E+03  0.80459689081E+02 0.  0.
          6    2    1    2  501    0  0.14807968451E+02  0.13717609202E+03  0.20531883223E+03  0.30094626549E+03  0.17139508655E+03 0.  0.
         24    2    5    5    0    0 -0.20574870587E+02  0.97873866304E+02  0.21197644249E+03  0.24743903216E+03  0.79306011525E+02 0.  0.
          5    1    5    5  501    0  0.35382839039E+02  0.39302225712E+02 -0.66576102519E+01  0.53507233330E+02  0.47000000000E+01 0. -1.
        -11    1    6    6    0    0 -0.29935961948E+02  0.10278442062E+03  0.14837047377E+03  0.18296064174E+03  0.00000000000E+00 0.  1.
         12    1    6    6    0    0  0.93610913610E+01 -0.49105543138E+01  0.63605968719E+02  0.64478390425E+02  0.00000000000E+00 0. -1.
         -5    1    3    3    0  503  0.53478722657E+02 -0.77878898193E+02 -0.37352584335E+02  0.10169760134E+03  0.47000000000E+01 0.  1.
         11    1    4    4    0    0 -0.35543419397E+02  0.15559688635E+02 -0.24458983236E+01  0.38876998231E+02  0.00000000000E+00 0. -1.
        -12    1    4    4    0    0 -0.32743271711E+02 -0.74856882458E+02  0.11508147422E+02  0.82511284991E+02  0.00000000000E+00 0.  1.
</event>
<event>
12    1  0.1630640E-001  0.1959986E+03  0.7818608E-02  0.1153196E+00
         21   -1    0    0  503  502  0.00000000000E+00  0.00000000000E+00  0.20409685644E+03  0.20409685644E+03  0.00000000000E+00 0.  1.
         21   -1    0    0  501  503 -0.00000000000E+00 -0.00000000000E+00 -0.19027436681E+03  0.19027436681E+03  0.00000000000E+00 0.  1.
          6    2    1    2  501    0  0.29100601566E+02  0.89150654568E+02 -0.14354153304E+02  0.19652354126E+03  0.17210687473E+03 0.  0.
         24    2    3    3    0    0 -0.53416069843E+02  0.39812045785E+02 -0.90338338419E+01  0.10011972818E+03  0.74189448771E+02 0.  0.
         -6    2    1    2    0  502 -0.29100601566E+02 -0.89150654568E+02  0.28176642941E+02  0.19784768200E+03  0.17191596157E+03 0.  0.
        -24    2    5    5    0    0 -0.22853388439E+02 -0.12397559086E+03  0.47607566100E+02  0.15720958861E+03  0.80970055620E+02 0.  0.
          5    1    3    3  501    0  0.82516671409E+02  0.49338608784E+02 -0.53203194625E+01  0.96403813080E+02  0.47000000000E+01 0. -1.
        -11    1    4    4    0    0 -0.53952222615E+02  0.26769896239E+02 -0.35995042748E+02  0.70164897009E+02  0.00000000000E+00 0.  1.
         12    1    4    4    0    0  0.53615277213E+00  0.13042149545E+02  0.26961208906E+02  0.29954831167E+02  0.00000000000E+00 0. -1.
         -5    1    5    5    0  502 -0.62472131271E+01  0.34824936292E+02 -0.19430923159E+02  0.40638093391E+02  0.47000000000E+01 0.  1.
         13    1    6    6    0    0 -0.30771790465E+01 -0.45096418136E+02 -0.21903957658E+02  0.50228869395E+02  0.00000000000E+00 0. -1.
        -14    1    6    6    0    0 -0.19776209392E+02 -0.78879172725E+02  0.69511523758E+02  0.10698071921E+03  0.00000000000E+00 0.  1.
</event>
<event>
12    1  0.1630640E-001  0.3035226E+03  0.7818608E-02  0.1083682E+00
         21   -1    0    0  503  502  0.00000000000E+00  0.00000000000E+00  0.78164813158E+02  0.78164813158E+02  0.00000000000E+00 0.  1.
         21   -1    0    0  501  503 -0.00000000000E+00 -0.00000000000E+00 -0.15006680740E+04  0.15006680740E+04  0.00000000000E+00 0. -1.
          6    2    1    2  501    0  0.24792082428E+03 -0.45524753026E+01 -0.10817270982E+04  0.11235032244E+04  0.17504433711E+03 0.  0.
         24    2    3    3    0    0  0.62544789552E+02  0.39639793158E+02 -0.28795875753E+03  0.30716536566E+03  0.77117779547E+02 0.  0.
         -6    2    1    2    0  502 -0.24792082428E+03  0.45524753026E+01 -0.34077616257E+03  0.45532966276E+03  0.17236951201E+03 0.  0.
        -24    2    5    5    0    0 -0.58000293275E+02 -0.34473850369E+02 -0.15696489280E+03  0.18811900600E+03  0.78729298660E+02 0.  0.
          5    1    3    3  501    0  0.18537603472E+03 -0.44192268460E+02 -0.79376834070E+03  0.81633785870E+03  0.47000000000E+01 0. -1.
        -13    1    4    4    0    0  0.62301848272E+02  0.38091542970E+02 -0.12927556510E+03  0.14847443442E+03  0.00000000000E+00 0.  1.
         14    1    4    4    0    0  0.24294127936E+00  0.15482501876E+01 -0.15868319243E+03  0.15869093124E+03  0.00000000000E+00 0. -1.
         -5    1    5    5    0  502 -0.18992053100E+03  0.39026325671E+02 -0.18381126977E+03  0.26721065676E+03  0.47000000000E+01 0.  1.
         11    1    6    6    0    0 -0.38286473759E+02 -0.90414727859E+01 -0.15016186413E+03  0.15522946802E+03  0.00000000000E+00 0. -1.
        -12    1    6    6    0    0 -0.19713819516E+02 -0.25432377583E+02 -0.68030286706E+01  0.32889537980E+02  0.00000000000E+00 0.  1.
</event>
<event>
12    1  0.1630640E-001  0.2452941E+03  0.7818608E-02  0.1116341E+00
         21   -1    0    0  501  502  0.00000000000E+00  0.00000000000E+00  0.77619117225E+02  0.77619117225E+02  0.00000000000E+00 0.  1.
         21   -1    0    0  502  503 -0.00000000000E+00 -0.00000000000E+00 -0.12539250959E+04  0.12539250959E+04  0.00000000000E+00 0.  1.
         -6    2    1    2    0  503 -0.97838108416E+02 -0.14466680682E+03 -0.99985700397E+03  0.10295063005E+04  0.17224521451E+03 0.  0.
        -24    2    3    3    0    0 -0.11203385710E+03 -0.16140839722E+03 -0.77600307229E+03  0.80452969536E+03  0.80517120444E+02 0.  0.
          6    2    1    2  501    0  0.97838108416E+02  0.14466680682E+03 -0.17644897475E+03  0.30203791267E+03  0.17202290414E+03 0.  0.
         24    2    5    5    0    0  0.59898040453E+02  0.94376264408E+01 -0.48730212217E+02  0.11214175082E+03  0.80773105994E+02 0.  0.
          5    1    5    5  501    0  0.37940067963E+02  0.13522918038E+03 -0.12771876253E+03  0.18989616185E+03  0.47000000000E+01 0. -1.
        -11    1    6    6    0    0  0.21684003115E+02  0.42727436814E+02 -0.35873042377E+02  0.59855701626E+02  0.00000000000E+00 0.  1.
         12    1    6    6    0    0  0.38214037337E+02 -0.33289810373E+02 -0.12857169840E+02  0.52286049196E+02  0.00000000000E+00 0. -1.
         -5    1    3    3    0  503  0.14195748687E+02  0.16741590399E+02 -0.22385393168E+03  0.22497660514E+03  0.47000000000E+01 0.  1.
         13    1    4    4    0    0 -0.51290537555E+02 -0.15371187832E+02 -0.17051315162E+03  0.17872248749E+03  0.00000000000E+00 0. -1.
        -14    1    4    4    0    0 -0.60743319548E+02 -0.14603720938E+03 -0.60548992067E+03  0.62580720787E+03  0.00000000000E+00 0.  1.
</event>
<event>
12    1  0.1630640E-001  0.2158451E+03  0.7818608E-02  0.1137040E+00
         21   -1    0    0  501  502  0.00000000000E+00  0.00000000000E+00  0.36308716453E+04  0.36308716453E+04  0.00000000000E+00 0. -1.
         21   -1    0    0  502  503 -0.00000000000E+00 -0.00000000000E+00 -0.12880068678E+02  0.12880068678E+02  0.00000000000E+00 0.  1.
         -6    2    1    2    0  503 -0.99536614576E+02 -0.83914204040E+02  0.19276933546E+04  0.19397278908E+04  0.17202758438E+03 0.  0.
        -24    2    3    3    0    0 -0.51424350385E+02 -0.68999953257E+02  0.17807202130E+04  0.17842916686E+04  0.72985095142E+02 0.  0.
          6    2    1    2  501    0  0.99536614576E+02  0.83914204040E+02  0.16902982220E+04  0.17040238232E+04  0.17216265340E+03 0.  0.
         24    2    5    5    0    0  0.10011861437E+03  0.10831927409E+03  0.10591067738E+04  0.10723429857E+04  0.80346241180E+02 0.  0.
          5    1    5    5  501    0 -0.58199979114E+00 -0.24405070047E+02  0.63119144821E+03  0.63168083749E+03  0.47000000000E+01 0. -1.
        -11    1    6    6    0    0  0.77571558136E+02  0.24787094247E+02  0.50827017612E+03  0.51475267712E+03  0.00000000000E+00 0.  1.
         12    1    6    6    0    0  0.22547056231E+02  0.83532179840E+02  0.55083659770E+03  0.55759030854E+03  0.00000000000E+00 0. -1.
         -5    1    3    3    0  503 -0.48112264191E+02 -0.14914250783E+02  0.14697314158E+03  0.15543622225E+03  0.47000000000E+01 0.  1.
         11    1    4    4    0    0  0.10642613468E+02 -0.36358641140E+02  0.39945849504E+03  0.40125092556E+03  0.00000000000E+00 0. -1.
        -12    1    4    4    0    0 -0.62066963853E+02 -0.32641312116E+02  0.13812617180E+04  0.13830407430E+04  0.00000000000E+00 0.  1.
</event>
<event>
12    1  0.1630640E-001  0.1762358E+03  0.7818608E-02  0.1171765E+00
         21   -1    0    0  501  502  0.00000000000E+00  0.00000000000E+00  0.11101300619E+04  0.11101300619E+04  0.00000000000E+00 0. -1.
         21   -1    0    0  502  503 -0.00000000000E+00 -0.00000000000E+00 -0.31925240742E+02  0.31925240742E+02  0.00000000000E+00 0. -1.
         -6    2    1    2    0  503 -0.10842951032E+02  0.45786324029E+02  0.33257620542E+03  0.37588228843E+03  0.16872049456E+03 0.  0.
        -24    2    3    3    0    0 -0.25526855221E+02  0.49355051337E+02  0.84603466398E+02  0.12740508192E+03  0.77374200750E+02 0.  0.
          6    2    1    2  501    0  0.10842951032E+02 -0.45786324029E+02  0.74562861571E+03  0.76617301419E+03  0.16983844691E+03 0.  0.
         24    2    5    5    0    0 -0.77984518391E+00  0.28310800003E+02  0.28647422693E+03  0.30090930841E+03  0.87617461930E+02 0.  0.
          5    1    5    5  501    0  0.11622796216E+02 -0.74097124033E+02  0.45915438878E+03  0.46526370578E+03  0.47000000000E+01 0. -1.
        -11    1    6    6    0    0  0.21247782873E+02  0.38899109239E+02  0.68632482590E+02  0.81700836245E+02  0.00000000000E+00 0.  1.
         12    1    6    6    0    0 -0.22027628057E+02 -0.10588309236E+02  0.21784174434E+03  0.21920847217E+03  0.00000000000E+00 0. -1.
         -5    1    3    3    0  503  0.14683904188E+02 -0.35687273076E+01  0.24797273902E+03  0.24847720651E+03  0.47000000000E+01 0.  1.
         13    1    4    4    0    0 -0.31776168881E+02  0.60097959021E+02  0.90871007750E+02  0.11348581249E+03  0.00000000000E+00 0. -1.
        -14    1    4    4    0    0  0.62493136600E+01 -0.10742907684E+02 -0.62675413521E+01  0.13919269425E+02  0.00000000000E+00 0.  1.
</event>
<event>
12    1  0.1630640E-001  0.2476321E+03  0.7818608E-02  0.1114996E+00
         21   -1    0    0  503  502  0.00000000000E+00  0.00000000000E+00  0.92038682341E+02  0.92038682341E+02  0.00000000000E+00 0.  1.
         21   -1    0    0  501  503 -0.00000000000E+00 -0.00000000000E+00 -0.94225594198E+03  0.94225594198E+03  0.00000000000E+00 0. -1.
          6    2    1    2  501    0  0.14880802807E+03 -0.96795874338E+02 -0.70586647164E+03  0.74766101297E+03  0.17098609306E+03 0.  0.
         24    2    3    3    0    0  0.10118697534E+03  0.91072355474E+01 -0.33093070251E+03  0.35512801522E+03  0.79240340827E+02 0.  0.
         -6    2    1    2    0  502 -0.14880802807E+03  0.96795874338E+02 -0.14435078799E+03  0.28663361134E+03  0.17265111252E+03 0.  0.
        -24    2    5    5    0    0 -0.12316706690E+03  0.40645092113E+02 -0.16018183887E+03  0.22273461757E+03  0.84441331573E+02 0.  0.
          5    1    3    3  501    0  0.47621052726E+02 -0.10590310988E+03 -0.37493576913E+03  0.39253299775E+03  0.47000000000E+01 0. -1.
        -13    1    4    4    0    0  0.23616808910E+01  0.24219692356E+02 -0.10954890600E+03  0.11221913313E+03  0.00000000000E+00 0.  1.
         14    1    4    4    0    0  0.98825294450E+02 -0.15112456809E+02 -0.22138179651E+03  0.24290888209E+03  0.00000000000E+00 0. -1.
         -5    1    5    5    0  502 -0.25640961164E+02  0.56150782225E+02  0.15831050876E+02  0.63898993777E+02  0.47000000000E+01 0.  1.
         11    1    6    6    0    0 -0.26410185389E+02 -0.25625192712E+02 -0.47610784945E+02  0.60174207405E+02  0.00000000000E+00 0. -1.
        -12    1    6    6    0    0 -0.96756881514E+02  0.66270284824E+02 -0.11257105392E+03  0.16256041016E+03  0.00000000000E+00 0.  1.
</event>
<event>
12    1  0.1630640E-001  0.2773811E+03  0.7818608E-02  0.1097579E+00
         21   -1    0    0  501  502  0.00000000000E+00  0.00000000000E+00  0.96208031484E+03  0.96208031484E+03  0.00000000000E+00 0.  1.
         21   -1    0    0  502  503 -0.00000000000E+00 -0.00000000000E+00 -0.94018544512E+02  0.94018544512E+02  0.00000000000E+00 0.  1.
         -6    2    1    2    0  503 -0.15484639717E+03 -0.15442167997E+03  0.64692955585E+03  0.70388786088E+03  0.17063648058E+03 0.  0.
        -24    2    3    3    0    0 -0.65817749074E+02 -0.75566229844E+01  0.22891911350E+03  0.25194730610E+03  0.81758215982E+02 0.  0.
          6    2    1    2  501    0  0.15484639717E+03  0.15442167997E+03  0.22113221448E+03  0.35221099847E+03  0.16531687512E+03 0.  0.
         24    2    5    5    0    0  0.22617433312E+02  0.20243981182E+02  0.56126551445E+02  0.10173722226E+03  0.79239545382E+02 0.  0.
          5    1    5    5  501    0  0.13222896385E+03  0.13417769879E+03  0.16500566303E+03  0.25047377621E+03  0.47000000000E+01 0. -1.
        -11    1    6    6    0    0  0.39152805008E+02  0.15018726990E+02  0.68581867061E+02  0.80386421676E+02  0.00000000000E+00 0.  1.
         12    1    6    6    0    0 -0.16535371696E+02  0.52252541929E+01 -0.12455315616E+02  0.21350800584E+02  0.00000000000E+00 0. -1.
         -5    1    3    3    0  503 -0.89028648092E+02 -0.14686505699E+03  0.41801044235E+03  0.45194055478E+03  0.47000000000E+01 0.  1.
         11    1    4    4    0    0  0.26807508947E+01 -0.25921416538E+02  0.25255496112E+02  0.36289755366E+02  0.00000000000E+00 0. -1.
        -12    1    4    4    0    0 -0.68498499969E+02  0.18364793553E+02  0.20366361739E+03  0.21565755073E+03  0.00000000000E+00 0.  1.
</event>
<event>
12    1  0.1630640E-001  0.1867165E+03  0.7818608E-02  0.1161556E+00
         21   -1    0    0  501  502  0.00000000000E+00  0.00000000000E+00  0.12764632582E+03  0.12764632582E+03  0.00000000000E+00 0.  1.
         21   -1    0    0  502  503 -0.00000000000E+00 -0.00000000000E+00 -0.58534222050E+03  0.58534222050E+03  0.00000000000E+00 0.  1.
         -6    2    1    2    0  503  0.71743738647E+02 -0.60958179692E+01 -0.48934903502E+03  0.52360809766E+03  0.17180989154E+03 0.  0.
        -24    2    3    3    0    0  0.11497466438E+03 -0.12376795447E+01 -0.32598632933E+03  0.35448690426E+03  0.78569542965E+02 0.  0.
          6    2    1    2  501    0 -0.71743738647E+02  0.60958179692E+01  0.31653140333E+02  0.18938044867E+03  0.17227509981E+03 0.  0.
         24    2    5    5    0    0 -0.42904134227E+02 -0.45111044361E+02 -0.29361135552E+02  0.10453531095E+03  0.78675179677E+02 0.  0.
          5    1    5    5  501    0 -0.28839604420E+02  0.51206862330E+02  0.61014275885E+02  0.84845137719E+02  0.47000000000E+01 0. -1.
        -13    1    6    6    0    0 -0.94479762055E+01 -0.49248519047E+02  0.11615083949E+02  0.51474178555E+02  0.00000000000E+00 0.  1.
         14    1    6    6    0    0 -0.33456158022E+02  0.41374746860E+01 -0.40976219502E+02  0.53061132395E+02  0.00000000000E+00 0. -1.
         -5    1    3    3    0  503 -0.43230925728E+02 -0.48581384245E+01 -0.16336270568E+03  0.16912119340E+03  0.47000000000E+01 0.  1.
         11    1    4    4    0    0  0.90876035053E+02  0.26851227520E+02 -0.27913639086E+03  0.29478223635E+03  0.00000000000E+00 0. -1.
        -12    1    4    4    0    0  0.24098629322E+02 -0.28088907065E+02 -0.46849938476E+02  0.59704667912E+02  0.00000000000E+00 0.  1.
</event>
<event>
12    1  0.1630640E-001  0.1737151E+03  0.7818608E-02  0.1174805E+00
         21   -1    0    0  501  502  0.00000000000E+00  0.00000000000E+00  0.46826854897E+02  0.46826854897E+02  0.00000000000E+00 0. -1.
         21   -1    0    0  502  503 -0.00000000000E+00 -0.00000000000E+00 -0.63531419568E+03  0.63531419568E+03  0.00000000000E+00 0. -1.
         -6    2    1    2    0  503  0.69168656783E+01 -0.27728741521E+02 -0.27209328795E+03  0.32119489474E+03  0.16826965538E+03 0.  0.
        -24    2    3    3    0    0 -0.26188738179E+02 -0.42048563807E+02 -0.75130841681E+02  0.12090177564E+03  0.80738245314E+02 0.  0.
          6    2    1    2  501    0 -0.69168656783E+01  0.27728741521E+02 -0.31639405284E+03  0.36094615584E+03  0.17134819698E+03 0.  0.
         24    2    5    5    0    0 -0.61220098383E+02  0.46199450227E+02 -0.15919030849E+03  0.19353912075E+03  0.78952816893E+02 0.  0.
          5    1    5    5  501    0  0.54303232704E+02 -0.18470708706E+02 -0.15720374434E+03  0.16740703509E+03  0.47000000000E+01 0. -1.
        -11    1    6    6    0    0 -0.12143342940E+02  0.14654791419E+02  0.46752460525E+01  0.19598000280E+02  0.00000000000E+00 0.  1.
         12    1    6    6    0    0 -0.49076755442E+02  0.31544658808E+02 -0.16386555454E+03  0.17394112047E+03  0.00000000000E+00 0. -1.
         -5    1    3    3    0  503  0.33105603857E+02  0.14319822286E+02 -0.19696244627E+03  0.20029311910E+03  0.47000000000E+01 0.  1.
         11    1    4    4    0    0 -0.35044231079E+02 -0.62848336281E+02 -0.54116471365E+02  0.90036681293E+02  0.00000000000E+00 0. -1.
        -12    1    4    4    0    0  0.88554929005E+01  0.20799772474E+02 -0.21014370316E+02  0.30865094351E+02  0.00000000000E+00 0.  1.
</event>
<event>
12    1  0.1630640E-001  0.2736183E+03  0.7818608E-02  0.1099323E+00
         21   -1    0    0  501  502  0.00000000000E+00  0.00000000000E+00  0.10155888938E+03  0.10155888938E+03  0.00000000000E+00 0.  1.
         21   -1    0    0  502  503 -0.00000000000E+00 -0.00000000000E+00 -0.89658405774E+03  0.89658405774E+03  0.00000000000E+00 0. -1.
         -6    2    1    2    0  503 -0.15686197316E+03 -0.14354121265E+03 -0.18545709167E+03  0.32998111301E+03  0.17112405951E+03 0.  0.
        -24    2    3    3    0    0 -0.11646485252E+03 -0.45387204472E+02 -0.16365935645E+03  0.22152205190E+03  0.81630719222E+02 0.  0.
          6    2    1    2  501    0  0.15686197316E+03  0.14354121265E+03 -0.60956807669E+03  0.66816183411E+03  0.17221276980E+03 0.  0.
         24    2    5    5    0    0  0.10296605740E+03  0.12269976669E+03 -0.27052951148E+03  0.32420199008E+03  0.79142100459E+02 0.  0.
          5    1    5    5  501    0  0.53895915759E+02  0.20841445961E+02 -0.33903856521E+03  0.34395984403E+03  0.47000000000E+01 0. -1.
        -13    1    6    6    0    0  0.22863911741E+02  0.41624341596E+02 -0.15419342642E+03  0.16134112006E+03  0.00000000000E+00 0.  1.
         14    1    6    6    0    0  0.80102145656E+02  0.81075425093E+02 -0.11633608507E+03  0.16286087001E+03  0.00000000000E+00 0. -1.
         -5    1    3    3    0  503 -0.40397120633E+02 -0.98154008179E+02 -0.21797735217E+02  0.10845906111E+03  0.47000000000E+01 0.  1.
         11    1    4    4    0    0 -0.96726485138E+02 -0.61824966335E+02 -0.97721141823E+02  0.15075729153E+03  0.00000000000E+00 0. -1.
        -12    1    4    4    0    0 -0.19738367384E+02  0.16437761863E+02 -0.65938214628E+02  0.70764760371E+02  0.00000000000E+00 0.  1.
</event>
<event>
12    1  0.1630640E-001  0.2156297E+03  0.7818608E-02  0.1137257E+00
         21   -1    0    0  503  502  0.00000000000E+00  0.00000000000E+00  0.39299172270E+02  0.39299172270E+02  0.00000000000E+00 0. -1.
         21   -1    0    0  501  503 -0.00000000000E+00 -0.00000000000E+00 -0.13499490741E+04  0.13499490741E+04  0.00000000000E+00 0. -1.
          6    2    1    2  501    0 -0.45131350911E+02 -0.12119980623E+03 -0.41012357432E+03  0.46335464848E+03  0.17253971192E+03 0.  0.
         24    2    3    3    0    0 -0.15034861521E+02 -0.34544147628E+01 -0.89517087485E+02  0.12045468452E+03  0.79107787403E+02 0.  0.
         -6    2    1    2    0  502  0.45131350911E+02  0.12119980623E+03 -0.90052632754E+03  0.92589359792E+03  0.17206119903E+03 0.  0.
        -24    2    5    5    0    0  0.15745365405E+02  0.14961416701E+03 -0.78985930622E+03  0.80782500917E+03  0.77917945998E+02 0.  0.
          5    1    3    3  501    0 -0.30096489390E+02 -0.11774539147E+03 -0.32060648683E+03  0.34289996396E+03  0.47000000000E+01 0. -1.
        -11    1    4    4    0    0 -0.17880752090E+02  0.28000583820E+02 -0.81290459478E+02  0.87817383198E+02  0.00000000000E+00 0.  1.
         12    1    4    4    0    0  0.28458905684E+01 -0.31454998583E+02 -0.82266280072E+01  0.32637301319E+02  0.00000000000E+00 0. -1.
         -5    1    5    5    0  502  0.29385985506E+02 -0.28414360780E+02 -0.11066702132E+03  0.11806858875E+03  0.47000000000E+01 0.  1.
         13    1    6    6    0    0 -0.21131807936E+02  0.79961258235E+02 -0.28169885596E+03  0.29358917142E+03  0.00000000000E+00 0. -1.
        -14    1    6    6    0    0  0.36877173341E+02  0.69652908777E+02 -0.50816045026E+03  0.51423583775E+03  0.00000000000E+00 0.  1.
</event>
<event>
12    1  0.1630640E-001  0.2063927E+03  0.7818608E-02  0.1144507E+00
         21   -1    0    0  503  502  0.00000000000E+00  0.00000000000E+00  0.14508728437E+03  0.14508728437E+03  0.00000000000E+00 0. -1.
         21   -1    0    0  501  503 -0.00000000000E+00 -0.00000000000E+00 -0.49411771187E+03  0.49411771187E+03  0.00000000000E+00 0.  1.
          6    2    1    2  501    0 -0.21968650038E+01  0.11261407137E+03 -0.37835947269E+03  0.43099168984E+03  0.17294852081E+03 0.  0.
         24    2    3    3    0    0 -0.46029543391E+02  0.36915525095E+02 -0.29003510204E+03  0.30659370733E+03  0.79986662007E+02 0.  0.
         -6    2    1    2    0  502  0.21968650038E+01 -0.11261407137E+03  0.29329045196E+02  0.20821330640E+03  0.17264365840E+03 0.  0.
        -24    2    5    5    0    0  0.51809590950E+01 -0.44742715557E+02  0.79979021320E+02  0.12334319483E+03  0.82390211352E+02 0.  0.
          5    1    3    3  501    0  0.43832678387E+02  0.75698546271E+02 -0.88324370648E+02  0.12439798251E+03  0.47000000000E+01 0. -1.
        -11    1    4    4    0    0 -0.12701446479E+02  0.53476488222E+02 -0.22544998345E+03  0.23205334855E+03  0.00000000000E+00 0.  1.
         12    1    4    4    0    0 -0.33328096911E+02 -0.16560963127E+02 -0.64585118594E+02  0.74540358781E+02  0.00000000000E+00 0. -1.
         -5    1    5    5    0  502 -0.29840940913E+01 -0.67871355809E+02 -0.50649976124E+02  0.84870111572E+02  0.47000000000E+01 0.  1.
         13    1    6    6    0    0 -0.21902666892E+02 -0.58806145527E+02  0.46935497061E+02  0.78363451003E+02  0.00000000000E+00 0. -1.
        -14    1    6    6    0    0  0.27083625987E+02  0.14063429970E+02  0.33043524259E+02  0.44979743825E+02  0.00000000000E+00 0.  1.
</event>
<event>
12    1  0.1630640E-001  0.2426646E+03  0.7818608E-02  0.1118650E+00
         21   -1    0    0  503  502  0.00000000000E+00  0.00000000000E+00  0.33566743968E+03  0.33566743968E+03  0.00000000000E+00 0.  1.
         21   -1    0    0  501  503 -0.00000000000E+00 -0.00000000000E+00 -0.17567405044E+03  0.17567405044E+03  0.00000000000E+00 0. -1.
          6    2    1    2  501    0  0.11670479059E+03 -0.11721253672E+03  0.11245668664E+03  0.26406460969E+03  0.17240888843E+03 0.  0.
         24    2    3    3    0    0  0.12947601676E+03 -0.39223827834E+02  0.91576155136E+02  0.18219013548E+03  0.80650515744E+02 0.  0.
         -6    2    1    2    0  502 -0.11670479059E+03  0.11721253672E+03  0.47536702601E+02  0.24727688044E+03  0.17755937203E+03 0.  0.
        -24    2    5    5    0    0 -0.96319696134E+02  0.62694985401E+02 -0.38666377207E+02  0.14315783105E+03  0.76098165598E+02 0.  0.
          5    1    3    3  501    0 -0.12771226169E+02 -0.77988708881E+02  0.20880531502E+02  0.81874474206E+02  0.47000000000E+01 0. -1.
        -11    1    4    4    0    0  0.79193440340E+02  0.13941008674E+02  0.68001160214E+02  0.10530959361E+03  0.00000000000E+00 0.  1.
         12    1    4    4    0    0  0.50282576422E+02 -0.53164836508E+02  0.23574994923E+02  0.76880541870E+02  0.00000000000E+00 0. -1.
         -5    1    5    5    0  502 -0.20385094460E+02  0.54517551315E+02  0.86203079808E+02  0.10411904939E+03  0.47000000000E+01 0.  1.
         11    1    6    6    0    0 -0.42760456281E+02  0.58312444496E+02  0.69843213623E+01  0.72646944529E+02  0.00000000000E+00 0. -1.
        -12    1    6    6    0    0 -0.53559239852E+02  0.43825409047E+01 -0.45650698569E+02  0.70510886523E+02  0.00000000000E+00 0.  1.
</event>
<event>
12    1  0.1630640E-001  0.1758601E+03  0.7818608E-02  0.1171966E+00
         21   -1    0    0  503  502  0.00000000000E+00  0.00000000000E+00  0.65756230375E+03  0.65756230375E+03  0.00000000000E+00 0.  1.
         21   -1    0    0  501  503 -0.00000000000E+00 -0.00000000000E+00 -0.98726102384E+02  0.98726102384E+02  0.00000000000E+00 0.  1.
          6    2    1    2  501    0  0.15882367492E+02  0.32793921443E+02  0.56652041222E+01  0.17595134068E+03  0.17204385739E+03 0.  0.
         24    2    3    3    0    0  0.52960412128E+02 -0.31808720285E+02 -0.32342830050E+01  0.10078769532E+03  0.79568203461E+02 0.  0.
         -6    2    1    2    0  502 -0.15882367492E+02 -0.32793921443E+02  0.55317099724E+03  0.58033706546E+03  0.17165449738E+03 0.  0.
        -24    2    5    5    0    0 -0.49283408569E+02 -0.40236170997E+02  0.21802123033E+03  0.24341203984E+03  0.87569175222E+02 0.  0.
          5    1    3    3  501    0 -0.37078044636E+02  0.64602641728E+02  0.88994871271E+01  0.75163645357E+02  0.47000000000E+01 0. -1.
        -11    1    4    4    0    0  0.31062840076E+02  0.23740643167E+02 -0.10901889010E+02  0.40587798112E+02  0.00000000000E+00 0.  1.
         12    1    4    4    0    0  0.21897572052E+02 -0.55549363453E+02  0.76676060055E+01  0.60199897206E+02  0.00000000000E+00 0. -1.
         -5    1    5    5    0  502  0.33401041078E+02  0.74422495541E+01  0.33514976691E+03  0.33692502562E+03  0.47000000000E+01 0.  1.
         11    1    6    6    0    0  0.11855930403E+02 -0.28615906390E+02  0.22662049996E+02  0.38379704197E+02  0.00000000000E+00 0. -1.
        -12    1    6    6    0    0 -0.61139338973E+02 -0.11620264607E+02  0.19535918033E+03  0.20503233565E+03  0.00000000000E+00 0.  1.
</event>
<event>
12    1  0.1630640E-001  0.1925516E+03  0.7818608E-02  0.1156551E+00
         21   -1    0    0  503  502  0.00000000000E+00  0.00000000000E+00  0.20620251304E+04  0.20620251304E+04  0.00000000000E+00 0. -1.
         21   -1    0    0  501  503 -0.00000000000E+00 -0.00000000000E+00 -0.19228244881E+02  0.19228244881E+02  0.00000000000E+00 0. -1.
          6    2    1    2  501    0 -0.49791077732E+02 -0.71262467576E+02  0.74441454784E+03  0.76891425481E+03  0.17180984112E+03 0.  0.
         24    2    3    3    0    0  0.55262608998E+01  0.23512554904E+02  0.29224116580E+03  0.30359160302E+03  0.78610321458E+02 0.  0.
         -6    2    1    2    0  502  0.49791077732E+02  0.71262467576E+02  0.12983823377E+04  0.13123391205E+04  0.16994052378E+03 0.  0.
        -24    2    5    5    0    0 -0.86190130513E+01  0.97012056809E+02  0.91284949531E+03  0.92152913775E+03  0.80225457824E+02 0.  0.
          5    1    3    3  501    0 -0.55317338632E+02 -0.94775022480E+02  0.45217338204E+03  0.46532265179E+03  0.47000000000E+01 0. -1.
        -11    1    4    4    0    0  0.13946180728E+01  0.14274735438E+02  0.29308599336E+03  0.29343672663E+03  0.00000000000E+00 0.  1.
         12    1    4    4    0    0  0.41316428270E+01  0.92378194663E+01 -0.84482755984E+00  0.10154876393E+02  0.00000000000E+00 0. -1.
         -5    1    5    5    0  502  0.58410090784E+02 -0.25749589233E+02  0.38553284240E+03  0.39080998276E+03  0.47000000000E+01 0.  1.
         11    1    6    6    0    0  0.17846897680E+01  0.10943476606E+03  0.82068027192E+03  0.82794641243E+03  0.00000000000E+00 0. -1.
        -12    1    6    6    0    0 -0.10403702819E+02 -0.12422709256E+02  0.92169223388E+02  0.93582725316E+02  0.00000000000E+00 0.  1.
</event>
<event>
12    1  0.1630640E-001  0.2529029E+03  0.7818608E-02  0.1112015E+00
         21   -1    0    0  501  502  0.00000000000E+00  0.00000000000E+00  0.12884251895E+03  0.12884251895E+03  0.00000000000E+00 0.  1.
         21   -1    0    0  502  503 -0.00000000000E+00 -0.00000000000E+00 -0.53643244988E+03  0.53643244988E+03  0.00000000000E+00 0.  1.
         -6    2    1    2    0  503  0.17840720944E+03  0.28862732352E+02 -0.30312686193E+03  0.39477308782E+03  0.17691157888E+03 0.  0.
        -24    2    3    3    0    0  0.10995993236E+03 -0.35075965125E+02 -0.10790510868E+03  0.17819328793E+03  0.82388259665E+02 0.  0.
          6    2    1    2  501    0 -0.17840720944E+03 -0.28862732352E+02 -0.10446306900E+03  0.27050188102E+03  0.17203646460E+03 0.  0.
         24    2    5    5    0    0 -0.43058484187E+02 -0.29206805180E+02  0.61869495010E+01  0.95616454503E+02  0.79982232391E+02 0.  0.
          5    1    5    5  501    0 -0.13534872525E+03  0.34407282836E+00 -0.11065001850E+03  0.17488542651E+03  0.47000000000E+01 0. -1.
        -13    1    6    6    0    0 -0.53982157339E+02  0.44492671133E+01 -0.12517144958E+02  0.55592699221E+02  0.00000000000E+00 0.  1.
         14    1    6    6    0    0  0.10923673152E+02 -0.33656072294E+02  0.18704094459E+02  0.40023755282E+02  0.00000000000E+00 0. -1.
         -5    1    3    3    0  503  0.68447277074E+02  0.63938697477E+02 -0.19522175325E+03  0.21657979988E+03  0.47000000000E+01 0.  1.
         13    1    4    4    0    0 -0.13173955583E+02 -0.76961726916E+01 -0.76722219640E+01  0.17077680453E+02  0.00000000000E+00 0. -1.
        -14    1    4    4    0    0  0.12313388794E+03 -0.27379792433E+02 -0.10023288672E+03  0.16111560748E+03  0.00000000000E+00 0.  1.
</event>
<event>
12    1  0.1630640E-001  0.2405724E+03  0.7818608E-02  0.1119781E+00
         21   -1    0    0  501  502  0.00000000000E+00  0.00000000000E+00  0.10437289532E+04  0.10437289532E+04  0.00000000000E+00 0.  1.
         21   -1    0    0  502  503 -0.00000000000E+00 -0.00000000000E+00 -0.31924731554E+03  0.31924731554E+03  0.00000000000E+00 0. -1.
         -6    2    1    2    0  503 -0.71218035667E+02 -0.15056440246E+03 -0.25812660235E+03  0.35134688554E+03  0.17050995057E+03 0.  0.
        -24    2    3    3    0    0  0.11936624486E+02 -0.68823355045E+02 -0.18382230597E+03  0.21300125027E+03  0.81852032587E+02 0.  0.
          6    2    1    2  501    0  0.71218035667E+02  0.15056440246E+03  0.98260824001E+03  0.10116293832E+04  0.17358976850E+03 0.  0.
         24    2    5    5    0    0  0.11266794612E+03  0.10753338051E+03  0.63016681928E+03  0.65412860142E+03  0.80724922231E+02 0.  0.
          5    1    5    5  501    0 -0.41449910453E+02  0.43031021956E+02  0.35244142073E+03  0.35750078178E+03  0.47000000000E+01 0. -1.
        -11    1    6    6    0    0  0.91790809379E+02  0.10461270818E+03  0.60723500392E+03  0.62297971186E+03  0.00000000000E+00 0.  1.
         12    1    6    6    0    0  0.20877136741E+02  0.29206723276E+01  0.22931815358E+02  0.31148889563E+02  0.00000000000E+00 0. -1.
         -5    1    3    3    0  503 -0.83154660153E+02 -0.81741047416E+02 -0.74304296378E+02  0.13834563527E+03  0.47000000000E+01 0.  1.
         13    1    4    4    0    0 -0.31724050193E+01  0.18349507222E+02 -0.40417012440E+02  0.44500600709E+02  0.00000000000E+00 0. -1.
        -14    1    4    4    0    0  0.15109029505E+02 -0.87172862267E+02 -0.14340529353E+03  0.16850064956E+03  0.00000000000E+00 0.  1.
</event>
<event>
12    1  0.1630640E-001  0.2063447E+03  0.7818608E-02  0.1144797E+00
         21   -1    0    0  503  502  0.00000000000E+00  0.00000000000E+00  0.16605150337E+03  0.16605150337E+03  0.00000000000E+00 0.  1.
         21   -1    0    0  501  503 -0.00000000000E+00 -0.00000000000E+00 -0.34518877225E+03  0.34518877225E+03  0.00000000000E+00 0.  1.
          6    2    1    2  501    0 -0.37763913046E+00  0.11206995041E+03 -0.22077988979E+03  0.30219515803E+03  0.17325800819E+03 0.  0.
         24    2    3    3    0    0 -0.22901281952E+02  0.12967722510E+03 -0.22414268330E+03  0.27302789919E+03  0.83448426198E+02 0.  0.
         -6    2    1    2    0  502  0.37763913046E+00 -0.11206995041E+03  0.41642620913E+02  0.20904511759E+03  0.17148159352E+03 0.  0.
        -24    2    5    5    0    0  0.49212827483E+02 -0.11954615131E+03  0.18462656697E+02  0.15427131051E+03  0.82131497444E+02 0.  0.
          5    1    3    3  501    0  0.22523642821E+02 -0.17607274690E+02  0.33627935067E+01  0.29167258838E+02  0.47000000000E+01 0. -1.
        -13    1    4    4    0    0 -0.21408996983E+01  0.11191379015E+03 -0.21794838012E+03  0.24501178803E+03  0.00000000000E+00 0.  1.
         14    1    4    4    0    0 -0.20760382253E+02  0.17763434949E+02 -0.61943031772E+01  0.28016111157E+02  0.00000000000E+00 0. -1.
         -5    1    5    5    0  502 -0.48835188353E+02  0.74762009007E+01  0.23179964217E+02  0.54773807084E+02  0.47000000000E+01 0.  1.
         13    1    6    6    0    0 -0.50787660240E+01 -0.51269160859E+02 -0.24482840935E+02  0.57041478065E+02  0.00000000000E+00 0. -1.
        -14    1    6    6    0    0  0.54291593507E+02 -0.68276990448E+02  0.42945497632E+02  0.97229832444E+02  0.00000000000E+00 0.  1.
</event>
<event>
12    1  0.1630640E-001  0.1840730E+03  0.7818608E-02  0.1164030E+00
         21   -1    0    0  501  502  0.00000000000E+00  0.00000000000E+00  0.60649928498E+02  0.60649928498E+02  0.00000000000E+00 0.  1.
         21   -1    0    0  502  503 -0.00000000000E+00 -0.00000000000E+00 -0.56039033504E+03  0.56039033504E+03  0.00000000000E+00 0.  1.
         -6    2    1    2    0  503  0.25583014206E+01  0.65053954401E+02 -0.27288142243E+03  0.32889667516E+03  0.17166883915E+03 0.  0.
        -24    2    3    3    0    0 -0.38804284610E+02  0.20848656568E+02 -0.64351064979E+02  0.11170557991E+03  0.79978984951E+02 0.  0.
          6    2    1    2  501    0 -0.25583014206E+01 -0.65053954401E+02 -0.22685898411E+03  0.29214358838E+03  0.17217524696E+03 0.  0.
         24    2    5    5    0    0  0.39649635501E+02 -0.46972019760E+02 -0.47614953822E+02  0.10705177685E+03  0.73582843539E+02 0.  0.
          5    1    5    5  501    0 -0.42207936922E+02 -0.18081934641E+02 -0.17924403029E+03  0.18509181153E+03  0.47000000000E+01 0. -1.
        -11    1    6    6    0    0 -0.58353506143E+01 -0.15688958300E+02 -0.49051299231E+02  0.51828801699E+02  0.00000000000E+00 0.  1.
         12    1    6    6    0    0  0.45484986116E+02 -0.31283061460E+02  0.14363454088E+01  0.55222975150E+02  0.00000000000E+00 0. -1.
         -5    1    3    3    0  503  0.41362586031E+02  0.44205297834E+02 -0.20853035745E+03  0.21719109525E+03  0.47000000000E+01 0.  1.
         13    1    4    4    0    0 -0.49092561942E+02  0.20874000259E+02 -0.78071243531E+02  0.94556451876E+02  0.00000000000E+00 0. -1.
        -14    1    4    4    0    0  0.10288277332E+02 -0.25343691410E-01  0.13720178552E+02  0.17149128032E+02  0.00000000000E+00 0.  1.
</event>
<event>
12    1  0.1630640E-001  0.1837870E+03  0.7818608E-02  0.1165909E+00
         21   -1    0    0  503  502  0.00000000000E+00  0.00000000000E+00  0.33885481409E+03  0.33885481409E+03  0.00000000000E+00 0. -1.
         21   -1    0    0  501  503 -0.00000000000E+00 -0.00000000000E+00 -0.12145251330E+03  0.12145251330E+03  0.00000000000E+00 0. -1.
          6    2    1    2  501    0  0.43989012511E+01  0.42998670865E+02  0.13164437231E+01  0.17663362045E+03  0.17125847956E+03 0.  0.
         24    2    3    3    0    0  0.26290122603E+02  0.85259211617E+02  0.25562412006E+02  0.12301332714E+03  0.80737463635E+02 0.  0.
         -6    2    1    2    0  502 -0.43989012511E+01 -0.42998670865E+02  0.21608585707E+03  0.28367370694E+03  0.17863213137E+03 0.  0.
        -24    2    5    5    0    0 -0.43989234598E+01  0.21295377215E+01  0.22366360865E+03  0.23767297294E+03  0.80244294318E+02 0.  0.
          5    1    3    3  501    0 -0.21891221352E+02 -0.42260540752E+02 -0.24245968283E+02  0.53620293313E+02  0.47000000000E+01 0. -1.
        -11    1    4    4    0    0  0.92610858994E+01 -0.11807788907E+02  0.19047635621E+02  0.24248794066E+02  0.00000000000E+00 0.  1.
         12    1    4    4    0    0  0.17029036704E+02  0.97067000524E+02  0.65147763851E+01  0.98764533073E+02  0.00000000000E+00 0. -1.
         -5    1    5    5    0  502  0.22208627257E-04 -0.45128208586E+02 -0.75777515851E+01  0.46000734008E+02  0.47000000000E+01 0.  1.
         11    1    6    6    0    0  0.30124116452E+02 -0.18726369641E+02  0.65949513923E+02  0.74883093544E+02  0.00000000000E+00 0. -1.
        -12    1    6    6    0    0 -0.34523039911E+02  0.20855907362E+02  0.15771409473E+03  0.16278987939E+03  0.00000000000E+00 0.  1.
</event>
<event>
12    1  0.1630640E-001  0.1845651E+03  0.7818608E-02  0.1163481E+00
         21   -1    0    0  503  502  0.00000000000E+00  0.00000000000E+00  0.14639697765E+03  0.14639697765E+03  0.00000000000E+00 0.  1.
         21   -1    0    0  501  503 -0.00000000000E+00 -0.00000000000E+00 -0.24018416457E+03  0.24018416457E+03  0.00000000000E+00 0.  1.
          6    2    1    2  501    0 -0.66932854952E+02 -0.11933536078E+02 -0.81337912739E+02  0.20159664473E+03  0.17147283973E+03 0.  0.
         24    2    3    3    0    0 -0.74076697459E+02  0.35459820778E+02 -0.85092806694E+01  0.11428533728E+03  0.79018823479E+02 0.  0.
         -6    2    1    2    0  502  0.66932854952E+02  0.11933536078E+02 -0.12449274175E+02  0.18498449749E+03  0.17158631509E+03 0.  0.
        -24    2    5    5    0    0 -0.10387961667E+02  0.52559900164E+02 -0.18768208925E+02  0.97285985084E+02  0.79005470536E+02 0.  0.
          5    1    3    3  501    0  0.71438425073E+01 -0.47393356857E+02 -0.72828632069E+02  0.87311307452E+02  0.47000000000E+01 0. -1.
        -11    1    4    4    0    0 -0.22000375737E+02  0.85091817568E+01 -0.40960903267E+02  0.47267518479E+02  0.00000000000E+00 0.  1.
         12    1    4    4    0    0 -0.52076321723E+02  0.26950639022E+02  0.32451622598E+02  0.67017818802E+02  0.00000000000E+00 0. -1.
         -5    1    5    5    0  502  0.77320816619E+02 -0.40626364085E+02  0.63189347500E+01  0.87698512403E+02  0.47000000000E+01 0.  1.
         13    1    6    6    0    0 -0.29031008929E+02 -0.95328612119E+01 -0.42635303705E+01  0.30852108737E+02  0.00000000000E+00 0. -1.
        -14    1    6    6    0    0  0.18643047262E+02  0.62092761376E+02 -0.14504678555E+02  0.66433876347E+02  0.00000000000E+00 0.  1.
</event>
<event>
12    1  0.1630640E-001  0.1792781E+03  0.7818608E-02  0.1169134E+00
         21   -1    0    0  501  502  0.00000000000E+00  0.00000000000E+00  0.86927212537E+03  0.86927212537E+03  0.00000000000E+00 0.  1.
         21   -1    0    0  502  503 -0.00000000000E+00 -0.00000000000E+00 -0.36847196650E+02  0.36847196650E+02  0.00000000000E+00 0.  1.
         -6    2    1    2    0  503  0.18134846835E+01  0.42934840399E+02  0.37188337820E+03  0.41284124579E+03  0.17405159581E+03 0.  0.
        -24    2    3    3    0    0 -0.59368442098E+02  0.26665171162E+02  0.30161491184E+03  0.31814342288E+03  0.77511542384E+02 0.  0.
          6    2    1    2  501    0 -0.18134846835E+01 -0.42934840399E+02  0.46054155053E+03  0.49327807623E+03  0.17140026686E+03 0.  0.
         24    2    5    5    0    0  0.50437398590E+02  0.71914879791E+01  0.19235808274E+03  0.21545211274E+03  0.82597410429E+02 0.  0.
          5    1    5    5  501    0 -0.52250883273E+02 -0.50126328378E+02  0.26818346778E+03  0.27782596349E+03  0.47000000000E+01 0. -1.
        -11    1    6    6    0    0  0.30435728437E+02  0.14635754389E+02  0.19111273604E+03  0.19407374050E+03  0.00000000000E+00 0.  1.
         12    1    6    6    0    0  0.20001670152E+02 -0.74442664101E+01  0.12453467017E+01  0.21378372241E+02  0.00000000000E+00 0. -1.
         -5    1    3    3    0  503  0.61181926781E+02  0.16269669237E+02  0.70268466354E+02  0.94697822918E+02  0.47000000000E+01 0.  1.
         11    1    4    4    0    0  0.11116652422E+02  0.20440760204E+02  0.13704417392E+03  0.13900543243E+03  0.00000000000E+00 0. -1.
        -12    1    4    4    0    0 -0.70485094520E+02  0.62244109577E+01  0.16457073792E+03  0.17913799044E+03  0.00000000000E+00 0.  1.
</event>
<event>
12    1  0.1630640E-001  0.2235719E+03  0.7818608E-02  0.1131430E+00
         21   -1    0    0  501  502  0.00000000000E+00  0.00000000000E+00  0.15762774167E+03  0.15762774167E+03  0.00000000000E+00 0.  1.
         21   -1    0    0  502  503 -0.00000000000E+00 -0.00000000000E+00 -0.47682114464E+03  0.47682114464E+03  0.00000000000E+00 0.  1.
         -6    2    1    2    0  503  0.52059483851E+02  0.13198326528E+03 -0.34376692008E+03  0.40953059753E+03  0.17149298178E+03 0.  0.
        -24    2    3    3    0    0 -0.30588761650E+02  0.33607912150E+02 -0.16874235415E+03  0.19235755301E+03  0.80388320149E+02 0.  0.
          6    2    1    2  501    0 -0.52059483851E+02 -0.13198326528E+03  0.24573517112E+02  0.22491828877E+03  0.17278485671E+03 0.  0.
         24    2    5    5    0    0 -0.31894218718E+02 -0.30297102451E+02 -0.38598689510E+02  0.10342947727E+03  0.85279788535E+02 0.  0.
          5    1    5    5  501    0 -0.20165265134E+02 -0.10168616283E+03  0.63172206622E+02  0.12148881150E+03  0.47000000000E+01 0. -1.
        -11    1    6    6    0    0 -0.53920381598E+00 -0.53638551948E+02 -0.89831186277E+01  0.54388247040E+02  0.00000000000E+00 0.  1.
         12    1    6    6    0    0 -0.31355014902E+02  0.23341449497E+02 -0.29615570882E+02  0.49041230233E+02  0.00000000000E+00 0. -1.
         -5    1    3    3    0  503  0.82648245501E+02  0.98375353135E+02 -0.17502456593E+03  0.21717304453E+03  0.47000000000E+01 0.  1.
         13    1    4    4    0    0 -0.46260806361E+02  0.21329431169E+02 -0.16422228055E+03  0.17194174673E+03  0.00000000000E+00 0. -1.
        -14    1    4    4    0    0  0.15672044711E+02  0.12278480981E+02 -0.45200735994E+01  0.20415806278E+02  0.00000000000E+00 0.  1.
</event>
<event>
12    1  0.1630640E-001  0.2209172E+03  0.7818608E-02  0.1133218E+00
         21   -1    0    0  501  502  0.00000000000E+00  0.00000000000E+00  0.14968218563E+03  0.14968218563E+03  0.00000000000E+00 0.  1.
         21   -1    0    0  502  503 -0.00000000000E+00 -0.00000000000E+00 -0.44341212763E+03  0.44341212763E+03  0.00000000000E+00 0. -1.
         -6    2    1    2    0  503  0.99798080106E+02  0.95001342989E+02 -0.29953866376E+03  0.37219328276E+03  0.17268328431E+03 0.  0.
        -24    2    3    3    0    0  0.10196148336E+03  0.86616845150E+02 -0.13081906895E+03  0.20318626577E+03  0.79198534357E+02 0.  0.
          6    2    1    2  501    0 -0.99798080106E+02 -0.95001342989E+02  0.58087217646E+01  0.22090103050E+03  0.17256480541E+03 0.  0.
         24    2    5    5    0    0 -0.52340316121E+02 -0.63386164368E+01 -0.48086509818E+02  0.10670775386E+03  0.79338172135E+02 0.  0.
          5    1    5    5  501    0 -0.47457763985E+02 -0.88662726552E+02  0.53895231583E+02  0.11419327664E+03  0.47000000000E+01 0. -1.
        -11    1    6    6    0    0  0.13496324526E+02 -0.15044810954E+02  0.59742947588E+01  0.21075799159E+02  0.00000000000E+00 0.  1.
         12    1    6    6    0    0 -0.65836640647E+02  0.87061945168E+01 -0.54060804577E+02  0.85631954703E+02  0.00000000000E+00 0. -1.
         -5    1    3    3    0  503 -0.21634032508E+01  0.83844978391E+01 -0.16871959482E+03  0.16900701699E+03  0.47000000000E+01 0.  1.
         11    1    4    4    0    0  0.95966982119E+02  0.90424336247E+02 -0.13951087328E+03  0.19196225151E+03  0.00000000000E+00 0. -1.
        -12    1    4    4    0    0  0.59945012382E+01 -0.38074910971E+01  0.86918043291E+01  0.11224014257E+02  0.00000000000E+00 0.  1.
</event>
<event>
12    1  0.1630640E-001  0.1829162E+03  0.7818608E-02  0.1165162E+00
         21   -1    0    0  503  502  0.00000000000E+00  0.00000000000E+00  0.13305157258E+04  0.13305157258E+04  0.00000000000E+00 0.  1.
         21   -1    0    0  501  503 -0.00000000000E+00 -0.00000000000E+00 -0.25870046862E+02  0.25870046862E+02  0.00000000000E+00 0.  1.
          6    2    1    2  501    0 -0.21498947885E+02 -0.56401717043E+02  0.77348282753E+03  0.79481696623E+03  0.17267010996E+03 0.  0.
         24    2    3    3    0    0 -0.67691771138E+02 -0.50441696714E+02  0.68265574170E+03  0.69263600771E+03  0.81235687111E+02 0.  0.
         -6    2    1    2    0  502  0.21498947885E+02  0.56401717043E+02  0.53116285142E+03  0.56156880644E+03  0.17199474178E+03 0.  0.
        -24    2    5    5    0    0 -0.24391456892E+02 -0.11654964218E+02  0.21333975665E+03  0.23328348742E+03  0.90424290860E+02 0.  0.
          5    1    3    3  501    0  0.46192823253E+02 -0.59600203289E+01  0.90827085839E+02  0.10218095852E+03  0.47000000000E+01 0. -1.
        -11    1    4    4    0    0 -0.44256008780E+02 -0.49302899127E+02  0.22945581732E+03  0.23882910684E+03  0.00000000000E+00 0.  1.
         12    1    4    4    0    0 -0.23435762358E+02 -0.11387975873E+01  0.45319992438E+03  0.45380690087E+03  0.00000000000E+00 0. -1.
         -5    1    5    5    0  502  0.45890404777E+02  0.68056681262E+02  0.31782309477E+03  0.32828531902E+03  0.47000000000E+01 0.  1.
         11    1    6    6    0    0 -0.50887322879E+02  0.74295362507E+01  0.17749675205E+03  0.18479668457E+03  0.00000000000E+00 0. -1.
        -12    1    6    6    0    0  0.26495865986E+02 -0.19084500469E+02  0.35843004592E+02  0.48486802851E+02  0.00000000000E+00 0.  1.
</event>
<event>
12    1  0.1630640E-001  0.3166989E+03  0.7818608E-02  0.1077201E+00
         21   -1    0    0  501  502  0.00000000000E+00  0.00000000000E+00  0.13724167418E+03  0.13724167418E+03  0.00000000000E+00 0.  1.
         21   -1    0    0  502  503 -0.00000000000E+00 -0.00000000000E+00 -0.12029201737E+04  0.12029201737E+04  0.00000000000E+00 0.  1.
         -6    2    1    2    0  503 -0.26455378063E+03  0.24251532946E+02 -0.95292036409E+03  0.10041690230E+04  0.17239885971E+03 0.  0.
        -24    2    3    3    0    0 -0.25343903602E+03  0.87840002510E+01 -0.94712570356E+03  0.98371296754E+03  0.79596485716E+02 0.  0.
          6    2    1    2  501    0  0.26455378063E+03 -0.24251532946E+02 -0.11275813548E+03  0.33599282490E+03  0.17204633555E+03 0.  0.
         24    2    5    5    0    0  0.14445638678E+03 -0.52695493764E+02 -0.12256987906E+03  0.21209446645E+03  0.79474679622E+02 0.  0.
          5    1    5    5  501    0  0.12009739385E+03  0.28443960818E+02  0.98117435800E+01  0.12389835846E+03  0.47000000000E+01 0. -1.
        -11    1    6    6    0    0  0.13675168698E+03 -0.21285148943E+02 -0.84556761845E+02  0.16218485574E+03  0.00000000000E+00 0.  1.
         12    1    6    6    0    0  0.77046997980E+01 -0.31410344821E+02 -0.38013117213E+02  0.49909610708E+02  0.00000000000E+00 0. -1.
         -5    1    3    3    0  503 -0.11114744608E+02  0.15467532695E+02 -0.57946605294E+01  0.20456055485E+02  0.47000000000E+01 0.  1.
         13    1    4    4    0    0  0.49995483222E+01  0.10379432671E+01 -0.68939886681E+01  0.85790377903E+01  0.00000000000E+00 0. -1.
        -14    1    4    4    0    0 -0.25843858434E+03  0.77460569839E+01 -0.94023171489E+03  0.97513392975E+03  0.00000000000E+00 0.  1.
</event>
<event>
12    1  0.1630640E-001  0.2345349E+03  0.7818608E-02  0.1125364E+00
         21   -1    0    0  503  502  0.00000000000E+00  0.00000000000E+00  0.19019820428E+03  0.19019820428E+03  0.00000000000E+00 0. -1.
         21   -1    0    0  501  503 -0.00000000000E+00 -0.00000000000E+00 -0.31037241583E+03  0.31037241583E+03  0.00000000000E+00 0.  1.
          6    2    1    2  501    0 -0.15774091371E+03  0.65541099894E+01  0.21691271489E+02  0.23553581326E+03  0.17344006415E+03 0.  0.
         24    2    3    3    0    0 -0.16088493711E+03  0.52753559816E+02  0.22162334780E+02  0.18898921351E+03  0.80986743857E+02 0.  0.
         -6    2    1    2    0  502  0.15774091371E+03 -0.65541099894E+01 -0.14186548303E+03  0.26503480685E+03  0.15872139537E+03 0.  0.
        -24    2    5    5    0    0  0.75487959719E+02  0.10015364507E+02 -0.12073240628E+02  0.11041200092E+03  0.79033582853E+02 0.  0.
          5    1    3    3  501    0  0.31440233921E+01 -0.46199449826E+02 -0.47106329082E+00  0.46546599747E+02  0.47000000000E+01 0. -1.
        -13    1    4    4    0    0 -0.11869468788E+02  0.15100906176E+02 -0.21870418741E+02  0.29107333656E+02  0.00000000000E+00 0.  1.
         14    1    4    4    0    0 -0.14901546832E+03  0.37652653640E+02  0.44032753521E+02  0.15988187986E+03  0.00000000000E+00 0. -1.
         -5    1    5    5    0  502  0.82252953995E+02 -0.16569474496E+02 -0.12979224240E+03  0.15462280593E+03  0.47000000000E+01 0.  1.
         13    1    6    6    0    0  0.32412412097E+02  0.29166475969E+02 -0.36910539358E+02  0.57128239025E+02  0.00000000000E+00 0. -1.
        -14    1    6    6    0    0  0.43075547622E+02 -0.19151111463E+02  0.24837298730E+02  0.53283761892E+02  0.00000000000E+00 0.  1.
</event>
<event>
12    1  0.1630640E-001  0.2521743E+03  0.7818608E-02  0.1112051E+00
         21   -1    0    0  503  502  0.00000000000E+00  0.00000000000E+00  0.38895217247E+03  0.38895217247E+03  0.00000000000E+00 0. -1.
         21   -1    0    0  501  503 -0.00000000000E+00 -0.00000000000E+00 -0.53241977059E+03  0.53241977059E+03  0.00000000000E+00 0.  1.
          6    2    1    2  501    0 -0.41268321280E+02  0.17878079216E+03 -0.45542735491E+03  0.52023508345E+03  0.17194423651E+03 0.  0.
         24    2    3    3    0    0 -0.45630254707E+02  0.69710306472E+02 -0.35395822012E+03  0.37112615472E+03  0.74206159822E+02 0.  0.
         -6    2    1    2    0  502  0.41268321280E+02 -0.17878079216E+03  0.31195975679E+03  0.40113685961E+03  0.17299203535E+03 0.  0.
        -24    2    5    5    0    0 -0.41686848320E+02 -0.81108594231E+02  0.11978848572E+03  0.17011022513E+03  0.79194759949E+02 0.  0.
          5    1    3    3  501    0  0.43619334270E+01  0.10907048569E+03 -0.10146913478E+03  0.14910892873E+03  0.47000000000E+01 0. -1.
        -13    1    4    4    0    0 -0.11601325012E+02 -0.11739985850E+02 -0.11888962201E+03  0.12002983059E+03  0.00000000000E+00 0.  1.
         14    1    4    4    0    0 -0.34028929695E+02  0.81450292322E+02 -0.23506859812E+03  0.25109632414E+03  0.00000000000E+00 0. -1.
         -5    1    5    5    0  502  0.82955169600E+02 -0.97672197932E+02  0.19217127107E+03  0.23102663448E+03  0.47000000000E+01 0.  1.
         11    1    6    6    0    0 -0.20033385813E+02 -0.89664839976E+02  0.11343798236E+03  0.14597703901E+03  0.00000000000E+00 0. -1.
        -12    1    6    6    0    0 -0.21653462507E+02  0.85562457441E+01  0.63505033582E+01  0.24133186128E+02  0.00000000000E+00 0.  1.
</event>
<event>
12    1  0.1630640E-001  0.1966962E+03  0.7818608E-02  0.1158462E+00
         21   -1    0    0  501  502  0.00000000000E+00  0.00000000000E+00  0.13529625565E+04  0.13529625565E+04  0.00000000000E+00 0.  1.
         21   -1    0    0  502  503 -0.00000000000E+00 -0.00000000000E+00 -0.88128083401E+02  0.88128083401E+02  0.00000000000E+00 0.  1.
         -6    2    1    2    0  503 -0.22612481393E+02  0.18072705845E+02  0.10652950952E+02  0.17157865832E+03  0.16878330372E+03 0.  0.
        -24    2    3    3    0    0  0.12146825717E+02  0.71423200816E+02 -0.67353321376E+00  0.10673373571E+03  0.78376129671E+02 0.  0.
          6    2    1    2  501    0  0.22612481393E+02 -0.18072705845E+02  0.12541815222E+04  0.12695119816E+04  0.19455444964E+03 0.  0.
         24    2    5    5    0    0  0.19794010766E+02 -0.95088893669E+01  0.20598209698E+03  0.22126324791E+03  0.77759750250E+02 0.  0.
          5    1    5    5  501    0  0.28184706267E+01 -0.85638164779E+01  0.10481994252E+04  0.10482487337E+04  0.47000000000E+01 0. -1.
        -11    1    6    6    0    0  0.16320793950E+02 -0.57834110136E+01  0.21238046040E+03  0.21308513819E+03  0.00000000000E+00 0.  1.
         12    1    6    6    0    0  0.34732168159E+01 -0.37254783533E+01 -0.63983634223E+01  0.81781097140E+01  0.00000000000E+00 0. -1.
         -5    1    3    3    0  503 -0.34759307110E+02 -0.53350494971E+02  0.11326484166E+02  0.64844922607E+02  0.47000000000E+01 0.  1.
         11    1    4    4    0    0 -0.20058369502E+00  0.71863568122E+02  0.26729740641E+02  0.76673930980E+02  0.00000000000E+00 0. -1.
        -12    1    4    4    0    0  0.12347409412E+02 -0.44036730693E+00 -0.27403273855E+02  0.30059804732E+02  0.00000000000E+00 0.  1.
</event>
<event>
12    1  0.1630640E-001  0.1907276E+03  0.7818608E-02  0.1157911E+00
         21   -1    0    0  503  502  0.00000000000E+00  0.00000000000E+00  0.18454042695E+04  0.18454042695E+04  0.00000000000E+00 0.  1.
         21   -1    0    0  501  503 -0.00000000000E+00 -0.00000000000E+00 -0.35949163175E+02  0.35949163175E+02  0.00000000000E+00 0.  1.
          6    2    1    2  501    0  0.40982918496E+02 -0.69379147941E+02  0.27100515978E+03  0.33112594395E+03  0.17235871998E+03 0.  0.
         24    2    3    3    0    0  0.21094990533E+02  0.23030754925E+02  0.76362325581E+02  0.11469340774E+03  0.79674078046E+02 0.  0.
         -6    2    1    2    0  502 -0.40982918496E+02  0.69379147941E+02  0.15384499466E+04  0.15502274887E+04  0.17286978624E+03 0.  0.
        -24    2    5    5    0    0  0.41949877310E+01  0.53281050918E+02  0.43940502974E+03  0.45012657922E+03  0.81735480972E+02 0.  0.
          5    1    3    3  501    0  0.19887927963E+02 -0.92409902867E+02  0.19464283420E+03  0.21643253622E+03  0.47000000000E+01 0. -1.
        -13    1    4    4    0    0  0.19963480949E+02 -0.27993374564E+02  0.27354992202E+02  0.43937059409E+02  0.00000000000E+00 0.  1.
         14    1    4    4    0    0  0.11315095833E+01  0.51024129489E+02  0.49007333378E+02  0.70756348330E+02  0.00000000000E+00 0. -1.
         -5    1    5    5    0  502 -0.45177906227E+02  0.16098097023E+02  0.10990449168E+04  0.11001009095E+04  0.47000000000E+01 0.  1.
         11    1    6    6    0    0  0.25381619584E+02 -0.63341548617E+01  0.59606545565E+02  0.65094457558E+02  0.00000000000E+00 0. -1.
        -12    1    6    6    0    0 -0.21186631853E+02  0.59615205780E+02  0.37979848418E+03  0.38503212166E+03  0.00000000000E+00 0.  1.
</event>
<event>
12    1  0.1630640E-001  0.1880260E+03  0.7818608E-02  0.1160598E+00
         21   -1    0    0  503  502  0.00000000000E+00  0.00000000000E+00  0.61535610660E+03  0.61535610660E+03  0.00000000000E+00 0.  1.
         21   -1    0    0  501  503 -0.00000000000E+00 -0.00000000000E+00 -0.90067248758E+02  0.90067248758E+02  0.00000000000E+00 0.  1.
          6    2    1    2  501    0 -0.70486982872E+02  0.21590018344E+02  0.48248355289E+02  0.19266470936E+03  0.17133955409E+03 0.  0.
         24    2    3    3    0    0 -0.56282297484E+02 -0.43425272336E+02  0.63171491293E+02  0.12430133395E+03  0.80042070320E+02 0.  0.
         -6    2    1    2    0  502  0.70486982872E+02 -0.21590018344E+02  0.47704050255E+03  0.51275864600E+03  0.17297180211E+03 0.  0.
        -24    2    5    5    0    0  0.34917274004E+02  0.20299939984E+02  0.11071470670E+03  0.14230399088E+03  0.79758234384E+02 0.  0.
          5    1    3    3  501    0 -0.14204685388E+02  0.65015290680E+02 -0.14923136004E+02  0.68363375410E+02  0.47000000000E+01 0. -1.
        -13    1    4    4    0    0 -0.47698587094E+02  0.37119858943E+01  0.37783206498E+01  0.47991767595E+02  0.00000000000E+00 0.  1.
         14    1    4    4    0    0 -0.85837103900E+01 -0.47137258231E+02  0.59393170644E+02  0.76309566351E+02  0.00000000000E+00 0. -1.
         -5    1    5    5    0  502  0.35569708867E+02 -0.41889958328E+02  0.36632579585E+03  0.37045465512E+03  0.47000000000E+01 0.  1.
         11    1    6    6    0    0  0.35754290868E+02  0.15814774894E+02  0.85274420263E+01  0.40014918317E+02  0.00000000000E+00 0. -1.
        -12    1    6    6    0    0 -0.83701686364E+00  0.44851650900E+01  0.10218726468E+03  0.10228907256E+03  0.00000000000E+00 0.  1.
</event>
<event>
12    1  0.1630640E-001  0.1798828E+03  0.7818608E-02  0.1168297E+00
         21   -1    0    0  501  502  0.00000000000E+00  0.00000000000E+00  0.13018059494E+02  0.13018059494E+02  0.00000000000E+00 0. -1.
         21   -1    0    0  502  503 -0.00000000000E+00 -0.00000000000E+00 -0.25560788613E+04  0.25560788613E+04  0.00000000000E+00 0. -1.
         -6    2    1    2    0  503  0.40894843519E+02  0.25865639120E+02 -0.15099414230E+04  0.15204342072E+04  0.17162650769E+03 0.  0.
        -24    2    3    3    0    0  0.29170877811E+02  0.69183955558E+02 -0.68656857345E+03  0.69582589581E+03  0.84616259706E+02 0.  0.
          6    2    1    2  501    0 -0.40894843519E+02 -0.25865639120E+02 -0.10331193789E+04  0.10486627136E+04  0.17325246440E+03 0.  0.
         24    2    5    5    0    0  0.39301430616E+02 -0.32186058721E+02 -0.66782395346E+03  0.67458487691E+03  0.80593911167E+02 0.  0.
          5    1    5    5  501    0 -0.80196274135E+02  0.63204196006E+01 -0.36529542542E+03  0.37407783671E+03  0.47000000000E+01 0. -1.
        -11    1    6    6    0    0  0.38080533166E+02 -0.57210615032E+02 -0.53736100568E+03  0.54173797348E+03  0.00000000000E+00 0.  1.
         12    1    6    6    0    0  0.12208974497E+01  0.25024556312E+02 -0.13046294778E+03  0.13284690343E+03  0.00000000000E+00 0. -1.
         -5    1    3    3    0  503  0.11723965709E+02 -0.43318316438E+02 -0.82337284952E+03  0.82460831141E+03  0.47000000000E+01 0.  1.
         13    1    4    4    0    0  0.37774286203E+02 -0.41328653412E+01 -0.18584989459E+03  0.18969491451E+03  0.00000000000E+00 0. -1.
        -14    1    4    4    0    0 -0.86034083922E+01  0.73316820899E+02 -0.50071867887E+03  0.50613098130E+03  0.00000000000E+00 0.  1.
</event>
<event>
12    1  0.1630640E-001  0.1961793E+03  0.7818608E-02  0.1153024E+00
         21   -1    0    0  503  502  0.00000000000E+00  0.00000000000E+00  0.11319949643E+04  0.11319949643E+04  0.00000000000E+00 0. -1.
         21   -1    0    0  501  503 -0.00000000000E+00 -0.00000000000E+00 -0.37002392300E+02  0.37002392300E+02  0.00000000000E+00 0. -1.
          6    2    1    2  501    0 -0.93392290330E+02  0.15646976096E+02  0.38038727165E+03  0.42795280064E+03  0.17170374307E+03 0.  0.
         24    2    3    3    0    0 -0.14023186747E+02 -0.45642409774E+02  0.16584635085E+03  0.19108629789E+03  0.82030980828E+02 0.  0.
         -6    2    1    2    0  502  0.93392290330E+02 -0.15646976096E+02  0.71460530032E+03  0.74104455593E+03  0.17181196373E+03 0.  0.
        -24    2    5    5    0    0  0.90169757948E+01  0.40509082428E+02  0.25933839112E+03  0.27460833819E+03  0.80193807008E+02 0.  0.
          5    1    3    3  501    0 -0.79369103583E+02  0.61289385870E+02  0.21454092080E+03  0.23686650274E+03  0.47000000000E+01 0. -1.
        -11    1    4    4    0    0 -0.21388427096E+02 -0.40756799127E+02  0.17343396000E+03  0.17943778858E+03  0.00000000000E+00 0.  1.
         12    1    4    4    0    0  0.73652403492E+01 -0.48856106469E+01 -0.75876091454E+01  0.11648509318E+02  0.00000000000E+00 0. -1.
         -5    1    5    5    0  502  0.84375314535E+02 -0.56156058524E+02  0.45526690920E+03  0.46643621774E+03  0.47000000000E+01 0.  1.
         13    1    6    6    0    0  0.44597303243E+02  0.23504273795E+02  0.13178338479E+03  0.14109653026E+03  0.00000000000E+00 0. -1.
        -14    1    6    6    0    0 -0.35580327449E+02  0.17004808633E+02  0.12755500633E+03  0.13351180793E+03  0.00000000000E+00 0.  1.
</event>
<event>
12    1  0.1630640E-001  0.2178871E+03  0.7818608E-02  0.1136681E+00
         21   -1    0    0  501  502  0.00000000000E+00  0.00000000000E+00  0.84267726705E+02  0.84267726705E+02  0.00000000000E+00 0. -1.
         21   -1    0    0  502  503 -0.00000000000E+00 -0.00000000000E+00 -0.96649606887E+03  0.96649606887E+03  0.00000000000E+00 0. -1.
         -6    2    1    2    0  503 -0.89326127362E+02 -0.87730117315E+02 -0.79084340977E+03  0.82030974654E+03  0.17832288403E+03 0.  0.
        -24    2    3    3    0    0 -0.41926278087E+02  0.41613756783E+01 -0.56386115534E+03  0.57084266248E+03  0.78401613339E+02 0.  0.
          6    2    1    2  501    0  0.89326127362E+02  0.87730117315E+02 -0.91384932392E+02  0.23045404904E+03  0.17053484200E+03 0.  0.
         24    2    5    5    0    0  0.10475801200E+03  0.95281979574E+02 -0.11650255771E+03  0.19966186190E+03  0.78988077810E+02 0.  0.
          5    1    5    5  501    0 -0.15431884636E+02 -0.75518622590E+01  0.25117625318E+02  0.30792187135E+02  0.47000000000E+01 0. -1.
        -13    1    6    6    0    0 -0.10642297420E+02  0.79717839904E+01 -0.25385470211E+02  0.28657109627E+02  0.00000000000E+00 0.  1.
         14    1    6    6    0    0  0.11540030942E+03  0.87310195584E+02 -0.91117087499E+02  0.17100475228E+03  0.00000000000E+00 0. -1.
         -5    1    3    3    0  503 -0.47399849275E+02 -0.91891492994E+02 -0.22698225444E+03  0.24946708405E+03  0.47000000000E+01 0.  1.
         13    1    4    4    0    0 -0.20590244663E+02 -0.36348696978E+02 -0.32059809708E+03  0.32330840663E+03  0.00000000000E+00 0. -1.
        -14    1    4    4    0    0 -0.21336033424E+02  0.40510072656E+02 -0.24326305826E+03  0.24753425586E+03  0.00000000000E+00 0.  1.
</event>
<event>
12    1  0.1630640E-001  0.1960580E+03  0.7818608E-02  0.1153209E+00
         21   -1    0    0  501  502  0.00000000000E+00  0.00000000000E+00  0.11267010419E+04  0.11267010419E+04  0.00000000000E+00 0.  1.
         21   -1    0    0  502  503 -0.00000000000E+00 -0.00000000000E+00 -0.13761275899E+03  0.13761275899E+03  0.00000000000E+00 0.  1.
         -6    2    1    2    0  503  0.49766949423E+02 -0.78537273773E+02 -0.54039742342E+02  0.20292093176E+03  0.17208067342E+03 0.  0.
        -24    2    3    3    0    0  0.82834944971E+02 -0.10968397377E+02 -0.57964265715E+02  0.12744552337E+03  0.76815177398E+02 0.  0.
          6    2    1    2  501    0 -0.49766949423E+02  0.78537273773E+02  0.10431280253E+04  0.10613928692E+04  0.17260907552E+03 0.  0.
         24    2    5    5    0    0 -0.28634407627E+02 -0.16886385722E+02  0.66911972530E+03  0.67479675230E+03  0.80773577429E+02 0.  0.
          5    1    5    5  501    0 -0.21132541796E+02  0.95423659495E+02  0.37400829998E+03  0.38659611686E+03  0.47000000000E+01 0. -1.
        -11    1    6    6    0    0 -0.18909828439E+01  0.11456491297E+02  0.53511699515E+03  0.53524295932E+03  0.00000000000E+00 0.  1.
         12    1    6    6    0    0 -0.26743424783E+02 -0.28342877019E+02  0.13400273015E+03  0.13955379298E+03  0.00000000000E+00 0. -1.
         -5    1    3    3    0  503 -0.33067995547E+02 -0.67568876396E+02  0.39245233727E+01  0.75475408384E+02  0.47000000000E+01 0.  1.
         11    1    4    4    0    0  0.14413450745E+02  0.24865344138E+02  0.32067423429E+01  0.28919130311E+02  0.00000000000E+00 0. -1.
        -12    1    4    4    0    0  0.68421494226E+02 -0.35833741515E+02 -0.61171008057E+02  0.98526393062E+02  0.00000000000E+00 0.  1.
</event>
<event>
12    1  0.1630640E-001  0.1928823E+03  0.7818608E-02  0.1158013E+00
         21   -1    0    0  501  502  0.00000000000E+00  0.00000000000E+00  0.18511424539E+03  0.18511424539E+03  0.00000000000E+00 0. -1.
         21   -1    0    0  502  503 -0.00000000000E+00 -0.00000000000E+00 -0.21900946594E+03  0.21900946594E+03  0.00000000000E+00 0. -1.
         -6    2    1    2    0  503  0.49406147224E+02  0.69551409983E+02 -0.89119381258E+02  0.21247547763E+03  0.17298901255E+03 0.  0.
        -24    2    3    3    0    0 -0.39914657954E+02  0.39798250651E+02 -0.43521421983E+02  0.10776291574E+03  0.80880474546E+02 0.  0.
          6    2    1    2  501    0 -0.49406147224E+02 -0.69551409983E+02  0.55224160712E+02  0.19164823370E+03  0.16248375777E+03 0.  0.
         24    2    5    5    0    0 -0.41527927076E+01 -0.43545947236E+02  0.90245872331E+02  0.12861839574E+03  0.80528746684E+02 0.  0.
          5    1    5    5  501    0 -0.45253354516E+02 -0.26005462748E+02 -0.35021711620E+02  0.63029837953E+02  0.47000000000E+01 0. -1.
        -13    1    6    6    0    0 -0.33053815341E+01 -0.25432631568E+02 -0.94159285642E+01  0.27320395427E+02  0.00000000000E+00 0.  1.
         14    1    6    6    0    0 -0.84741117353E+00 -0.18113315668E+02  0.99661800896E+02  0.10129800032E+03  0.00000000000E+00 0. -1.
         -5    1    3    3    0  503  0.89320805177E+02  0.29753159332E+02 -0.45597959275E+02  0.10471256189E+03  0.47000000000E+01 0.  1.
         13    1    4    4    0    0  0.22324219279E+02  0.18508822334E+02 -0.27710538516E+02  0.40110113630E+02  0.00000000000E+00 0. -1.
        -14    1    4    4    0    0 -0.62238877232E+02  0.21289428317E+02 -0.15810883467E+02  0.67652802109E+02  0.00000000000E+00 0.  1.
</event>
<event>
12    1  0.1630640E-001  0.2480233E+03  0.7818608E-02  0.1114720E+00
         21   -1    0    0  503  502  0.00000000000E+00  0.00000000000E+00  0.70845061717E+03  0.70845061717E+03  0.00000000000E+00 0.  1.
         21   -1    0    0  501  503 -0.00000000000E+00 -0.00000000000E+00 -0.90371265480E+02  0.90371265480E+02  0.00000000000E+00 0.  1.
          6    2    1    2  501    0 -0.17820908488E+03 -0.76984448642E+01  0.22677143718E+03  0.33606671227E+03  0.17233051497E+03 0.  0.
         24    2    3    3    0    0 -0.99739969805E+02 -0.64703678000E+02  0.17742825060E+03  0.22714546234E+03  0.77328192969E+02 0.  0.
         -6    2    1    2    0  502  0.17820908488E+03  0.76984448642E+01  0.39130791451E+03  0.46275517037E+03  0.17088803283E+03 0.  0.
        -24    2    5    5    0    0  0.10813505048E+03 -0.32980529328E+02  0.13215956981E+03  0.19119467288E+03  0.79425100497E+02 0.  0.
          5    1    3    3  501    0 -0.78469115073E+02  0.57005233136E+02  0.49343186584E+02  0.10892124994E+03  0.47000000000E+01 0. -1.
        -13    1    4    4    0    0 -0.85570763640E+02 -0.27161985703E+02  0.15985276584E+03  0.18333858242E+03  0.00000000000E+00 0.  1.
         14    1    4    4    0    0 -0.14169206165E+02 -0.37541692297E+02  0.17575484760E+02  0.43806879921E+02  0.00000000000E+00 0. -1.
         -5    1    5    5    0  502  0.70074034396E+02  0.40678974193E+02  0.25914834470E+03  0.27156049749E+03  0.47000000000E+01 0.  1.
         11    1    6    6    0    0  0.11236820101E+03 -0.34689614695E+02  0.13955842925E+03  0.18250078669E+03  0.00000000000E+00 0. -1.
        -12    1    6    6    0    0 -0.42331505309E+01  0.17090853662E+01 -0.73988594390E+01  0.86938861969E+01  0.00000000000E+00 0.  1.
</event>
<event>
12    1  0.1630640E-001  0.2068999E+03  0.7818608E-02  0.1146892E+00
         21   -1    0    0  503  502  0.00000000000E+00  0.00000000000E+00  0.62155784201E+03  0.62155784201E+03  0.00000000000E+00 0.  1.
         21   -1    0    0  501  503 -0.00000000000E+00 -0.00000000000E+00 -0.18112153559E+03  0.18112153559E+03  0.00000000000E+00 0. -1.
          6    2    1    2  501    0  0.73713765344E+02 -0.43412642321E+02 -0.10453554319E+03  0.21975407896E+03  0.17333723984E+03 0.  0.
         24    2    3    3    0    0  0.72532624428E+02 -0.41114893529E+02 -0.14153574083E+03  0.18236719130E+03  0.79208651384E+02 0.  0.
         -6    2    1    2    0  502 -0.73713765344E+02  0.43412642321E+02  0.54497184960E+03  0.58292529864E+03  0.18838580153E+03 0.  0.
        -24    2    5    5    0    0 -0.18552872639E+02 -0.31841781310E+02  0.40728365387E+03  0.41653394789E+03  0.79135623549E+02 0.  0.
          5    1    3    3  501    0  0.11811409162E+01 -0.22977487926E+01  0.37000197641E+02  0.37386887659E+02  0.47000000000E+01 0. -1.
        -13    1    4    4    0    0  0.39522014977E+02  0.61734421329E+01 -0.13969020733E+02  0.42370208825E+02  0.00000000000E+00 0.  1.
         14    1    4    4    0    0  0.33010609451E+02 -0.47288335662E+02 -0.12756672009E+03  0.13999698247E+03  0.00000000000E+00 0. -1.
         -5    1    5    5    0  502 -0.55160892705E+02  0.75254423631E+02  0.13768819573E+03  0.16639135075E+03  0.47000000000E+01 0.  1.
         11    1    6    6    0    0 -0.22061060507E+02 -0.40943777968E+02  0.11446557219E+03  0.12355343201E+03  0.00000000000E+00 0. -1.
        -12    1    6    6    0    0  0.35081878678E+01  0.91019966579E+01  0.29281808169E+03  0.29298051589E+03  0.00000000000E+00 0.  1.
</event>
<event>
12    1  0.1630640E-001  0.2287079E+03  0.7818608E-02  0.1127595E+00
         21   -1    0    0  503  502  0.00000000000E+00  0.00000000000E+00  0.94178242991E+03  0.94178242991E+03  0.00000000000E+00 0. -1.
         21   -1    0    0  501  503 -0.00000000000E+00 -0.00000000000E+00 -0.89861510263E+02  0.89861510263E+02  0.00000000000E+00 0. -1.
          6    2    1    2  501    0  0.13043809537E+03 -0.76374670630E+02  0.10677345652E+03  0.25218769794E+03  0.17132097636E+03 0.  0.
         24    2    3    3    0    0  0.93961473079E+02 -0.22835977893E+02 -0.48450605476E+01  0.12304545487E+03  0.75937270453E+02 0.  0.
         -6    2    1    2    0  502 -0.13043809537E+03  0.76374670630E+02  0.74514746313E+03  0.77945624223E+03  0.17163946138E+03 0.  0.
        -24    2    5    5    0    0 -0.82874893545E+02 -0.26939642628E+02  0.32149245110E+03  0.34077439315E+03  0.71943023205E+02 0.  0.
          5    1    3    3  501    0  0.36476622292E+02 -0.53538692737E+02  0.11161851706E+03  0.12914224307E+03  0.47000000000E+01 0. -1.
        -13    1    4    4    0    0  0.18658193408E+01 -0.42087211983E+01  0.24250156853E+02  0.24683288341E+02  0.00000000000E+00 0.  1.
         14    1    4    4    0    0  0.92095653738E+02 -0.18627256695E+02 -0.29095217401E+02  0.98362166533E+02  0.00000000000E+00 0. -1.
         -5    1    5    5    0  502 -0.47563201826E+02  0.10331431326E+03  0.42365501203E+03  0.43868184908E+03  0.47000000000E+01 0.  1.
         13    1    6    6    0    0 -0.47655076723E+02 -0.12575567990E+02  0.28072311582E+03  0.28501687495E+03  0.00000000000E+00 0. -1.
        -14    1    6    6    0    0 -0.35219816822E+02 -0.14364074638E+02  0.40769335277E+02  0.55757518203E+02  0.00000000000E+00 0.  1.
</event>
<event>
12    1  0.1630640E-001  0.2059237E+03  0.7818608E-02  0.1145356E+00
         21   -1    0    0  503  502  0.00000000000E+00  0.00000000000E+00  0.28329541386E+02  0.28329541386E+02  0.00000000000E+00 0. -1.
         21   -1    0    0  501  503 -0.00000000000E+00 -0.00000000000E+00 -0.17485059405E+04  0.17485059405E+04  0.00000000000E+00 0. -1.
          6    2    1    2  501    0 -0.92836996311E+02  0.63556276034E+02 -0.12137930966E+04  0.12311369808E+04  0.17247166756E+03 0.  0.
         24    2    3    3    0    0 -0.36253590325E+02  0.10315483530E+03 -0.75303382039E+03  0.76520680544E+03  0.80785379751E+02 0.  0.
         -6    2    1    2    0  502  0.92836996311E+02 -0.63556276034E+02 -0.50638330252E+03  0.54569850106E+03  0.16942460530E+03 0.  0.
        -24    2    5    5    0    0  0.12976948832E+03 -0.68865359988E+02 -0.43665008438E+03  0.46647093609E+03  0.73138773062E+02 0.  0.
          5    1    3    3  501    0 -0.56583405986E+02 -0.39598559265E+02 -0.46075927620E+03  0.46593017539E+03  0.47000000000E+01 0. -1.
        -13    1    4    4    0    0 -0.12732229963E+02  0.89187045588E+02 -0.35567866396E+03  0.36691109383E+03  0.00000000000E+00 0.  1.
         14    1    4    4    0    0 -0.23521360362E+02  0.13967789711E+02 -0.39735515644E+03  0.39829571162E+03  0.00000000000E+00 0. -1.
         -5    1    5    5    0  502 -0.36932492010E+02  0.53090839548E+01 -0.69733218147E+02  0.79227564974E+02  0.47000000000E+01 0.  1.
         11    1    6    6    0    0  0.88781611002E+02 -0.81839647667E+01 -0.27285441552E+03  0.28705170928E+03  0.00000000000E+00 0. -1.
        -12    1    6    6    0    0  0.40987877319E+02 -0.60681395222E+02 -0.16379566886E+03  0.17941922681E+03  0.00000000000E+00 0.  1.
</event>
<event>
12    1  0.1630640E-001  0.2442276E+03  0.7818608E-02  0.1117489E+00
         21   -1    0    0  501  502  0.00000000000E+00  0.00000000000E+00  0.23001767926E+03  0.23001767926E+03  0.00000000000E+00 0.  1.
         21   -1    0    0  502  503 -0.00000000000E+00 -0.00000000000E+00 -0.71437272704E+03  0.71437272704E+03  0.00000000000E+00 0. -1.
         -6    2    1    2    0  503 -0.52592054403E+02 -0.16191611142E+03 -0.61980521878E+03  0.66511658770E+03  0.17099361007E+03 0.  0.
        -24    2    3    3    0    0 -0.74008718320E+02 -0.86664407893E+02 -0.51944155777E+03  0.53777277423E+03  0.79950076839E+02 0.  0.
          6    2    1    2  501    0  0.52592054403E+02  0.16191611142E+03  0.13545017100E+03  0.27927381861E+03  0.17511243706E+03 0.  0.
         24    2    5    5    0    0  0.78927428381E+02  0.10262816515E+03  0.29345087219E+02  0.15481904249E+03  0.79660043561E+02 0.  0.
          5    1    5    5  501    0 -0.26335373978E+02  0.59287946273E+02  0.10610508378E+03  0.12445477612E+03  0.47000000000E+01 0. -1.
        -13    1    6    6    0    0  0.35316205917E+02  0.71043079543E+01  0.34235610640E+02  0.49696907628E+02  0.00000000000E+00 0.  1.
         14    1    6    6    0    0  0.43611222464E+02  0.95523857193E+02 -0.48905234210E+01  0.10512213486E+03  0.00000000000E+00 0. -1.
         -5    1    3    3    0  503  0.21416663916E+02 -0.75251703528E+02 -0.10036366101E+03  0.12734381347E+03  0.47000000000E+01 0.  1.
         11    1    4    4    0    0 -0.53391413585E+02 -0.63543253060E+02 -0.19596229945E+03  0.21281355892E+03  0.00000000000E+00 0. -1.
        -12    1    4    4    0    0 -0.20617304735E+02 -0.23121154832E+02 -0.32347925832E+03  0.32495921531E+03  0.00000000000E+00 0.  1.
</event>
<event>
12    1  0.1630640E-001  0.2454568E+03  0.7818608E-02  0.1116270E+00
         21   -1    0    0  501  502  0.00000000000E+00  0.00000000000E+00  0.11536065488E+03  0.11536065488E+03  0.00000000000E+00 0. -1.
         21   -1    0    0  502  503 -0.00000000000E+00 -0.00000000000E+00 -0.70573158928E+03  0.70573158928E+03  0.00000000000E+00 0. -1.
         -6    2    1    2    0  503  0.17411213177E+03 -0.16692051857E+02 -0.50512455136E+03  0.56160471924E+03  0.17220740187E+03 0.  0.
        -24    2    3    3    0    0  0.16472154607E+03 -0.37313687971E+02 -0.50569082669E+03  0.53845637927E+03  0.75409290693E+02 0.  0.
          6    2    1    2  501    0 -0.17411213177E+03  0.16692051857E+02 -0.85246383038E+02  0.25948752491E+03  0.17167751962E+03 0.  0.
         24    2    5    5    0    0 -0.59773365571E+02 -0.38941400870E+02 -0.77494506620E+02  0.13200962053E+03  0.79572944045E+02 0.  0.
          5    1    5    5  501    0 -0.11433876619E+03  0.55633452727E+02 -0.77518764178E+01  0.12747790438E+03  0.47000000000E+01 0. -1.
        -13    1    6    6    0    0  0.86203416309E+01 -0.77281669780E+01 -0.51000863078E+02  0.52298402359E+02  0.00000000000E+00 0.  1.
         14    1    6    6    0    0 -0.68393707202E+02 -0.31213233892E+02 -0.26493643543E+02  0.79711218175E+02  0.00000000000E+00 0. -1.
         -5    1    3    3    0  503  0.93905856938E+01  0.20621636115E+02  0.56627532972E+00  0.23148339972E+02  0.47000000000E+01 0.  1.
         13    1    4    4    0    0  0.12116671046E+03 -0.12423308322E+02 -0.25248586379E+03  0.28032984452E+03  0.00000000000E+00 0. -1.
        -14    1    4    4    0    0  0.43554835616E+02 -0.24890379649E+02 -0.25320496290E+03  0.25812653475E+03  0.00000000000E+00 0.  1.
</event>
<event>
12    1  0.1630640E-001  0.1958769E+03  0.7818608E-02  0.1153634E+00
         21   -1    0    0  501  502  0.00000000000E+00  0.00000000000E+00  0.44843816041E+02  0.44843816041E+02  0.00000000000E+00 0. -1.
         21   -1    0    0  502  503 -0.00000000000E+00 -0.00000000000E+00 -0.90550061569E+03  0.90550061569E+03  0.00000000000E+00 0. -1.
         -6    2    1    2    0  503 -0.44868156191E+02 -0.76523641122E+02 -0.31254800882E+03  0.36885501207E+03  0.17463889321E+03 0.  0.
        -24    2    3    3    0    0  0.18727813551E+02 -0.93137251503E+02 -0.22259996503E+03  0.25735075206E+03  0.87483635836E+02 0.  0.
          6    2    1    2  501    0  0.44868156191E+02  0.76523641122E+02 -0.54810879083E+03  0.58148941966E+03  0.17273586630E+03 0.  0.
         24    2    5    5    0    0  0.88356700766E+02  0.43654828867E+02 -0.46418805819E+03  0.48130762643E+03  0.80460097197E+02 0.  0.
          5    1    5    5  501    0 -0.43488544575E+02  0.32868812255E+02 -0.83920732637E+02  0.10018179323E+03  0.47000000000E+01 0. -1.
        -11    1    6    6    0    0  0.71618970292E+01  0.41092900462E+02 -0.22124168877E+03  0.22513952138E+03  0.00000000000E+00 0.  1.
         12    1    6    6    0    0  0.81194803737E+02  0.25619284045E+01 -0.24294636941E+03  0.25616810505E+03  0.00000000000E+00 0. -1.
         -5    1    3    3    0  503 -0.63595969742E+02  0.16613610381E+02 -0.89948043793E+02  0.11150426001E+03  0.47000000000E+01 0.  1.
         11    1    4    4    0    0 -0.24714960791E+02 -0.74169941028E+02 -0.16624629255E+03  0.18371129314E+03  0.00000000000E+00 0. -1.
        -12    1    4    4    0    0  0.43442774343E+02 -0.18967310474E+02 -0.56353672474E+02  0.73639458923E+02  0.00000000000E+00 0.  1.
</event>
<event>
12    1  0.1630640E-001  0.1808974E+03  0.7818608E-02  0.1167482E+00
         21   -1    0    0  501  502  0.00000000000E+00  0.00000000000E+00  0.13117401255E+03  0.13117401255E+03  0.00000000000E+00 0.  1.
         21   -1    0    0  502  503 -0.00000000000E+00 -0.00000000000E+00 -0.34742466317E+03  0.34742466317E+03  0.00000000000E+00 0.  1.
         -6    2    1    2    0  503 -0.54090346704E+02  0.93578828389E+01 -0.23670065742E+03  0.29654907716E+03  0.17000240693E+03 0.  0.
        -24    2    3    3    0    0 -0.27310108516E+02 -0.55703797866E+02 -0.17977879289E+03  0.20592682760E+03  0.78972709382E+02 0.  0.
          6    2    1    2  501    0  0.54090346704E+02 -0.93578828389E+01  0.20450006798E+02  0.18204959856E+03  0.17236739245E+03 0.  0.
         24    2    5    5    0    0 -0.34058136961E+02 -0.44507979020E+01  0.36232240168E+02  0.92242006761E+02  0.77563176111E+02 0.  0.
          5    1    5    5  501    0  0.88148483665E+02 -0.49070849369E+01 -0.15782233371E+02  0.89807591801E+02  0.47000000000E+01 0. -1.
        -11    1    6    6    0    0 -0.87114817142E+01 -0.39213672860E+02  0.85087741483E+01  0.41060946048E+02  0.00000000000E+00 0.  1.
         12    1    6    6    0    0 -0.25346655246E+02  0.34762874958E+02  0.27723466020E+02  0.51181060713E+02  0.00000000000E+00 0. -1.
         -5    1    3    3    0  503 -0.26780238188E+02  0.65061680705E+02 -0.56921864527E+02  0.90622249557E+02  0.47000000000E+01 0.  1.
         11    1    4    4    0    0 -0.25394277466E+02 -0.96540093717E+01 -0.83668002342E+01  0.28426617300E+02  0.00000000000E+00 0. -1.
        -12    1    4    4    0    0 -0.19158310500E+01 -0.46049788494E+02 -0.17141199266E+03  0.17750021030E+03  0.00000000000E+00 0.  1.
</event>
<event>
12    1  0.1630640E-001  0.1881491E+03  0.7818608E-02  0.1160254E+00
         21   -1    0    0  503  502  0.00000000000E+00  0.00000000000E+00  0.38678238633E+02  0.38678238633E+02  0.00000000000E+00 0. -1.
         21   -1    0    0  501  503 -0.00000000000E+00 -0.00000000000E+00 -0.93766876289E+03  0.93766876289E+03  0.00000000000E+00 0.  1.
          6    2    1    2  501    0  0.73081720471E+02 -0.17187561799E+02 -0.52834300430E+03  0.56067926927E+03  0.17198419300E+03 0.  0.
         24    2    3    3    0    0 -0.21726461869E+02  0.67171741592E+01 -0.33414466384E+03  0.34320487243E+03  0.74965115313E+02 0.  0.
         -6    2    1    2    0  502 -0.73081720471E+02  0.17187561799E+02 -0.37064751996E+03  0.41566773226E+03  0.17252167819E+03 0.  0.
        -24    2    5    5    0    0 -0.61664446209E+02 -0.22614665407E+02 -0.35750780733E+03  0.37197204037E+03  0.78977461932E+02 0.  0.
          5    1    3    3  501    0  0.94808182340E+02 -0.23904735958E+02 -0.19419834046E+03  0.21747439683E+03  0.47000000000E+01 0. -1.
        -11    1    4    4    0    0 -0.79496808057E+01  0.10401012857E+02 -0.32698636699E+03  0.32724831962E+03  0.00000000000E+00 0.  1.
         12    1    4    4    0    0 -0.13776781063E+02 -0.36838386974E+01 -0.71582968504E+01  0.15956552817E+02  0.00000000000E+00 0. -1.
         -5    1    5    5    0  502 -0.11417274262E+02  0.39802227206E+02 -0.13139712625E+02  0.43695691893E+02  0.47000000000E+01 0.  1.
         11    1    6    6    0    0 -0.33428277623E+02  0.70334971299E+01 -0.43516936194E+02  0.55323083450E+02  0.00000000000E+00 0. -1.
        -12    1    6    6    0    0 -0.28236168586E+02 -0.29648162537E+02 -0.31399087114E+03  0.31664895692E+03  0.00000000000E+00 0.  1.
</event>
<event>
12    1  0.1630640E-001  0.3570276E+03  0.7818608E-02  0.1059849E+00
         21   -1    0    0  501  502  0.00000000000E+00  0.00000000000E+00  0.40721768105E+03  0.40721768105E+03  0.00000000000E+00 0.  1.
         21   -1    0    0  502  503 -0.00000000000E+00 -0.00000000000E+00 -0.31999944665E+03  0.31999944665E+03  0.00000000000E+00 0. -1.
         -6    2    1    2    0  503  0.30685133774E+03  0.62446345494E+02  0.10004371003E+03  0.37077947792E+03  0.17149748625E+03 0.  0.
        -24    2    3    3    0    0  0.15183670634E+03 -0.12422066363E+02 -0.13891593160E+02  0.16428938528E+03  0.59911039316E+02 0.  0.
          6    2    1    2  501    0 -0.30685133774E+03 -0.62446345494E+02 -0.12825475630E+02  0.35643764977E+03  0.16978226000E+03 0.  0.
         24    2    5    5    0    0 -0.18455703599E+03 -0.98821628114E+02 -0.31469373044E+02  0.22740764420E+03  0.83047585665E+02 0.  0.
          5    1    5    5  501    0 -0.12229430176E+03  0.36375282621E+02  0.18643897414E+02  0.12903000558E+03  0.47000000000E+01 0. -1.
        -11    1    6    6    0    0 -0.16254352557E+03 -0.61135216021E+02 -0.10203962872E+00  0.17366036610E+03  0.00000000000E+00 0.  1.
         12    1    6    6    0    0 -0.22013510420E+02 -0.37686412093E+02 -0.31367333416E+02  0.53747278099E+02  0.00000000000E+00 0. -1.
         -5    1    3    3    0  503  0.15501463141E+03  0.74868411857E+02  0.11393530319E+03  0.20649009264E+03  0.47000000000E+01 0.  1.
         11    1    4    4    0    0  0.11535200139E+03 -0.32930420643E+02  0.70798561848E+00  0.11996248611E+03  0.00000000000E+00 0. -1.
        -12    1    4    4    0    0  0.36484704945E+02  0.20508354279E+02 -0.14599578779E+02  0.44326899177E+02  0.00000000000E+00 0.  1.
</event>
<event>
12    1  0.1630640E-001  0.2104915E+03  0.7818608E-02  0.1142539E+00
         21   -1    0    0  501  502  0.00000000000E+00  0.00000000000E+00  0.53091151612E+03  0.53091151612E+03  0.00000000000E+00 0. -1.
         21   -1    0    0  502  503 -0.00000000000E+00 -0.00000000000E+00 -0.11742210276E+03  0.11742210276E+03  0.00000000000E+00 0. -1.
         -6    2    1    2    0  503  0.10783954625E+03  0.55165455822E+02  0.38546719799E+03  0.43598502844E+03  0.16378458122E+03 0.  0.
        -24    2    3    3    0    0  0.76189571524E+02  0.51512079770E+02  0.38496366690E+03  0.40377615388E+03  0.79873728070E+02 0.  0.
          6    2    1    2  501    0 -0.10783954625E+03 -0.55165455822E+02  0.28022215373E+02  0.21234859045E+03  0.17214553163E+03 0.  0.
         24    2    5    5    0    0 -0.13654030293E+03 -0.47382726672E+02  0.54577892178E+02  0.17220387376E+03  0.76072667317E+02 0.  0.
          5    1    5    5  501    0  0.28700756682E+02 -0.77827291507E+01 -0.26555676805E+02  0.40144716685E+02  0.47000000000E+01 0. -1.
        -11    1    6    6    0    0 -0.32135953950E+02 -0.36621468117E+02  0.45817883267E+02  0.66881461485E+02  0.00000000000E+00 0.  1.
         12    1    6    6    0    0 -0.10440434898E+03 -0.10761258555E+02  0.87600089110E+01  0.10532241228E+03  0.00000000000E+00 0. -1.
         -5    1    3    3    0  503  0.31649974725E+02  0.36533760519E+01  0.50353108627E+00  0.32208874557E+02  0.47000000000E+01 0.  1.
         11    1    4    4    0    0  0.83335918567E+02  0.22585503219E+02  0.33160888212E+03  0.34266518788E+03  0.00000000000E+00 0. -1.
        -12    1    4    4    0    0 -0.71463470435E+01  0.28926576552E+02  0.53354784777E+02  0.61110966002E+02  0.00000000000E+00 0.  1.
</event>
<event>
12    1  0.1630640E-001  0.1803678E+03  0.7818608E-02  0.1168453E+00
         21   -1    0    0  503  502  0.00000000000E+00  0.00000000000E+00  0.13026755156E+04  0.13026755156E+04  0.00000000000E+00 0.  1.
         21   -1    0    0  501  503 -0.00000000000E+00 -0.00000000000E+00 -0.47902668562E+02  0.47902668562E+02  0.00000000000E+00 0.  1.
          6    2    1    2  501    0 -0.47895537081E+02  0.20385792925E+02  0.15078027741E+03  0.23194860313E+03  0.16839210020E+03 0.  0.
         24    2    3    3    0    0 -0.25526472843E+02  0.62391703913E+02  0.12463712827E+02  0.85598223451E+02  0.51258035346E+02 0.  0.
         -6    2    1    2    0  502  0.47895537081E+02 -0.20385792925E+02  0.11039925697E+04  0.11186295811E+04  0.17269331994E+03 0.  0.
        -24    2    5    5    0    0  0.52066564343E+02 -0.15665299137E+02  0.11062114831E+04  0.11104629351E+04  0.80422360507E+02 0.  0.
          5    1    3    3  501    0 -0.22369064239E+02 -0.42005910988E+02  0.13831656459E+03  0.14635037968E+03  0.47000000000E+01 0. -1.
        -13    1    4    4    0    0  0.15367606715E+02  0.11518359100E+02  0.32907996814E+00  0.19207920921E+02  0.00000000000E+00 0.  1.
         14    1    4    4    0    0 -0.40894079558E+02  0.50873344813E+02  0.12134632859E+02  0.66390302530E+02  0.00000000000E+00 0. -1.
         -5    1    5    5    0  502 -0.41710272622E+01 -0.47204937880E+01 -0.22189134508E+01  0.81666460023E+01  0.47000000000E+01 0.  1.
         13    1    6    6    0    0  0.10532333238E+02  0.32023089097E+02  0.41215512515E+03  0.41353144435E+03  0.00000000000E+00 0. -1.
        -14    1    6    6    0    0  0.41534231105E+02 -0.47688388234E+02  0.69405635796E+03  0.69693149072E+03  0.00000000000E+00 0.  1.
</event>
<event>
12    1  0.1630640E-001  0.2977881E+03  0.7818608E-02  0.1086391E+00
         21   -1    0    0  503  502  0.00000000000E+00  0.00000000000E+00  0.20840552188E+03  0.20840552188E+03  0.00000000000E+00 0.  1.
         21   -1    0    0  501  503 -0.00000000000E+00 -0.00000000000E+00 -0.67735279426E+03  0.67735279426E+03  0.00000000000E+00 0. -1.
          6    2    1    2  501    0 -0.17144274143E+03  0.17163569662E+03  0.35737682424E+02  0.29992487639E+03  0.17270299240E+03 0.  0.
         24    2    3    3    0    0 -0.17565208507E+02  0.93037080596E+02  0.36849848057E+02  0.12706839114E+03  0.76315331412E+02 0.  0.
         -6    2    1    2    0  502  0.17144274143E+03 -0.17163569662E+03 -0.50468495480E+03  0.58583343975E+03  0.17216994392E+03 0.  0.
        -24    2    5    5    0    0  0.19135919357E+03 -0.16650000945E+03 -0.49483029883E+03  0.56254729381E+03  0.85216424595E+02 0.  0.
          5    1    3    3  501    0 -0.15387753293E+03  0.78598616024E+02 -0.11121656330E+01  0.17285648525E+03  0.47000000000E+01 0. -1.
        -13    1    4    4    0    0 -0.82607634450E+01  0.10499279996E+03  0.26132218586E+02  0.10851092620E+03  0.00000000000E+00 0.  1.
         14    1    4    4    0    0 -0.93044450623E+01 -0.11955719365E+02  0.10717629471E+02  0.18557464938E+02  0.00000000000E+00 0. -1.
         -5    1    5    5    0  502 -0.19916452139E+02 -0.51356871729E+01 -0.98546559637E+01  0.23286145940E+02  0.47000000000E+01 0.  1.
         13    1    6    6    0    0  0.53291390842E+02 -0.47157413080E+02 -0.23127268281E+03  0.24197282442E+03  0.00000000000E+00 0. -1.
        -14    1    6    6    0    0  0.13806780273E+03 -0.11934259637E+03 -0.26355761602E+03  0.32057446939E+03  0.00000000000E+00 0.  1.
</event>
<event>
12    1  0.1630640E-001  0.2773867E+03  0.7818608E-02  0.1097306E+00
         21   -1    0    0  503  502  0.00000000000E+00  0.00000000000E+00  0.40537327081E+03  0.40537327081E+03  0.00000000000E+00 0. -1.
         21   -1    0    0  501  503 -0.00000000000E+00 -0.00000000000E+00 -0.27014609138E+03  0.27014609138E+03  0.00000000000E+00 0.  1.
          6    2    1    2  501    0  0.21185892803E+03 -0.51832306031E+02  0.25293802311E+03  0.37539446542E+03  0.17138426939E+03 0.  0.
         24    2    3    3    0    0  0.33849015695E+02 -0.19564763030E+02  0.44777792794E+02  0.99565723791E+02  0.79873317263E+02 0.  0.
         -6    2    1    2    0  502 -0.21185892803E+03  0.51832306031E+02 -0.11771084368E+03  0.30012489677E+03  0.16925813896E+03 0.  0.
        -24    2    5    5    0    0 -0.54315756480E+02  0.24406551888E+02 -0.96797961296E+02  0.13878221319E+03  0.79654103539E+02 0.  0.
          5    1    3    3  501    0  0.17800991234E+03 -0.32267543001E+02  0.20816023032E+03  0.27582874163E+03  0.47000000000E+01 0. -1.
        -13    1    4    4    0    0  0.40214942625E+02 -0.39862271113E+02  0.81477985838E+01  0.57206895480E+02  0.00000000000E+00 0.  1.
         14    1    4    4    0    0 -0.63659269307E+01  0.20297508083E+02  0.36629994210E+02  0.42358828311E+02  0.00000000000E+00 0. -1.
         -5    1    5    5    0  502 -0.15754317155E+03  0.27425754143E+02 -0.20912882387E+02  0.16134268357E+03  0.47000000000E+01 0.  1.
         13    1    6    6    0    0  0.84705018132E+01 -0.20472158352E+02 -0.24492942740E+02  0.33026699996E+02  0.00000000000E+00 0. -1.
        -14    1    6    6    0    0 -0.62786258293E+02  0.44878710240E+02 -0.72305018555E+02  0.10575551320E+03  0.00000000000E+00 0.  1.
</event>
<event>
12    1  0.1630640E-001  0.2012499E+03  0.7818608E-02  0.1149158E+00
         21   -1    0    0  501  502  0.00000000000E+00  0.00000000000E+00  0.13731915391E+03  0.13731915391E+03  0.00000000000E+00 0. -1.
         21   -1    0    0  502  503 -0.00000000000E+00 -0.00000000000E+00 -0.29333551105E+03  0.29333551105E+03  0.00000000000E+00 0. -1.
         -6    2    1    2    0  503 -0.10351585833E+03 -0.74336848350E+01 -0.62292394131E+02  0.21067003184E+03  0.17242600544E+03 0.  0.
        -24    2    3    3    0    0 -0.80403663746E+02  0.27093988576E+02  0.20662079205E+02  0.11777294676E+03  0.79023490875E+02 0.  0.
          6    2    1    2  501    0  0.10351585833E+03  0.74336848350E+01 -0.93723963006E+02  0.21998463312E+03  0.16981832932E+03 0.  0.
         24    2    5    5    0    0  0.25189863918E+02  0.56305373452E+02 -0.77541559483E+02  0.12613707837E+03  0.78057957762E+02 0.  0.
          5    1    5    5  501    0  0.78325994412E+02 -0.48871688617E+02 -0.16182403523E+02  0.93847554750E+02  0.47000000000E+01 0. -1.
        -13    1    6    6    0    0  0.10773422662E+02  0.23969545071E+01 -0.68768897784E+02  0.69648929131E+02  0.00000000000E+00 0.  1.
         14    1    6    6    0    0  0.14416441256E+02  0.53908418945E+02 -0.87726616990E+01  0.56488149243E+02  0.00000000000E+00 0. -1.
         -5    1    3    3    0  503 -0.23112194584E+02 -0.34527673411E+02 -0.82954473336E+02  0.92897085079E+02  0.47000000000E+01 0.  1.
         11    1    4    4    0    0 -0.44338047952E+01  0.20409967831E+01 -0.25129755806E+02  0.25599392955E+02  0.00000000000E+00 0. -1.
        -12    1    4    4    0    0 -0.75969858951E+02  0.25052991793E+02  0.45791835011E+02  0.92173553802E+02  0.00000000000E+00 0.  1.
</event>
<event>
12    1  0.1630640E-001  0.1971306E+03  0.7818608E-02  0.1152743E+00
         21   -1    0    0  501  502  0.00000000000E+00  0.00000000000E+00  0.27306246885E+03  0.27306246885E+03  0.00000000000E+00 0. -1.
         21   -1    0    0  502  503 -0.00000000000E+00 -0.00000000000E+00 -0.14966350134E+03  0.14966350134E+03  0.00000000000E+00 0.  1.
         -6    2    1    2    0  503 -0.44134897346E+02 -0.85013709090E+02  0.96471508072E+01  0.19736653124E+03  0.17229410970E+03 0.  0.
        -24    2    3    3    0    0 -0.58186272049E+02 -0.42819614567E+02  0.65833750880E+02  0.12555562141E+03  0.78809705399E+02 0.  0.
          6    2    1    2  501    0  0.44134897346E+02  0.85013709090E+02  0.11375181670E+03  0.22535943894E+03  0.16932861843E+03 0.  0.
         24    2    5    5    0    0 -0.36303938469E+02  0.27776372519E+02  0.19492952621E+02  0.88782199025E+02  0.73571739433E+02 0.  0.
          5    1    5    5  501    0  0.80438835815E+02  0.57237336571E+02  0.94258864082E+02  0.13657723992E+03  0.47000000000E+01 0. -1.
        -11    1    6    6    0    0 -0.12085267533E+02 -0.25318533688E+02  0.91917451509E+01  0.29522364715E+02  0.00000000000E+00 0.  1.
         12    1    6    6    0    0 -0.24218670936E+02  0.53094906207E+02  0.10301207470E+02  0.59259834310E+02  0.00000000000E+00 0. -1.
         -5    1    3    3    0  503  0.14051374703E+02 -0.42194094523E+02 -0.56186600073E+02  0.71810909835E+02  0.47000000000E+01 0.  1.
         13    1    4    4    0    0 -0.69960436403E+02 -0.55196418587E+02  0.49584543777E+02  0.10197908741E+03  0.00000000000E+00 0. -1.
        -14    1    4    4    0    0  0.11774164354E+02  0.12376804020E+02  0.16249207103E+02  0.23576534000E+02  0.00000000000E+00 0.  1.
</event>
<event>
12    1  0.1630640E-001  0.1773706E+03  0.7818608E-02  0.1170555E+00
         21   -1    0    0  501  502  0.00000000000E+00  0.00000000000E+00  0.41360176189E+03  0.41360176189E+03  0.00000000000E+00 0.  1.
         21   -1    0    0  502  503 -0.00000000000E+00 -0.00000000000E+00 -0.96713249206E+02  0.96713249206E+02  0.00000000000E+00 0. -1.
         -6    2    1    2    0  503  0.28050611496E+02  0.31137777085E+02  0.39385267254E+02  0.18096963527E+03  0.17158791230E+03 0.  0.
        -24    2    3    3    0    0  0.64843045705E+02  0.10668418946E+02 -0.21563038241E+02  0.10674387303E+03  0.81307158800E+02 0.  0.
          6    2    1    2  501    0 -0.28050611496E+02 -0.31137777085E+02  0.27750324543E+03  0.32934537583E+03  0.17234827352E+03 0.  0.
         24    2    5    5    0    0 -0.30372545800E+02 -0.17905420428E+02  0.46581809176E+02  0.97985728601E+02  0.78665382757E+02 0.  0.
          5    1    5    5  501    0  0.23219343043E+01 -0.13232356657E+02  0.23092143626E+03  0.23135964723E+03  0.47000000000E+01 0. -1.
        -13    1    6    6    0    0 -0.51989872662E+02 -0.25487301522E+02  0.16561587211E+02  0.60223214538E+02  0.00000000000E+00 0.  1.
         14    1    6    6    0    0  0.21617326862E+02  0.75818810940E+01  0.30020221965E+02  0.37762514063E+02  0.00000000000E+00 0. -1.
         -5    1    3    3    0  503 -0.36792434209E+02  0.20469358139E+02  0.60948305495E+02  0.74225762242E+02  0.47000000000E+01 0.  1.
         11    1    4    4    0    0  0.42475205560E+02 -0.13018649063E+02  0.24184113525E+02  0.50581613831E+02  0.00000000000E+00 0. -1.
        -12    1    4    4    0    0  0.22367840145E+02  0.23687068009E+02 -0.45747151766E+02  0.56162259199E+02  0.00000000000E+00 0.  1.
</event>
<event>
12    1  0.1630640E-001  0.2166677E+03  0.7818608E-02  0.1136881E+00
         21   -1    0    0  503  502  0.00000000000E+00  0.00000000000E+00  0.22977700078E+03  0.22977700078E+03  0.00000000000E+00 0. -1.
         21   -1    0    0  501  503 -0.00000000000E+00 -0.00000000000E+00 -0.27412226451E+03  0.27412226451E+03  0.00000000000E+00 0.  1.
          6    2    1    2  501    0  0.12174004818E+03  0.45434126957E+02 -0.15158844488E+03  0.26443139964E+03  0.17337822605E+03 0.  0.
         24    2    3    3    0    0  0.83393947432E+02  0.96342720963E+02 -0.91163730714E+02  0.17648059254E+03  0.81228710420E+02 0.  0.
         -6    2    1    2    0  502 -0.12174004818E+03 -0.45434126957E+02  0.10724318115E+03  0.23946786566E+03  0.17017302828E+03 0.  0.
        -24    2    5    5    0    0 -0.46116077352E+02 -0.88076887757E+02  0.57130947268E+02  0.13911490856E+03  0.78770437989E+02 0.  0.
          5    1    3    3  501    0  0.38346100751E+02 -0.50908594005E+02 -0.60424714161E+02  0.87950807090E+02  0.47000000000E+01 0. -1.
        -13    1    4    4    0    0  0.16856264822E+02  0.33452071343E+01 -0.53336778438E+02  0.56036916481E+02  0.00000000000E+00 0.  1.
         14    1    4    4    0    0  0.66537682609E+02  0.92997513828E+02 -0.37826952276E+02  0.12044367606E+03  0.00000000000E+00 0. -1.
         -5    1    5    5    0  502 -0.75623970830E+02  0.42642760800E+02  0.50112233884E+02  0.10035295709E+03  0.47000000000E+01 0.  1.
         11    1    6    6    0    0 -0.47186526308E+02 -0.30248024067E+02  0.58824081583E+02  0.81251361829E+02  0.00000000000E+00 0. -1.
        -12    1    6    6    0    0  0.10704489560E+01 -0.57828863690E+02 -0.16931343144E+01  0.57863546733E+02  0.00000000000E+00 0.  1.
</event>
<event>
12    1  0.1630640E-001  0.1751354E+03  0.7818608E-02  0.1172854E+00
         21   -1    0    0  501  502  0.00000000000E+00  0.00000000000E+00  0.59126577360E+03  0.59126577360E+03  0.00000000000E+00 0. -1.
         21   -1    0    0  502  503 -0.00000000000E+00 -0.00000000000E+00 -0.10326840960E+03  0.10326840960E+03  0.00000000000E+00 0. -1.
         -6    2    1    2    0  503 -0.24188129315E+01 -0.30116580055E+02 -0.13441215452E+01  0.17514055203E+03  0.17250955699E+03 0.  0.
        -24    2    3    3    0    0 -0.38458496297E+02  0.38661590650E+02  0.76142000838E+01  0.96835781621E+02  0.79658132229E+02 0.  0.
          6    2    1    2  501    0  0.24188129315E+01  0.30116580055E+02  0.48934148554E+03  0.51939363117E+03  0.17146951792E+03 0.  0.
         24    2    5    5    0    0 -0.28785706776E+02  0.79779474602E+02  0.31823543069E+03  0.33845304105E+03  0.77995449665E+02 0.  0.
          5    1    5    5  501    0  0.31204519708E+02 -0.49662894547E+02  0.17110605485E+03  0.18094059012E+03  0.47000000000E+01 0. -1.
        -13    1    6    6    0    0 -0.12100495161E+02  0.21461138081E+02  0.14222793474E+02  0.28448027788E+02  0.00000000000E+00 0.  1.
         14    1    6    6    0    0 -0.16685211615E+02  0.58318336521E+02  0.30401263722E+03  0.31000501326E+03  0.00000000000E+00 0. -1.
         -5    1    3    3    0  503  0.36039683366E+02 -0.68778170704E+02 -0.89583216290E+01  0.78304770410E+02  0.47000000000E+01 0.  1.
         13    1    4    4    0    0 -0.19823050563E+02  0.33452155155E+02 -0.33545457057E+02  0.51354626932E+02  0.00000000000E+00 0. -1.
        -14    1    4    4    0    0 -0.18635445734E+02  0.52094354948E+01  0.41159657141E+02  0.45481154689E+02  0.00000000000E+00 0.  1.
</event>
<event>
12    1  0.1630640E-001  0.1838755E+03  0.7818608E-02  0.1164276E+00
         21   -1    0    0  503  502  0.00000000000E+00  0.00000000000E+00  0.55315233470E+02  0.55315233470E+02  0.00000000000E+00 0. -1.
         21   -1    0    0  501  503 -0.00000000000E+00 -0.00000000000E+00 -0.70685165123E+03  0.70685165123E+03  0.00000000000E+00 0. -1.
          6    2    1    2  501    0 -0.55571951658E+02  0.29349643392E+02 -0.46825811785E+03  0.50306647185E+03  0.17280210296E+03 0.  0.
         24    2    3    3    0    0  0.31307428477E+02  0.41587413935E+02 -0.18951139309E+03  0.21080012708E+03  0.76239473965E+02 0.  0.
         -6    2    1    2    0  502  0.55571951658E+02 -0.29349643392E+02 -0.18327829991E+03  0.25910041285E+03  0.17202454866E+03 0.  0.
        -24    2    5    5    0    0  0.68257540964E+02 -0.67355536150E+02 -0.77855989527E+02  0.14622293243E+03  0.78254269619E+02 0.  0.
          5    1    3    3  501    0 -0.86879380136E+02 -0.12237770543E+02 -0.27874672476E+03  0.29226634477E+03  0.47000000000E+01 0. -1.
        -13    1    4    4    0    0  0.68517153336E+01  0.50844425415E+02 -0.17159912455E+03  0.17910433034E+03  0.00000000000E+00 0.  1.
         14    1    4    4    0    0  0.24455713144E+02 -0.92570114802E+01 -0.17912268536E+02  0.31695796741E+02  0.00000000000E+00 0. -1.
         -5    1    5    5    0  502 -0.12685589306E+02  0.38005892758E+02 -0.10542231038E+03  0.11287748042E+03  0.47000000000E+01 0.  1.
         13    1    6    6    0    0 -0.11288221500E+02 -0.27439801829E+02 -0.39271425209E+02  0.49220031562E+02  0.00000000000E+00 0. -1.
        -14    1    6    6    0    0  0.79545762464E+02 -0.39915734322E+02 -0.38584564318E+02  0.97002900864E+02  0.00000000000E+00 0.  1.
</event>
<event>
12    1  0.1630640E-001  0.1944521E+03  0.7818608E-02  0.1154646E+00
         21   -1    0    0  501  502  0.00000000000E+00  0.00000000000E+00  0.31507306413E+03  0.31507306413E+03  0.00000000000E+00 0.  1.
         21   -1    0    0  502  503 -0.00000000000E+00 -0.00000000000E+00 -0.15014095938E+03  0.15014095938E+03  0.00000000000E+00 0.  1.
         -6    2    1    2    0  503 -0.41737198108E+02 -0.76727907906E+02 -0.22310056323E+02  0.19572779590E+03  0.17373101599E+03 0.  0.
        -24    2    3    3    0    0 -0.66592912071E+02  0.13066278500E+01 -0.41127959717E+02  0.11156486596E+03  0.79491427417E+02 0.  0.
          6    2    1    2  501    0  0.41737198108E+02  0.76727907906E+02  0.18724216107E+03  0.26948622761E+03  0.17301454976E+03 0.  0.
         24    2    5    5    0    0 -0.11492678597E+02  0.16332026650E+02  0.16685922147E+03  0.18630788623E+03  0.80435141120E+02 0.  0.
          5    1    5    5  501    0  0.53229876705E+02  0.60395881256E+02  0.20382939599E+02  0.83178341372E+02  0.47000000000E+01 0. -1.
        -13    1    6    6    0    0  0.17901555847E+02  0.40541267214E+02  0.79697877452E+02  0.91191072586E+02  0.00000000000E+00 0.  1.
         14    1    6    6    0    0 -0.29394234443E+02 -0.24209240564E+02  0.87161344020E+02  0.95116813648E+02  0.00000000000E+00 0. -1.
         -5    1    3    3    0  503  0.24855713963E+02 -0.78034535756E+02  0.18817903393E+02  0.84162929936E+02  0.47000000000E+01 0.  1.
         11    1    4    4    0    0  0.15357321558E+02  0.13479279207E+02 -0.42129871430E+01  0.20863546056E+02  0.00000000000E+00 0. -1.
        -12    1    4    4    0    0 -0.81950233629E+02 -0.12172651357E+02 -0.36914972574E+02  0.90701319908E+02  0.00000000000E+00 0.  1.
</event>
<event>
12    1  0.1630640E-001  0.1728653E+03  0.7818608E-02  0.1174929E+00
         21   -1    0    0  503  502  0.00000000000E+00  0.00000000000E+00  0.22754739605E+03  0.22754739605E+03  0.00000000000E+00 0.  1.
         21   -1    0    0  501  503 -0.00000000000E+00 -0.00000000000E+00 -0.13142297815E+03  0.13142297815E+03  0.00000000000E+00 0.  1.
          6    2    1    2  501    0 -0.89904224581E+01 -0.10014160799E+02  0.40956449726E+02  0.17765086610E+03  0.17234061720E+03 0.  0.
         24    2    3    3    0    0  0.96555818781E+01  0.15037428078E+02  0.85592034403E+02  0.12297289062E+03  0.86469537812E+02 0.  0.
         -6    2    1    2    0  502  0.89904224581E+01  0.10014160799E+02  0.55167968180E+02  0.18131950810E+03  0.17219799126E+03 0.  0.
        -24    2    5    5    0    0  0.62158115009E+02 -0.25022396088E+02  0.13565590307E+02  0.10511444466E+03  0.79845285825E+02 0.  0.
          5    1    3    3  501    0 -0.18646004336E+02 -0.25051588878E+02 -0.44635584677E+02  0.54677975478E+02  0.47000000000E+01 0. -1.
        -11    1    4    4    0    0  0.27662230204E+02 -0.23194850185E+02  0.68414684111E+02  0.77354825686E+02  0.00000000000E+00 0.  1.
         12    1    4    4    0    0 -0.18006648326E+02  0.38232278263E+02  0.17177350292E+02  0.45618064933E+02  0.00000000000E+00 0. -1.
         -5    1    5    5    0  502 -0.53167692551E+02  0.35036556887E+02  0.41602377873E+02  0.76205063443E+02  0.47000000000E+01 0.  1.
         11    1    6    6    0    0  0.58611918081E+02 -0.61085033098E+00  0.38429776846E+02  0.70089784046E+02  0.00000000000E+00 0. -1.
        -12    1    6    6    0    0  0.35461969285E+01 -0.24411545757E+02 -0.24864186539E+02  0.35024660614E+02  0.00000000000E+00 0.  1.
</event>
<event>
12    1  0.1630640E-001  0.2594670E+03  0.7818608E-02  0.1107554E+00
         21   -1    0    0  503  502  0.00000000000E+00  0.00000000000E+00  0.89663650760E+03  0.89663650760E+03  0.00000000000E+00 0. -1.
         21   -1    0    0  501  503 -0.00000000000E+00 -0.00000000000E+00 -0.97504786762E+02  0.97504786762E+02  0.00000000000E+00 0. -1.
          6    2    1    2  501    0  0.78702671762E+02  0.17619185362E+03  0.16064318021E+03  0.30517105323E+03  0.17345160868E+03 0.  0.
         24    2    3    3    0    0 -0.25593967933E+02  0.63361251611E+02  0.54111801599E+02  0.11814282426E+03  0.79749234802E+02 0.  0.
         -6    2    1    2    0  502 -0.78702671762E+02 -0.17619185362E+03  0.63848854063E+03  0.68897024113E+03  0.17255346079E+03 0.  0.
        -24    2    5    5    0    0 -0.35539755767E+02 -0.18822792299E+03  0.45314043587E+03  0.49822456171E+03  0.78731404362E+02 0.  0.
          5    1    3    3  501    0  0.10429663969E+03  0.11283060201E+03  0.10653137861E+03  0.18702822897E+03  0.47000000000E+01 0. -1.
        -11    1    4    4    0    0 -0.13774446154E+02 -0.14056045836E+02  0.30587274460E+02  0.36371543138E+02  0.00000000000E+00 0.  1.
         12    1    4    4    0    0 -0.11819521779E+02  0.77417297447E+02  0.23524527139E+02  0.81771281121E+02  0.00000000000E+00 0. -1.
         -5    1    5    5    0  502 -0.43162915995E+02  0.12036069371E+02  0.18534810475E+03  0.19074567942E+03  0.47000000000E+01 0.  1.
         11    1    6    6    0    0 -0.29041746703E+01 -0.15346068167E+03  0.38988212127E+03  0.41900678221E+03  0.00000000000E+00 0. -1.
        -12    1    6    6    0    0 -0.32635581097E+02 -0.34767241325E+02  0.63258314597E+02  0.79217779498E+02  0.00000000000E+00 0.  1.
</event>
<event>
12    1  0.1630640E-001  0.1858885E+03  0.7818608E-02  0.1162557E+00
         21   -1    0    0  503  502  0.00000000000E+00  0.00000000000E+00  0.30475479606E+02  0.30475479606E+02  0.00000000000E+00 0. -1.
         21   -1    0    0  501  503 -0.00000000000E+00 -0.00000000000E+00 -0.11797039261E+04  0.11797039261E+04  0.00000000000E+00 0. -1.
          6    2    1    2  501    0  0.12571038461E+02 -0.66305560239E+02 -0.70265164173E+03  0.72645905016E+03  0.17166526614E+03 0.  0.
         24    2    3    3    0    0  0.19757119894E+02  0.44205977014E+01 -0.16617418371E+03  0.18527148364E+03  0.79383737939E+02 0.  0.
         -6    2    1    2    0  502 -0.12571038461E+02  0.66305560239E+02 -0.44657680477E+03  0.48372035556E+03  0.17320531601E+03 0.  0.
        -24    2    5    5    0    0  0.15394353242E+00  0.34723098061E+02 -0.44032742497E+03  0.44878438796E+03  0.79457337382E+02 0.  0.
          5    1    3    3  501    0 -0.71860814333E+01 -0.70726157941E+02 -0.53647745802E+03  0.54118756651E+03  0.47000000000E+01 0. -1.
        -13    1    4    4    0    0 -0.35648187999E+00  0.14402001092E+02  0.29146335789E+01  0.14698292543E+02  0.00000000000E+00 0.  1.
         14    1    4    4    0    0  0.20113601774E+02 -0.99814033907E+01 -0.16908881729E+03  0.17057319110E+03  0.00000000000E+00 0. -1.
         -5    1    5    5    0  502 -0.12724981993E+02  0.31582462179E+02 -0.62493798063E+01  0.34935967597E+02  0.47000000000E+01 0.  1.
         13    1    6    6    0    0 -0.11905600294E+02  0.21198251318E+02 -0.32667440172E+02  0.40721871577E+02  0.00000000000E+00 0. -1.
        -14    1    6    6    0    0  0.12059543826E+02  0.13524846742E+02 -0.40765998480E+03  0.40806251639E+03  0.00000000000E+00 0.  1.
</event>
<event>
12    1  0.1630640E-001  0.1925181E+03  0.7818608E-02  0.1156689E+00
         21   -1    0    0  501  502  0.00000000000E+00  0.00000000000E+00  0.66737595815E+02  0.66737595815E+02  0.00000000000E+00 0.  1.
         21   -1    0    0  502  503 -0.00000000000E+00 -0.00000000000E+00 -0.64711153431E+03  0.64711153431E+03  0.00000000000E+00 0. -1.
         -6    2    1    2    0  503  0.28677349149E+02  0.83669426549E+02 -0.43042895203E+03  0.47152124714E+03  0.17099777911E+03 0.  0.
        -24    2    3    3    0    0 -0.19815317903E+02  0.12153908013E+01 -0.29197238136E+03  0.30316888235E+03  0.79179389650E+02 0.  0.
          6    2    1    2  501    0 -0.28677349149E+02 -0.83669426549E+02 -0.14994498646E+03  0.24232788299E+03  0.16857147035E+03 0.  0.
         24    2    5    5    0    0 -0.26454048690E+02 -0.11253912002E+03 -0.15276343360E+03  0.21285864631E+03  0.92775354681E+02 0.  0.
          5    1    5    5  501    0 -0.22233004591E+01  0.28869693469E+02  0.28184471440E+01  0.29469236676E+02  0.47000000000E+01 0. -1.
        -13    1    6    6    0    0  0.78072588566E+01 -0.40114547062E+02 -0.57773119166E+00  0.40871309622E+02  0.00000000000E+00 0.  1.
         14    1    6    6    0    0 -0.34261307547E+02 -0.72424572956E+02 -0.15218570241E+03  0.17198733669E+03  0.00000000000E+00 0. -1.
         -5    1    3    3    0  503  0.48492667053E+02  0.82454035748E+02 -0.13845657067E+03  0.16835236479E+03  0.47000000000E+01 0.  1.
         11    1    4    4    0    0 -0.32117239190E+02 -0.20168544876E+02 -0.68155874091E+02  0.77996861660E+02  0.00000000000E+00 0. -1.
        -12    1    4    4    0    0  0.12301921287E+02  0.21383935677E+02 -0.22381650727E+03  0.22517202069E+03  0.00000000000E+00 0.  1.
</event>
<event>
12    1  0.1630640E-001  0.2469648E+03  0.7818608E-02  0.1115716E+00
         21   -1    0    0  501  502  0.00000000000E+00  0.00000000000E+00  0.13414456585E+03  0.13414456585E+03  0.00000000000E+00 0.  1.
         21   -1    0    0  502  503 -0.00000000000E+00 -0.00000000000E+00 -0.56624070022E+03  0.56624070022E+03  0.00000000000E+00 0. -1.
         -6    2    1    2    0  503 -0.14896689473E+03  0.89693139755E+02 -0.37626017870E+03  0.45007036846E+03  0.17537280133E+03 0.  0.
        -24    2    3    3    0    0 -0.78915505240E+02 -0.22397230818E+02 -0.18928428105E+03  0.22104302370E+03  0.79386310911E+02 0.  0.
          6    2    1    2  501    0  0.14896689473E+03 -0.89693139755E+02 -0.55835955678E+02  0.25031489761E+03  0.17118381633E+03 0.  0.
         24    2    5    5    0    0  0.45190945728E+02 -0.77985730547E+02 -0.78115749299E+02  0.14342715170E+03  0.79657277211E+02 0.  0.
          5    1    5    5  501    0  0.10377594900E+03 -0.11707409208E+02  0.22279793621E+02  0.10688774590E+03  0.47000000000E+01 0. -1.
        -13    1    6    6    0    0  0.65758688656E+01 -0.76844529093E+01  0.16522038661E+02  0.19371903091E+02  0.00000000000E+00 0.  1.
         14    1    6    6    0    0  0.38615076862E+02 -0.70301277637E+02 -0.94637787960E+02  0.12405524861E+03  0.00000000000E+00 0. -1.
         -5    1    3    3    0  503 -0.70051389485E+02  0.11209037057E+03 -0.18697589765E+03  0.22902734475E+03  0.47000000000E+01 0.  1.
         11    1    4    4    0    0 -0.84471406562E+02 -0.21030296907E+02 -0.10424425727E+03  0.13581073996E+03  0.00000000000E+00 0. -1.
        -12    1    4    4    0    0  0.55559013220E+01 -0.13669339102E+01 -0.85040023781E+02  0.85232283745E+02  0.00000000000E+00 0.  1.
</event>
<event>
12    1  0.1630640E-001  0.2138830E+03  0.7818608E-02  0.1138716E+00
         21   -1    0    0  503  502  0.00000000000E+00  0.00000000000E+00  0.15023518699E+03  0.15023518699E+03  0.00000000000E+00 0.  1.
         21   -1    0    0  501  503 -0.00000000000E+00 -0.00000000000E+00 -0.45059057841E+03  0.45059057841E+03  0.00000000000E+00 0. -1.
          6    2    1    2  501    0 -0.63959285608E+02  0.11105267243E+03 -0.32227615591E+03  0.38679173511E+03  0.17123796134E+03 0.  0.
         24    2    3    3    0    0  0.21034005788E+02  0.11941069084E+02 -0.13138129078E+03  0.15546964572E+03  0.79528288327E+02 0.  0.
         -6    2    1    2    0  502  0.63959285608E+02 -0.11105267243E+03  0.21920764498E+02  0.21403403029E+03  0.17001929283E+03 0.  0.
        -24    2    5    5    0    0  0.43757248252E+02 -0.13534932275E+03 -0.18013114632E+02  0.16289447386E+03  0.77304601236E+02 0.  0.
          5    1    3    3  501    0 -0.84993291396E+02  0.99111603351E+02 -0.19089486514E+03  0.23132208938E+03  0.47000000000E+01 0. -1.
        -11    1    4    4    0    0 -0.18367083317E+02 -0.14213116427E+02 -0.88953934877E+02  0.91935656620E+02  0.00000000000E+00 0.  1.
         12    1    4    4    0    0  0.39401089105E+02  0.26154185511E+02 -0.42427355900E+02  0.63533989101E+02  0.00000000000E+00 0. -1.
         -5    1    5    5    0  502  0.20202037356E+02  0.24296650312E+02  0.39933879130E+02  0.51139556432E+02  0.47000000000E+01 0.  1.
         13    1    6    6    0    0  0.16811859737E+02 -0.73654586307E+02  0.28847149246E+02  0.80868997345E+02  0.00000000000E+00 0. -1.
        -14    1    6    6    0    0  0.26945388515E+02 -0.61694736439E+02 -0.46860263878E+02  0.82025476513E+02  0.00000000000E+00 0.  1.
</event>
<event>
12    1  0.1630640E-001  0.2301458E+03  0.7818608E-02  0.1126851E+00
         21   -1    0    0  501  502  0.00000000000E+00  0.00000000000E+00  0.15885469704E+03  0.15885469704E+03  0.00000000000E+00 0.  1.
         21   -1    0    0  502  503 -0.00000000000E+00 -0.00000000000E+00 -0.41812303029E+03  0.41812303029E+03  0.00000000000E+00 0.  1.
         -6    2    1    2    0  503 -0.14354400721E+03  0.48111896646E+02 -0.26102616964E+03  0.34682522695E+03  0.17097789392E+03 0.  0.
        -24    2    3    3    0    0 -0.10604606191E+03  0.87975648415E+02 -0.13354529775E+03  0.20801356569E+03  0.80310740230E+02 0.  0.
          6    2    1    2  501    0  0.14354400721E+03 -0.48111896646E+02  0.17578363946E+01  0.23015250038E+03  0.17334199387E+03 0.  0.
         24    2    5    5    0    0  0.58243109374E+02 -0.87182181014E+02  0.14031481141E+02  0.13541358204E+03  0.84539714119E+02 0.  0.
          5    1    5    5  501    0  0.85300897837E+02  0.39070284368E+02 -0.12273644746E+02  0.94738918338E+02  0.47000000000E+01 0. -1.
        -11    1    6    6    0    0  0.63187039110E+02 -0.10037458885E+03  0.19691671383E+02  0.12023070290E+03  0.00000000000E+00 0.  1.
         12    1    6    6    0    0 -0.49439297359E+01  0.13192407831E+02 -0.56601902419E+01  0.15182879147E+02  0.00000000000E+00 0. -1.
         -5    1    3    3    0  503 -0.37497945303E+02 -0.39863751769E+02 -0.12748087188E+03  0.13881166127E+03  0.47000000000E+01 0.  1.
         11    1    4    4    0    0 -0.81416999976E+02  0.58398854440E+02 -0.41880463004E+02  0.10859616598E+03  0.00000000000E+00 0. -1.
        -12    1    4    4    0    0 -0.24629061932E+02  0.29576793976E+02 -0.91664834750E+02  0.99417399701E+02  0.00000000000E+00 0.  1.
</event>
<event>
12    1  0.1630640E-001  0.2048863E+03  0.7818608E-02  0.1145699E+00
         21   -1    0    0  501  502  0.00000000000E+00  0.00000000000E+00  0.69619534089E+03  0.69619534089E+03  0.00000000000E+00 0.  1.
         21   -1    0    0  502  503 -0.00000000000E+00 -0.00000000000E+00 -0.14963988315E+03  0.14963988315E+03  0.00000000000E+00 0. -1.
         -6    2    1    2    0  503  0.26785201878E+02  0.10825665585E+03 -0.53579188136E+02  0.21169014625E+03  0.17177030606E+03 0.  0.
        -24    2    3    3    0    0  0.13629807663E+02  0.98797805565E+02  0.26650548387E+02  0.12970578879E+03  0.78527459367E+02 0.  0.
          6    2    1    2  501    0 -0.26785201878E+02 -0.10825665585E+03  0.60013464588E+03  0.63414507779E+03  0.17187622271E+03 0.  0.
         24    2    5    5    0    0 -0.37723878619E+02 -0.14052808708E+03  0.53919760185E+03  0.56416998753E+03  0.79890466975E+02 0.  0.
          5    1    5    5  501    0  0.10938676741E+02  0.32271431231E+02  0.60937044033E+02  0.69975090268E+02  0.47000000000E+01 0. -1.
        -11    1    6    6    0    0 -0.27873213166E+02 -0.96903199829E+02  0.22188750731E+03  0.24372363868E+03  0.00000000000E+00 0.  1.
         12    1    6    6    0    0 -0.98506654522E+01 -0.43624887249E+02  0.31731009453E+03  0.32044634885E+03  0.00000000000E+00 0. -1.
         -5    1    3    3    0  503  0.13155394215E+02  0.94588502823E+01 -0.80229736522E+02  0.81984357460E+02  0.47000000000E+01 0.  1.
         11    1    4    4    0    0  0.32310090066E+02  0.55948332001E+02 -0.15855825754E+02  0.66524920023E+02  0.00000000000E+00 0. -1.
        -12    1    4    4    0    0 -0.18680282403E+02  0.42849473564E+02  0.42506374141E+02  0.63180868765E+02  0.00000000000E+00 0.  1.
</event>
<event>
12    1  0.1630640E-001  0.1918562E+03  0.7818608E-02  0.1156930E+00
         21   -1    0    0  503  502  0.00000000000E+00  0.00000000000E+00  0.78705989148E+03  0.78705989148E+03  0.00000000000E+00 0.  1.
         21   -1    0    0  501  503 -0.00000000000E+00 -0.00000000000E+00 -0.63611247805E+02  0.63611247805E+02  0.00000000000E+00 0. -1.
          6    2    1    2  501    0 -0.81182451492E+02 -0.23997552941E+02  0.14232756544E+03  0.23888477822E+03  0.17216947582E+03 0.  0.
         24    2    3    3    0    0 -0.10858434083E+03 -0.57714561958E+02  0.11166524923E+03  0.18549968787E+03  0.82580122184E+02 0.  0.
         -6    2    1    2    0  502  0.81182451492E+02  0.23997552941E+02  0.58112107823E+03  0.61178636106E+03  0.17150618368E+03 0.  0.
        -24    2    5    5    0    0  0.11513376558E+02 -0.24453598292E+02  0.14607481206E+03  0.16851597206E+03  0.79556557310E+02 0.  0.
          5    1    3    3  501    0  0.27401889334E+02  0.33717009017E+02  0.30662316205E+02  0.53385090346E+02  0.47000000000E+01 0. -1.
        -13    1    4    4    0    0 -0.19571659016E+02  0.20775217984E+02  0.30199865332E+02  0.41553476208E+02  0.00000000000E+00 0.  1.
         14    1    4    4    0    0 -0.89012681811E+02 -0.78489779942E+02  0.81465383902E+02  0.14394621167E+03  0.00000000000E+00 0. -1.
         -5    1    5    5    0  502  0.69669074934E+02  0.48451151233E+02  0.43504626618E+03  0.44327038901E+03  0.47000000000E+01 0.  1.
         11    1    6    6    0    0 -0.20829981492E+02 -0.39389148882E+02  0.10548378772E+03  0.11450861387E+03  0.00000000000E+00 0. -1.
        -12    1    6    6    0    0  0.32343358050E+02  0.14935550590E+02  0.40591024335E+02  0.54007358183E+02  0.00000000000E+00 0.  1.
</event>
<event>
12    1  0.1630640E-001  0.3062021E+03  0.7818608E-02  0.1082197E+00
         21   -1    0    0  503  502  0.00000000000E+00  0.00000000000E+00  0.13186006520E+04  0.13186006520E+04  0.00000000000E+00 0.  1.
         21   -1    0    0  501  503 -0.00000000000E+00 -0.00000000000E+00 -0.73531424925E+02  0.73531424925E+02  0.00000000000E+00 0. -1.
          6    2    1    2  501    0  0.15527941285E+03 -0.19946328727E+03  0.49544709100E+03  0.58243245300E+03  0.17280753255E+03 0.  0.
         24    2    3    3    0    0  0.65198212481E+02 -0.23604370982E+02  0.13976260715E+03  0.17552395819E+03  0.80418283378E+02 0.  0.
         -6    2    1    2    0  502 -0.15527941285E+03  0.19946328727E+03  0.74962213610E+03  0.80969962395E+03  0.17257704096E+03 0.  0.
        -24    2    5    5    0    0 -0.30089433281E+02  0.88589583347E+02  0.44456549670E+03  0.46178131105E+03  0.82764787861E+02 0.  0.
          5    1    3    3  501    0  0.90081200366E+02 -0.17585891629E+03  0.35568448385E+03  0.40690849481E+03  0.47000000000E+01 0. -1.
        -13    1    4    4    0    0  0.65615538446E+02 -0.47973779552E+02  0.11453075744E+03  0.14044278839E+03  0.00000000000E+00 0.  1.
         14    1    4    4    0    0 -0.41732596420E+00  0.24369408571E+02  0.25231849708E+02  0.35081169803E+02  0.00000000000E+00 0. -1.
         -5    1    5    5    0  502 -0.12518997957E+03  0.11087370392E+03  0.30505663941E+03  0.34791831290E+03  0.47000000000E+01 0.  1.
         11    1    6    6    0    0 -0.20222025708E+02  0.10125842472E+03  0.32156338855E+03  0.33773541679E+03  0.00000000000E+00 0. -1.
        -12    1    6    6    0    0 -0.98674075728E+01 -0.12668841370E+02  0.12300210814E+03  0.12404589426E+03  0.00000000000E+00 0.  1.
</event>
<event>
12    1  0.1630640E-001  0.2141796E+03  0.7818608E-02  0.1138410E+00
         21   -1    0    0  501  502  0.00000000000E+00  0.00000000000E+00  0.17787829323E+03  0.17787829323E+03  0.00000000000E+00 0. -1.
         21   -1    0    0  502  503 -0.00000000000E+00 -0.00000000000E+00 -0.27584494162E+03  0.27584494162E+03  0.00000000000E+00 0. -1.
         -6    2    1    2    0  503 -0.31310249271E+02  0.12484608927E+03  0.10069110522E+02  0.21383866020E+03  0.17046614883E+03 0.  0.
        -24    2    3    3    0    0 -0.70209448095E+02  0.74565750766E+02  0.49614644440E+02  0.13882399922E+03  0.79505169821E+02 0.  0.
          6    2    1    2  501    0  0.31310249271E+02 -0.12484608927E+03 -0.10803575891E+03  0.23988457465E+03  0.17118997119E+03 0.  0.
         24    2    5    5    0    0 -0.29455277424E+01 -0.77453749343E+02 -0.13504671233E+03  0.17529994995E+03  0.80527625834E+02 0.  0.
          5    1    5    5  501    0  0.34255777014E+02 -0.47392339927E+02  0.27010953418E+02  0.64584624696E+02  0.47000000000E+01 0. -1.
        -11    1    6    6    0    0 -0.21733554435E+02 -0.87695351327E+02 -0.11057469724E+03  0.14279210658E+03  0.00000000000E+00 0.  1.
         12    1    6    6    0    0  0.18788026693E+02  0.10241601984E+02 -0.24472015083E+02  0.32507843368E+02  0.00000000000E+00 0. -1.
         -5    1    3    3    0  503  0.38899198824E+02  0.50280338504E+02 -0.39545533918E+02  0.75014660981E+02  0.47000000000E+01 0.  1.
         11    1    4    4    0    0 -0.54299447591E+02  0.10057916156E+02 -0.11087180191E+01  0.55234237043E+02  0.00000000000E+00 0. -1.
        -12    1    4    4    0    0 -0.15910000504E+02  0.64507834610E+02  0.50723362459E+02  0.83589762180E+02  0.00000000000E+00 0.  1.
</event>
<event>
12    1  0.1630640E-001  0.1958012E+03  0.7818608E-02  0.1153709E+00
         21   -1    0    0  503  502  0.00000000000E+00  0.00000000000E+00  0.34783496602E+03  0.34783496602E+03  0.00000000000E+00 0.  1.
         21   -1    0    0  501  503 -0.00000000000E+00 -0.00000000000E+00 -0.17281335747E+03  0.17281335747E+03  0.00000000000E+00 0.  1.
          6    2    1    2  501    0  0.94047930404E+02  0.33677865625E+01 -0.70623879759E+02  0.20651490472E+03  0.16971834986E+03 0.  0.
         24    2    3    3    0    0  0.71694346788E+02 -0.32043455003E+02 -0.10362613588E+03  0.15299035298E+03  0.80627598854E+02 0.  0.
         -6    2    1    2    0  502 -0.94047930404E+02 -0.33677865625E+01  0.24564548831E+03  0.31413341877E+03  0.17170248588E+03 0.  0.
        -24    2    5    5    0    0 -0.61893375231E+02  0.59942209893E+02  0.19239021960E+03  0.22524987296E+03  0.79370336060E+02 0.  0.
          5    1    3    3  501    0  0.22353583616E+02  0.35411241566E+02  0.33002256122E+02  0.53524551739E+02  0.47000000000E+01 0. -1.
        -11    1    4    4    0    0  0.85308623619E+02 -0.11681705873E+02 -0.91555170957E+02  0.12568362202E+03  0.00000000000E+00 0.  1.
         12    1    4    4    0    0 -0.13614276831E+02 -0.20361749130E+02 -0.12070964924E+02  0.27306730955E+02  0.00000000000E+00 0. -1.
         -5    1    5    5    0  502 -0.32154555173E+02 -0.63309996455E+02  0.53255268714E+02  0.88883545808E+02  0.47000000000E+01 0.  1.
         13    1    6    6    0    0 -0.39337747738E+01  0.53303064203E+02  0.58712537470E+02  0.79396809090E+02  0.00000000000E+00 0. -1.
        -14    1    6    6    0    0 -0.57959600457E+02  0.66391456891E+01  0.13367768213E+03  0.14585306387E+03  0.00000000000E+00 0.  1.
</event>
<event>
12    1  0.1630640E-001  0.1969439E+03  0.7818608E-02  0.1152461E+00
         21   -1    0    0  503  502  0.00000000000E+00  0.00000000000E+00  0.30190548549E+02  0.30190548549E+02  0.00000000000E+00 0.  1.
         21   -1    0    0  501  503 -0.00000000000E+00 -0.00000000000E+00 -0.22226963521E+04  0.22226963521E+04  0.00000000000E+00 0. -1.
          6    2    1    2  501    0 -0.88992152114E+02 -0.31789658674E+02 -0.18285101297E+04  0.18390273200E+04  0.17216853273E+03 0.  0.
         24    2    3    3    0    0 -0.55269889198E+02  0.43994944154E+02 -0.78998938682E+03  0.79718859904E+03  0.80225403662E+02 0.  0.
         -6    2    1    2    0  502  0.88992152114E+02  0.31789658674E+02 -0.36399567386E+03  0.41385958068E+03  0.17279096156E+03 0.  0.
        -24    2    5    5    0    0  0.13948253557E+02 -0.25767987840E+02 -0.26025284460E+03  0.27339914496E+03  0.78466593928E+02 0.  0.
          5    1    3    3  501    0 -0.33722262917E+02 -0.75784602828E+02 -0.10385207429E+04  0.10418387210E+04  0.47000000000E+01 0. -1.
        -13    1    4    4    0    0 -0.39253783109E+02  0.31076528663E+01 -0.13231629439E+03  0.13805114544E+03  0.00000000000E+00 0.  1.
         14    1    4    4    0    0 -0.16016106089E+02  0.40887291288E+02 -0.65767309243E+03  0.65913745361E+03  0.00000000000E+00 0. -1.
         -5    1    5    5    0  502  0.75043898557E+02  0.57557646514E+02 -0.10374282926E+03  0.14046043573E+03  0.47000000000E+01 0.  1.
         11    1    6    6    0    0  0.30320195153E+02  0.19084220014E+02 -0.12065449205E+03  0.12586114626E+03  0.00000000000E+00 0. -1.
        -12    1    6    6    0    0 -0.16371941596E+02 -0.44852207854E+02 -0.13959835256E+03  0.14753799869E+03  0.00000000000E+00 0.  1.
</event>
<event>
12    1  0.1630640E-001  0.1847335E+03  0.7818608E-02  0.1164021E+00
         21   -1    0    0  501  502  0.00000000000E+00  0.00000000000E+00  0.16371923782E+03  0.16371923782E+03  0.00000000000E+00 0. -1.
         21   -1    0    0  502  503 -0.00000000000E+00 -0.00000000000E+00 -0.21716448474E+03  0.21716448474E+03  0.00000000000E+00 0. -1.
         -6    2    1    2    0  503  0.38383347562E+02  0.52650674584E+02  0.18545022555E+02  0.18261861299E+03  0.16958851685E+03 0.  0.
        -24    2    3    3    0    0  0.54480764105E+02 -0.27944846618E+02  0.23465041161E+02  0.10015006481E+03  0.75699136152E+02 0.  0.
          6    2    1    2  501    0 -0.38383347562E+02 -0.52650674584E+02 -0.71990269478E+02  0.19826510956E+03  0.17286144702E+03 0.  0.
         24    2    5    5    0    0 -0.51846810559E+02  0.27613731338E+02 -0.22870998943E+02  0.10308931205E+03  0.81570299390E+02 0.  0.
          5    1    5    5  501    0  0.13463462996E+02 -0.80264405922E+02 -0.49119270535E+02  0.95175797511E+02  0.47000000000E+01 0. -1.
        -13    1    6    6    0    0  0.13840901251E+02  0.13814155080E+02  0.16226824453E+02  0.25410849255E+02  0.00000000000E+00 0.  1.
         14    1    6    6    0    0 -0.65687711810E+02  0.13799576258E+02 -0.39097823396E+02  0.77678462794E+02  0.00000000000E+00 0. -1.
         -5    1    3    3    0  503 -0.16097416543E+02  0.80595521202E+02 -0.49200186065E+01  0.82468548188E+02  0.47000000000E+01 0.  1.
         11    1    4    4    0    0  0.68421453467E+02 -0.26034016611E+02  0.49014039732E+00  0.73208643977E+02  0.00000000000E+00 0. -1.
        -12    1    4    4    0    0 -0.13940689362E+02 -0.19108300074E+01  0.22974900764E+02  0.26941420830E+02  0.00000000000E+00 0.  1.
</event>
<event>
12    1  0.1630640E-001  0.2150199E+03  0.7818608E-02  0.1137876E+00
         21   -1    0    0  501  502  0.00000000000E+00  0.00000000000E+00  0.34422252003E+03  0.34422252003E+03  0.00000000000E+00 0.  1.
         21   -1    0    0  502  503 -0.00000000000E+00 -0.00000000000E+00 -0.14884058839E+03  0.14884058839E+03  0.00000000000E+00 0.  1.
         -6    2    1    2    0  503  0.97671660615E+02  0.83758720946E+02  0.17685161134E+03  0.27840630393E+03  0.17227391275E+03 0.  0.
        -24    2    3    3    0    0 -0.16216712376E+02  0.28027704145E+02  0.50274664868E+02  0.99184873535E+02  0.79130040127E+02 0.  0.
          6    2    1    2  501    0 -0.97671660615E+02 -0.83758720946E+02  0.18530320299E+02  0.21465680448E+03  0.17081830791E+03 0.  0.
         24    2    5    5    0    0 -0.43208502058E+02 -0.11830204837E+03  0.86125677382E+01  0.14923563875E+03  0.79591144294E+02 0.  0.
          5    1    5    5  501    0 -0.54463158557E+02  0.34543327428E+02  0.99177525604E+01  0.65421165731E+02  0.47000000000E+01 0. -1.
        -13    1    6    6    0    0 -0.30744153723E+02 -0.34866958628E+02 -0.31166326536E+02  0.55966487310E+02  0.00000000000E+00 0.  1.
         14    1    6    6    0    0 -0.12464348335E+02 -0.83435089746E+02  0.39778894274E+02  0.93269151438E+02  0.00000000000E+00 0. -1.
         -5    1    3    3    0  503  0.11388837299E+03  0.55731016800E+02  0.12657694647E+03  0.17922143040E+03  0.47000000000E+01 0.  1.
         11    1    4    4    0    0 -0.12856665892E+01  0.38289738247E+02 -0.71474852936E+01  0.38972343266E+02  0.00000000000E+00 0. -1.
        -12    1    4    4    0    0 -0.14931045787E+02 -0.10262034101E+02  0.57422150162E+02  0.60212530269E+02  0.00000000000E+00 0.  1.
</event>
<event>
12    1  0.1630640E-001  0.2295648E+03  0.7818608E-02  0.1127060E+00
         21   -1    0    0  503  502  0.00000000000E+00  0.00000000000E+00  0.38624076399E+03  0.38624076399E+03  0.00000000000E+00 0.  1.
         21   -1    0    0  501  503 -0.00000000000E+00 -0.00000000000E+00 -0.14491927516E+03  0.14491927516E+03  0.00000000000E+00 0. -1.
          6    2    1    2  501    0  0.26235041521E+01 -0.15208488389E+03  0.18648186773E+03  0.29576252225E+03  0.17193977984E+03 0.  0.
         24    2    3    3    0    0  0.53800487299E+02 -0.79824385056E+02  0.16096260075E+03  0.20349125758E+03  0.78951302634E+02 0.  0.
         -6    2    1    2    0  502 -0.26235041521E+01  0.15208488389E+03  0.54839621094E+02  0.23539751690E+03  0.17107867266E+03 0.  0.
        -24    2    5    5    0    0  0.64201572257E+02  0.81624452928E+02  0.14540360810E+02  0.13015311778E+03  0.77097462851E+02 0.  0.
          5    1    3    3  501    0 -0.51176983147E+02 -0.72260498836E+02  0.25519266979E+02  0.92271264667E+02  0.47000000000E+01 0. -1.
        -13    1    4    4    0    0  0.56568513502E+02 -0.94180627672E+02  0.14106936408E+03  0.17880311191E+03  0.00000000000E+00 0.  1.
         14    1    4    4    0    0 -0.27680262038E+01  0.14356242616E+02  0.19893236674E+02  0.24688145667E+02  0.00000000000E+00 0. -1.
         -5    1    5    5    0  502 -0.66825076409E+02  0.70460430964E+02  0.40299260284E+02  0.10524439913E+03  0.47000000000E+01 0.  1.
         13    1    6    6    0    0  0.32699233429E+02  0.89537880481E+02  0.19498657515E+02  0.97295783838E+02  0.00000000000E+00 0. -1.
        -14    1    6    6    0    0  0.31502338827E+02 -0.79134275526E+01 -0.49582967051E+01  0.32857333937E+02  0.00000000000E+00 0.  1.
</event>
<event>
12    1  0.1630640E-001  0.1975607E+03  0.7818608E-02  0.1152605E+00
         21   -1    0    0  501  502  0.00000000000E+00  0.00000000000E+00  0.28723927099E+03  0.28723927099E+03  0.00000000000E+00 0.  1.
         21   -1    0    0  502  503 -0.00000000000E+00 -0.00000000000E+00 -0.21514190652E+03  0.21514190652E+03  0.00000000000E+00 0.  1.
         -6    2    1    2    0  503 -0.91824474275E+02 -0.20135641143E+02 -0.11859347149E+03  0.23042271422E+03  0.17376143884E+03 0.  0.
        -24    2    3    3    0    0  0.13283197243E+02 -0.78329371562E+01 -0.14467977847E+02  0.81885891970E+02  0.79108651153E+02 0.  0.
          6    2    1    2  501    0  0.91824474275E+02  0.20135641143E+02  0.19069083597E+03  0.27195846329E+03  0.16959136981E+03 0.  0.
         24    2    5    5    0    0  0.29342075209E+02  0.14240412946E+02  0.22452189563E+02  0.92333476019E+02  0.83412368623E+02 0.  0.
          5    1    5    5  501    0  0.62482399067E+02  0.58952281974E+01  0.16823864640E+03  0.17962498727E+03  0.47000000000E+01 0. -1.
        -13    1    6    6    0    0  0.58529724811E+02  0.12880238636E+02  0.10899940027E+02  0.60913364103E+02  0.00000000000E+00 0.  1.
         14    1    6    6    0    0 -0.29187649603E+02  0.13601743096E+01  0.11552249536E+02  0.31420111916E+02  0.00000000000E+00 0. -1.
         -5    1    3    3    0  503 -0.10510767152E+03 -0.12302703987E+02 -0.10412549364E+03  0.14853682225E+03  0.47000000000E+01 0.  1.
         11    1    4    4    0    0 -0.16716035624E+02  0.23768176934E+02  0.11398949327E+02  0.31213588827E+02  0.00000000000E+00 0. -1.
        -12    1    4    4    0    0  0.29999232866E+02 -0.31601114090E+02 -0.25866927175E+02  0.50672303142E+02  0.00000000000E+00 0.  1.
</event>
<event>
12    1  0.1630640E-001  0.1951237E+03  0.7818608E-02  0.1154076E+00
         21   -1    0    0  503  502  0.00000000000E+00  0.00000000000E+00  0.18384456785E+03  0.18384456785E+03  0.00000000000E+00 0. -1.
         21   -1    0    0  501  503 -0.00000000000E+00 -0.00000000000E+00 -0.96816217216E+03  0.96816217216E+03  0.00000000000E+00 0. -1.
          6    2    1    2  501    0  0.74928866348E+02 -0.51494559376E+02 -0.90295564230E+03  0.92364685073E+03  0.17183884383E+03 0.  0.
         24    2    3    3    0    0  0.44644385832E+01 -0.45306856175E+01 -0.19121829549E+03  0.20687423556E+03  0.78689608486E+02 0.  0.
         -6    2    1    2    0  502 -0.74928866348E+02  0.51494559376E+02  0.11863803799E+03  0.22835988928E+03  0.17264770579E+03 0.  0.
        -24    2    5    5    0    0 -0.11236288802E+03  0.44201924338E+02  0.12465516318E+03  0.18946536139E+03  0.76019633890E+02 0.  0.
          5    1    3    3  501    0  0.70464427765E+02 -0.46963873758E+02 -0.71173734681E+03  0.71677261517E+03  0.47000000000E+01 0. -1.
        -11    1    4    4    0    0  0.41349947815E+02 -0.53034229225E+01 -0.91486354570E+02  0.10053704567E+03  0.00000000000E+00 0.  1.
         12    1    4    4    0    0 -0.36885509232E+02  0.77273730502E+00 -0.99731940920E+02  0.10633718989E+03  0.00000000000E+00 0. -1.
         -5    1    5    5    0  502  0.37434021676E+02  0.72926350374E+01 -0.60171251881E+01  0.38894527895E+02  0.47000000000E+01 0.  1.
         13    1    6    6    0    0 -0.59154660954E+02  0.62243879155E+02  0.66548256002E+02  0.10863813687E+03  0.00000000000E+00 0. -1.
        -14    1    6    6    0    0 -0.53208227070E+02 -0.18041954817E+02  0.58106907180E+02  0.80827224520E+02  0.00000000000E+00 0.  1.
</event>
<event>
12    1  0.1630640E-001  0.2127653E+03  0.7818608E-02  0.1139526E+00
         21   -1    0    0  503  502  0.00000000000E+00  0.00000000000E+00  0.24456957499E+04  0.24456957499E+04  0.00000000000E+00 0. -1.
         21   -1    0    0  501  503 -0.00000000000E+00 -0.00000000000E+00 -0.23209350136E+02  0.23209350136E+02  0.00000000000E+00 0.  1.
          6    2    1    2  501    0  0.94821752743E+02  0.81817259712E+02  0.65383428274E+03  0.68758150620E+03  0.17199950466E+03 0.  0.
         24    2    3    3    0    0  0.11530647409E+02  0.79980120871E+02  0.49802932237E+03  0.51083858843E+03  0.79956750323E+02 0.  0.
         -6    2    1    2    0  502 -0.94821752743E+02 -0.81817259712E+02  0.17686521170E+04  0.17813235938E+04  0.17116718763E+03 0.  0.
        -24    2    5    5    0    0 -0.12757060278E+03 -0.46365731910E+02  0.11441530413E+04  0.11549447280E+04  0.79919353083E+02 0.  0.
          5    1    3    3  501    0  0.83291105335E+02  0.18371388406E+01  0.15580496037E+03  0.17674291777E+03  0.47000000000E+01 0. -1.
        -13    1    4    4    0    0 -0.62975982766E+01 -0.11433489747E+02  0.20437919155E+02  0.24250628265E+02  0.00000000000E+00 0.  1.
         14    1    4    4    0    0  0.17828245685E+02  0.91413610619E+02  0.47759140322E+03  0.48658796016E+03  0.00000000000E+00 0. -1.
         -5    1    5    5    0  502  0.32748850038E+02 -0.35451527802E+02  0.62449907571E+03  0.62637886583E+03  0.47000000000E+01 0.  1.
         11    1    6    6    0    0 -0.59277742665E+02 -0.83139562652E+01  0.79004997034E+03  0.79231428630E+03  0.00000000000E+00 0. -1.
        -12    1    6    6    0    0 -0.68292860116E+02 -0.38051775645E+02  0.35410307096E+03  0.36263044169E+03  0.00000000000E+00 0.  1.
</event>
<event>
12    1  0.1630640E-001  0.3041501E+03  0.7818608E-02  0.1083402E+00
         21   -1    0    0  501  502  0.00000000000E+00  0.00000000000E+00  0.55415897999E+03  0.55415897999E+03  0.00000000000E+00 0.  1.
         21   -1    0    0  502  503 -0.00000000000E+00 -0.00000000000E+00 -0.32975262387E+03  0.32975262387E+03  0.00000000000E+00 0. -1.
         -6    2    1    2    0  503 -0.14613514874E+03 -0.20171466738E+03 -0.19911057831E+03  0.36352754863E+03  0.17453643598E+03 0.  0.
        -24    2    3    3    0    0 -0.13272325268E+03 -0.20391016560E+03 -0.21970649917E+03  0.33840821096E+03  0.83990202020E+02 0.  0.
          6    2    1    2  501    0  0.14613514874E+03  0.20171466738E+03  0.42351693443E+03  0.52038405524E+03  0.17143127621E+03 0.  0.
         24    2    5    5    0    0  0.83222721238E+02  0.14175370478E+03  0.38335776454E+03  0.42452927186E+03  0.79005018072E+02 0.  0.
          5    1    5    5  501    0  0.62912427507E+02  0.59960962597E+02  0.40159169883E+02  0.95854783376E+02  0.47000000000E+01 0. -1.
        -13    1    6    6    0    0  0.63655715842E+02  0.81065601121E+02  0.14573850300E+03  0.17850320194E+03  0.00000000000E+00 0.  1.
         14    1    6    6    0    0  0.19567005395E+02  0.60688103660E+02  0.23761926154E+03  0.24602606992E+03  0.00000000000E+00 0. -1.
         -5    1    3    3    0  503 -0.13411896068E+02  0.21954982197E+01  0.20595920861E+02  0.25119337664E+02  0.47000000000E+01 0.  1.
         11    1    4    4    0    0 -0.39646655223E+02 -0.13711122076E+03 -0.11729931911E+03  0.18474434874E+03  0.00000000000E+00 0. -1.
        -12    1    4    4    0    0 -0.93076597453E+02 -0.66798944837E+02 -0.10240718006E+03  0.15366386222E+03  0.00000000000E+00 0.  1.
</event>
<event>
12    1  0.1630640E-001  0.2236974E+03  0.7818608E-02  0.1131248E+00
         21   -1    0    0  503  502  0.00000000000E+00  0.00000000000E+00  0.61439907492E+02  0.61439907492E+02  0.00000000000E+00 0.  1.
         21   -1    0    0  501  503 -0.00000000000E+00 -0.00000000000E+00 -0.19621867045E+04  0.19621867045E+04  0.00000000000E+00 0. -1.
          6    2    1    2  501    0 -0.96830157449E+02 -0.10442627089E+03 -0.17243830152E+04  0.17387675400E+04  0.17185706191E+03 0.  0.
         24    2    3    3    0    0 -0.58407562007E+02 -0.20463778878E+02 -0.42243110554E+03  0.43353696233E+03  0.75339559565E+02 0.  0.
         -6    2    1    2    0  502  0.96830157449E+02  0.10442627089E+03 -0.17636378188E+03  0.28485907203E+03  0.17250965745E+03 0.  0.
        -24    2    5    5    0    0  0.62683486989E+02  0.13361421116E+03 -0.98563483751E+02  0.19489848427E+03  0.80552354883E+02 0.  0.
          5    1    3    3  501    0 -0.38422595442E+02 -0.83962492014E+02 -0.13019519096E+04  0.13052305777E+04  0.47000000000E+01 0. -1.
        -13    1    4    4    0    0 -0.94247036398E+01 -0.33227599815E+02 -0.76670815628E+02  0.84091095826E+02  0.00000000000E+00 0.  1.
         14    1    4    4    0    0 -0.48982858368E+02  0.12763820937E+02 -0.34576028991E+03  0.34944586651E+03  0.00000000000E+00 0. -1.
         -5    1    5    5    0  502  0.34146670460E+02 -0.29187940267E+02 -0.77800298131E+02  0.89960587758E+02  0.47000000000E+01 0.  1.
         13    1    6    6    0    0 -0.15955784192E+02  0.46961153228E+01 -0.14508928928E+02  0.22071464993E+02  0.00000000000E+00 0. -1.
        -14    1    6    6    0    0  0.78639271181E+02  0.12891809584E+03 -0.84054554823E+02  0.17282701928E+03  0.00000000000E+00 0.  1.
</event>
<event>
12    1  0.1630640E-001  0.2201061E+03  0.7818608E-02  0.1134000E+00
         21   -1    0    0  501  502  0.00000000000E+00  0.00000000000E+00  0.19064450825E+04  0.19064450825E+04  0.00000000000E+00 0.  1.
         21   -1    0    0  502  503 -0.00000000000E+00 -0.00000000000E+00 -0.58876325167E+02  0.58876325167E+02  0.00000000000E+00 0. -1.
         -6    2    1    2    0  503 -0.94704958024E+02 -0.97610537576E+02  0.18065626890E+03  0.28393984874E+03  0.17172158888E+03 0.  0.
        -24    2    3    3    0    0 -0.89584596650E+02  0.18848567020E+01  0.94236667993E+02  0.15197019691E+03  0.78647558842E+02 0.  0.
          6    2    1    2  501    0  0.94704958024E+02  0.97610537576E+02  0.16669124884E+04  0.16813815589E+04  0.17306026839E+03 0.  0.
         24    2    5    5    0    0  0.79235106247E+02  0.10369423732E+03  0.80994496807E+03  0.82423994363E+03  0.79560897825E+02 0.  0.
          5    1    5    5  501    0  0.15469851777E+02 -0.60836997458E+01  0.85696752035E+03  0.85714161529E+03  0.47000000000E+01 0. -1.
        -13    1    6    6    0    0  0.73085411517E+02  0.74502497086E+02  0.75057614320E+03  0.75779723290E+03  0.00000000000E+00 0.  1.
         14    1    6    6    0    0  0.61496947301E+01  0.29191740235E+02  0.59368824870E+02  0.66442710734E+02  0.00000000000E+00 0. -1.
         -5    1    3    3    0  503 -0.51203613736E+01 -0.99495394278E+02  0.86419600907E+02  0.13196965183E+03  0.47000000000E+01 0.  1.
         13    1    4    4    0    0 -0.22972808560E+02  0.35448730501E+02  0.20012941023E+02  0.46742702486E+02  0.00000000000E+00 0. -1.
        -14    1    4    4    0    0 -0.66611788090E+02 -0.33563873799E+02  0.74223726970E+02  0.10522749442E+03  0.00000000000E+00 0.  1.
</event>
<event>
12    1  0.1630640E-001  0.1855515E+03  0.7818608E-02  0.1162555E+00
         21   -1    0    0  503  502  0.00000000000E+00  0.00000000000E+00  0.21709408127E+03  0.21709408127E+03  0.00000000000E+00 0.  1.
         21   -1    0    0  501  503 -0.00000000000E+00 -0.00000000000E+00 -0.24299380588E+03  0.24299380588E+03  0.00000000000E+00 0.  1.
          6    2    1    2  501    0 -0.64082542152E+02 -0.26383792895E+02 -0.14858228963E+03  0.23764607826E+03  0.17203570845E+03 0.  0.
         24    2    3    3    0    0 -0.37923137328E+02 -0.21008581495E+02 -0.46165592796E+01  0.91148880762E+02  0.80045493336E+02 0.  0.
         -6    2    1    2    0  502  0.64082542152E+02  0.26383792895E+02  0.12268256502E+03  0.22244180889E+03  0.17212399556E+03 0.  0.
        -24    2    5    5    0    0  0.92412135730E+02  0.78928450793E+01  0.13871496205E+03  0.18471106840E+03  0.79208826914E+02 0.  0.
          5    1    3    3  501    0 -0.26159404824E+02 -0.53752113996E+01 -0.14396573035E+03  0.14649719749E+03  0.47000000000E+01 0. -1.
        -13    1    4    4    0    0 -0.32862431248E+02  0.97943017365E+01 -0.33992601489E+02  0.48284207460E+02  0.00000000000E+00 0.  1.
         14    1    4    4    0    0 -0.50607060793E+01 -0.30802883232E+02  0.29376042210E+02  0.42864673302E+02  0.00000000000E+00 0. -1.
         -5    1    5    5    0  502 -0.28329593579E+02  0.18490947815E+02 -0.16032397027E+02  0.37730740489E+02  0.47000000000E+01 0.  1.
         11    1    6    6    0    0  0.39155113906E+01 -0.23774430164E+02  0.11932434075E+02  0.26887501595E+02  0.00000000000E+00 0. -1.
        -12    1    6    6    0    0  0.88496624340E+02  0.31667275243E+02  0.12678252797E+03  0.15782356681E+03  0.00000000000E+00 0.  1.
</event>
<event>
12    1  0.1630640E-001  0.3409636E+03  0.7818608E-02  0.1066457E+00
         21   -1    0    0  501  502  0.00000000000E+00  0.00000000000E+00  0.89421163054E+03  0.89421163054E+03  0.00000000000E+00 0. -1.
         21   -1    0    0  502  503 -0.00000000000E+00 -0.00000000000E+00 -0.21787502108E+03  0.21787502108E+03  0.00000000000E+00 0.  1.
         -6    2    1    2    0  503  0.68218722509E+02 -0.28526101815E+03 -0.15652873476E+02  0.34065575229E+03  0.17255053330E+03 0.  0.
        -24    2    3    3    0    0  0.55667103135E+02 -0.57202202176E+02 -0.20491734614E+02  0.11215220468E+03  0.76074223770E+02 0.  0.
          6    2    1    2  501    0 -0.68218722509E+02  0.28526101815E+03  0.69198948294E+03  0.77143089932E+03  0.17386358260E+03 0.  0.
         24    2    5    5    0    0  0.20100271810E+02  0.14446843218E+03  0.27290957735E+03  0.32057299012E+03  0.83739212809E+02 0.  0.
          5    1    5    5  501    0 -0.88318994319E+02  0.14079258597E+03  0.41907990559E+03  0.45085790920E+03  0.47000000000E+01 0. -1.
        -11    1    6    6    0    0  0.28712536216E+02  0.25372979302E+02  0.25997698308E+02  0.46304191299E+02  0.00000000000E+00 0.  1.
         12    1    6    6    0    0 -0.86122644058E+01  0.11909545288E+03  0.24691187904E+03  0.27426879882E+03  0.00000000000E+00 0. -1.
         -5    1    3    3    0  503  0.12551619374E+02 -0.22805881598E+03  0.48388611384E+01  0.22850354761E+03  0.47000000000E+01 0.  1.
         13    1    4    4    0    0  0.65873768683E+02 -0.31929256193E+02  0.68771824888E+01  0.73526365614E+02  0.00000000000E+00 0. -1.
        -14    1    4    4    0    0 -0.10206665547E+02 -0.25272945983E+02 -0.27368917103E+02  0.38625839067E+02  0.00000000000E+00 0.  1.
</event>
<event>
12    1  0.1630640E-001  0.1997168E+03  0.7818608E-02  0.1150128E+00
         21   -1    0    0  503  502  0.00000000000E+00  0.00000000000E+00  0.21488403269E+03  0.21488403269E+03  0.00000000000E+00 0. -1.
         21   -1    0    0  501  503 -0.00000000000E+00 -0.00000000000E+00 -0.35245777841E+03  0.35245777841E+03  0.00000000000E+00 0.  1.
          6    2    1    2  501    0 -0.22474908276E+02  0.99050633144E+02 -0.26427378264E+03  0.33082609360E+03  0.17114065146E+03 0.  0.
         24    2    3    3    0    0 -0.75257370429E+01  0.44653104449E+02 -0.40322206905E+02  0.99830493803E+02  0.79307696148E+02 0.  0.
         -6    2    1    2    0  502  0.22474908276E+02 -0.99050633144E+02  0.12670003693E+03  0.23651571751E+03  0.17196114632E+03 0.  0.
        -24    2    5    5    0    0  0.73829659025E+01 -0.82838890507E+02  0.15931265437E+03  0.19681357474E+03  0.80238839683E+02 0.  0.
          5    1    3    3  501    0 -0.14949171233E+02  0.54397528695E+02 -0.22395157574E+03  0.23099559979E+03  0.47000000000E+01 0. -1.
        -13    1    4    4    0    0  0.42273131300E+01  0.21339419446E+02 -0.62119801487E+02  0.65818771907E+02  0.00000000000E+00 0.  1.
         14    1    4    4    0    0 -0.11753050173E+02  0.23313685002E+02  0.21797594582E+02  0.34011721895E+02  0.00000000000E+00 0. -1.
         -5    1    5    5    0  502  0.15091942373E+02 -0.16211742637E+02 -0.32612617443E+02  0.39702142768E+02  0.47000000000E+01 0.  1.
         11    1    6    6    0    0 -0.53441394494E+01 -0.93575995353E+02  0.10868599585E+03  0.14351889223E+03  0.00000000000E+00 0. -1.
        -12    1    6    6    0    0  0.12727105352E+02  0.10737104845E+02  0.50626658519E+02  0.53294682511E+02  0.00000000000E+00 0.  1.
</event>
<event>
12    1  0.1630640E-001  0.1827959E+03  0.7818608E-02  0.1165581E+00
         21   -1    0    0  501  502  0.00000000000E+00  0.00000000000E+00  0.10154700343E+03  0.10154700343E+03  0.00000000000E+00 0. -1.
         21   -1    0    0  502  503 -0.00000000000E+00 -0.00000000000E+00 -0.32578340513E+03  0.32578340513E+03  0.00000000000E+00 0. -1.
         -6    2    1    2    0  503  0.55894624593E+01 -0.63289350598E+02 -0.11757824040E+03  0.21734528869E+03  0.17139879786E+03 0.  0.
        -24    2    3    3    0    0  0.60323612377E+02 -0.36309185946E+01 -0.55005388482E+02  0.11491283546E+03  0.80791368422E+02 0.  0.
          6    2    1    2  501    0 -0.55894624593E+01  0.63289350598E+02 -0.10665816130E+03  0.20998511987E+03  0.16935466691E+03 0.  0.
         24    2    5    5    0    0  0.57613467280E+02  0.40759668910E+02 -0.89780439739E+02  0.14063712516E+03  0.82082954335E+02 0.  0.
          5    1    5    5  501    0 -0.63202929739E+02  0.22529681687E+02 -0.16877721557E+02  0.69347994704E+02  0.47000000000E+01 0. -1.
        -11    1    6    6    0    0 -0.49157212216E+01 -0.19046450826E+02 -0.69679125514E+01  0.20868239253E+02  0.00000000000E+00 0.  1.
         12    1    6    6    0    0  0.62529188501E+02  0.59806119737E+02 -0.82812527188E+02  0.11976888591E+03  0.00000000000E+00 0. -1.
         -5    1    3    3    0  503 -0.54734149918E+02 -0.59658432003E+02 -0.62572851923E+02  0.10243245323E+03  0.47000000000E+01 0.  1.
         11    1    4    4    0    0  0.38294213907E+02 -0.22411915929E+02 -0.69563688800E+02  0.82509681819E+02  0.00000000000E+00 0. -1.
        -12    1    4    4    0    0  0.22029398470E+02  0.18780997334E+02  0.14558300318E+02  0.32403153642E+02  0.00000000000E+00 0.  1.
</event>
<event>
12    1  0.1630640E-001  0.1874233E+03  0.7818608E-02  0.1161505E+00
         21   -1    0    0  503  502  0.00000000000E+00  0.00000000000E+00  0.47697341094E+03  0.47697341094E+03  0.00000000000E+00 0. -1.
         21   -1    0    0  501  503 -0.00000000000E+00 -0.00000000000E+00 -0.72585136663E+02  0.72585136663E+02  0.00000000000E+00 0. -1.
          6    2    1    2  501    0 -0.23003586493E+02  0.64586446191E+02  0.21170747630E+03  0.28075866717E+03  0.17118644704E+03 0.  0.
         24    2    3    3    0    0  0.26820300230E+02 -0.13250102109E+02  0.64724149998E+02  0.10707177605E+03  0.79876504196E+02 0.  0.
         -6    2    1    2    0  502  0.23003586493E+02 -0.64586446191E+02  0.19268079798E+03  0.26879988043E+03  0.17443311550E+03 0.  0.
        -24    2    5    5    0    0 -0.25969766257E+02 -0.68165062143E+02  0.51952727066E+02  0.11967685835E+03  0.79388664918E+02 0.  0.
          5    1    3    3  501    0 -0.49823886723E+02  0.77836548301E+02  0.14698332630E+03  0.17368689113E+03  0.47000000000E+01 0. -1.
        -13    1    4    4    0    0 -0.99981026624E+01 -0.25453246845E+02  0.62499080961E+02  0.68219974734E+02  0.00000000000E+00 0.  1.
         14    1    4    4    0    0  0.36818402893E+02  0.12203144736E+02  0.22250690369E+01  0.38851801313E+02  0.00000000000E+00 0. -1.
         -5    1    5    5    0  502  0.48973352750E+02  0.35786159520E+01  0.14072807091E+03  0.14912302208E+03  0.47000000000E+01 0.  1.
         11    1    6    6    0    0  0.14444287832E+02 -0.61161447540E+02  0.46762822119E+02  0.78333400595E+02  0.00000000000E+00 0. -1.
        -12    1    6    6    0    0 -0.40414054089E+02 -0.70036146033E+01  0.51899049470E+01  0.41343457751E+02  0.00000000000E+00 0.  1.
</event>
<event>
12    1  0.1630640E-001  0.2127994E+03  0.7818608E-02  0.1139614E+00
         21   -1    0    0  503  502  0.00000000000E+00  0.00000000000E+00  0.11321298942E+03  0.11321298942E+03  0.00000000000E+00 0.  1.
         21   -1    0    0  501  503 -0.00000000000E+00 -0.00000000000E+00 -0.41036209984E+03  0.41036209984E+03  0.00000000000E+00 0.  1.
          6    2    1    2  501    0 -0.93770090500E+02 -0.79191464694E+02 -0.19427198087E+03  0.28721247118E+03  0.17229417604E+03 0.  0.
         24    2    3    3    0    0 -0.87348313598E+02 -0.17502677295E+02 -0.19005248638E+03  0.22486954983E+03  0.80686400698E+02 0.  0.
         -6    2    1    2    0  502  0.93770090500E+02  0.79191464694E+02 -0.10287712955E+03  0.23636261808E+03  0.17383746860E+03 0.  0.
        -24    2    5    5    0    0  0.92658128623E+02  0.77760289777E+02 -0.13857992490E+03  0.20030621343E+03  0.79284248677E+02 0.  0.
          5    1    3    3  501    0 -0.64217769021E+01 -0.61688787399E+02 -0.42194944880E+01  0.62342921355E+02  0.47000000000E+01 0. -1.
        -13    1    4    4    0    0 -0.28827184768E+02 -0.41405709548E+02 -0.49145733885E+02  0.70432538815E+02  0.00000000000E+00 0.  1.
         14    1    4    4    0    0 -0.58521128829E+02  0.23903032253E+02 -0.14090675250E+03  0.15443701101E+03  0.00000000000E+00 0. -1.
         -5    1    5    5    0  502  0.11119618767E+01  0.14311749172E+01  0.35702795346E+02  0.36056404651E+02  0.47000000000E+01 0.  1.
         11    1    6    6    0    0  0.49678364652E+02  0.24632694672E+01 -0.84709979173E+02  0.98233335393E+02  0.00000000000E+00 0. -1.
        -12    1    6    6    0    0  0.42979763971E+02  0.75297020309E+02 -0.53869945723E+02  0.10207287804E+03  0.00000000000E+00 0.  1.
</event>
<event>
12    1  0.1630640E-001  0.2150829E+03  0.7818608E-02  0.1137630E+00
         21   -1    0    0  503  502  0.00000000000E+00  0.00000000000E+00  0.27500570988E+03  0.27500570988E+03  0.00000000000E+00 0. -1.
         21   -1    0    0  501  503 -0.00000000000E+00 -0.00000000000E+00 -0.79040017442E+03  0.79040017442E+03  0.00000000000E+00 0.  1.
          6    2    1    2  501    0 -0.10518861155E+03  0.76916810022E+02 -0.73035089814E+03  0.76132215064E+03  0.17093315354E+03 0.  0.
         24    2    3    3    0    0 -0.44018395837E+01 -0.76187470536E+00 -0.13116125173E+03  0.14875193113E+03  0.70027897406E+02 0.  0.
         -6    2    1    2    0  502  0.10518861155E+03 -0.76916810022E+02  0.21495643361E+03  0.30408373365E+03  0.17111343916E+03 0.  0.
        -24    2    5    5    0    0  0.96737155560E+02  0.44578604566E+01  0.97068606702E+02  0.16051182193E+03  0.83449270734E+02 0.  0.
          5    1    3    3  501    0 -0.10078677197E+03  0.77678684727E+02 -0.59918964642E+03  0.61257021952E+03  0.47000000000E+01 0. -1.
        -11    1    4    4    0    0  0.30797193538E+02 -0.12200756518E+02 -0.64237474223E+02  0.72275712961E+02  0.00000000000E+00 0.  1.
         12    1    4    4    0    0 -0.35199033122E+02  0.11438881813E+02 -0.66923777502E+02  0.76476218166E+02  0.00000000000E+00 0. -1.
         -5    1    5    5    0  502  0.84514559912E+01 -0.81374670478E+02  0.11788782691E+03  0.14357191173E+03  0.47000000000E+01 0.  1.
         11    1    6    6    0    0  0.98962940642E+02  0.42464362204E+01  0.10963101454E+03  0.14775200570E+03  0.00000000000E+00 0. -1.
        -12    1    6    6    0    0 -0.22257850816E+01  0.21142423616E+00 -0.12562407836E+02  0.12759816224E+02  0.00000000000E+00 0.  1.
</event>
<event>
12    1  0.1630640E-001  0.2015678E+03  0.7818608E-02  0.1148771E+00
         21   -1    0    0  503  502  0.00000000000E+00  0.00000000000E+00  0.17599838563E+03  0.17599838563E+03  0.00000000000E+00 0.  1.
         21   -1    0    0  501  503 -0.00000000000E+00 -0.00000000000E+00 -0.33844988205E+03  0.33844988205E+03  0.00000000000E+00 0.  1.
          6    2    1    2  501    0 -0.59321392134E+02 -0.85029151340E+02 -0.22775603896E+03  0.30414205333E+03  0.17286003348E+03 0.  0.
         24    2    3    3    0    0  0.18074156513E+02 -0.79784412823E+02 -0.17196716571E+03  0.20847561924E+03  0.84836018713E+02 0.  0.
         -6    2    1    2    0  502  0.59321392134E+02  0.85029151340E+02  0.65304542545E+02  0.21030621435E+03  0.17092406611E+03 0.  0.
        -24    2    5    5    0    0  0.32993414249E+02 -0.29858244274E+02  0.45824060160E+02  0.90749302026E+02  0.64463254601E+02 0.  0.
          5    1    3    3  501    0 -0.77395548647E+02 -0.52447385174E+01 -0.55788873256E+02  0.95666434091E+02  0.47000000000E+01 0. -1.
        -13    1    4    4    0    0  0.11355030827E+02 -0.72431680563E+02 -0.56451639992E+02  0.92531468874E+02  0.00000000000E+00 0.  1.
         14    1    4    4    0    0  0.67191256860E+01 -0.73527322599E+01 -0.11551552572E+03  0.11594415036E+03  0.00000000000E+00 0. -1.
         -5    1    5    5    0  502  0.26327977884E+02  0.11488739561E+03  0.19480482385E+02  0.11955691232E+03  0.47000000000E+01 0.  1.
         13    1    6    6    0    0 -0.80258237445E+01 -0.34466814389E+02  0.11950151678E+02  0.37352125322E+02  0.00000000000E+00 0. -1.
        -14    1    6    6    0    0  0.41019237994E+02  0.46085701159E+01  0.33873908482E+02  0.53397176704E+02  0.00000000000E+00 0.  1.
</event>
<event>
12    1  0.1630640E-001  0.1927928E+03  0.7818608E-02  0.1156135E+00
         21   -1    0    0  503  502  0.00000000000E+00  0.00000000000E+00  0.46972931033E+02  0.46972931033E+02  0.00000000000E+00 0.  1.
         21   -1    0    0  501  503 -0.00000000000E+00 -0.00000000000E+00 -0.78933886072E+03  0.78933886072E+03  0.00000000000E+00 0.  1.
          6    2    1    2  501    0 -0.44232760535E+02 -0.74812746175E+02 -0.38653828675E+03  0.43161145363E+03  0.17123993600E+03 0.  0.
         24    2    3    3    0    0 -0.44185512317E+02 -0.93823623897E+02 -0.39017267145E+03  0.41169376159E+03  0.80633788741E+02 0.  0.
         -6    2    1    2    0  502  0.44232760535E+02  0.74812746175E+02 -0.35582764293E+03  0.40470033812E+03  0.17209174328E+03 0.  0.
        -24    2    5    5    0    0 -0.32858813789E+02  0.33558275509E+02 -0.11242553840E+03  0.14602734635E+03  0.80489904327E+02 0.  0.
          5    1    3    3  501    0 -0.47248218243E-01  0.19010877722E+02  0.36343846923E+01  0.19917692042E+02  0.47000000000E+01 0. -1.
        -13    1    4    4    0    0 -0.55558140089E+02 -0.31254628732E+02 -0.14473495640E+03  0.15815108710E+03  0.00000000000E+00 0.  1.
         14    1    4    4    0    0  0.11372627772E+02 -0.62568995165E+02 -0.24543771504E+03  0.25354267448E+03  0.00000000000E+00 0. -1.
         -5    1    5    5    0  502  0.77091574324E+02  0.41254470666E+02 -0.24340210453E+03  0.25867299177E+03  0.47000000000E+01 0.  1.
         11    1    6    6    0    0 -0.15231032321E+02  0.59323920622E+02 -0.82784405759E+02  0.10297849164E+03  0.00000000000E+00 0. -1.
        -12    1    6    6    0    0 -0.17627781468E+02 -0.25765645113E+02 -0.29641132638E+02  0.43048854707E+02  0.00000000000E+00 0.  1.
</event>
<event>
12    1  0.1630640E-001  0.1814840E+03  0.7818608E-02  0.1166573E+00
         21   -1    0    0  503  502  0.00000000000E+00  0.00000000000E+00  0.19436693840E+03  0.19436693840E+03  0.00000000000E+00 0. -1.
         21   -1    0    0  501  503 -0.00000000000E+00 -0.00000000000E+00 -0.19069297517E+03  0.19069297517E+03  0.00000000000E+00 0. -1.
          6    2    1    2  501    0  0.68631878844E+01  0.57323509248E+02 -0.63568925908E+02  0.19229522662E+03  0.17205626341E+03 0.  0.
         24    2    3    3    0    0 -0.61930135516E+01 -0.32492808960E+02 -0.28319647551E+02  0.94816833950E+02  0.84226441881E+02 0.  0.
         -6    2    1    2    0  502 -0.68631878844E+01 -0.57323509248E+02  0.67242889138E+02  0.19276468696E+03  0.17118273960E+03 0.  0.
        -24    2    5    5    0    0  0.10641322881E+02 -0.92082775467E+02  0.85810099169E+02  0.14938905124E+03  0.79757383494E+02 0.  0.
          5    1    3    3  501    0  0.13056201436E+02  0.89816318208E+02 -0.35249278357E+02  0.97478392667E+02  0.47000000000E+01 0. -1.
        -13    1    4    4    0    0  0.12416354543E+02  0.25721904892E+02 -0.32053471098E+01  0.28741198679E+02  0.00000000000E+00 0.  1.
         14    1    4    4    0    0 -0.18609368095E+02 -0.58214713852E+02 -0.25114300441E+02  0.66075635271E+02  0.00000000000E+00 0. -1.
         -5    1    5    5    0  502 -0.17504510765E+02  0.34759266219E+02 -0.18567210031E+02  0.43375635714E+02  0.47000000000E+01 0.  1.
         13    1    6    6    0    0 -0.27373420992E+02 -0.32634402889E+02  0.61389107213E+02  0.74719013063E+02  0.00000000000E+00 0. -1.
        -14    1    6    6    0    0  0.38014743873E+02 -0.59448372578E+02  0.24420991957E+02  0.74670038182E+02  0.00000000000E+00 0.  1.
</event>
<event>
12    1  0.1630640E-001  0.1969958E+03  0.7818608E-02  0.1156607E+00
         21   -1    0    0  501  502  0.00000000000E+00  0.00000000000E+00  0.10150653257E+03  0.10150653257E+03  0.00000000000E+00 0.  1.
         21   -1    0    0  502  503 -0.00000000000E+00 -0.00000000000E+00 -0.54088196314E+03  0.54088196314E+03  0.00000000000E+00 0. -1.
         -6    2    1    2    0  503  0.56386419072E+02  0.26578773066E+02 -0.40502303901E+03  0.44241995384E+03  0.16675099398E+03 0.  0.
        -24    2    3    3    0    0  0.70310167487E+02  0.17004452559E+02 -0.13996502935E+03  0.17678227416E+03  0.80181618565E+02 0.  0.
          6    2    1    2  501    0 -0.56386419072E+02 -0.26578773066E+02 -0.34352391562E+02  0.19996854187E+03  0.18687287523E+03 0.  0.
         24    2    5    5    0    0 -0.90737033113E+02 -0.37913007773E+02  0.25992215490E+02  0.12945619429E+03  0.80079370857E+02 0.  0.
          5    1    5    5  501    0  0.34350614040E+02  0.11334234707E+02 -0.60344607052E+02  0.70512347582E+02  0.47000000000E+01 0. -1.
        -11    1    6    6    0    0 -0.40784576345E+02 -0.31954632959E+02  0.51499473354E+02  0.73052556362E+02  0.00000000000E+00 0.  1.
         12    1    6    6    0    0 -0.49952456768E+02 -0.59583748146E+01 -0.25507257864E+02  0.56403637926E+02  0.00000000000E+00 0. -1.
         -5    1    3    3    0  503 -0.13923748415E+02  0.95743205067E+01 -0.26505800966E+03  0.26563767968E+03  0.47000000000E+01 0.  1.
         11    1    4    4    0    0  0.60098472797E+02 -0.17872285137E+02 -0.51482736512E+02  0.81127782956E+02  0.00000000000E+00 0. -1.
        -12    1    4    4    0    0  0.10211694690E+02  0.34876737696E+02 -0.88482292838E+02  0.95654491200E+02  0.00000000000E+00 0.  1.
</event>
<event>
12    1  0.1630640E-001  0.1868108E+03  0.7818608E-02  0.1161767E+00
         21   -1    0    0  501  502  0.00000000000E+00  0.00000000000E+00  0.52203904782E+03  0.52203904782E+03  0.00000000000E+00 0.  1.
         21   -1    0    0  502  503 -0.00000000000E+00 -0.00000000000E+00 -0.95268287005E+02  0.95268287005E+02  0.00000000000E+00 0.  1.
         -6    2    1    2    0  503  0.45416121327E+01  0.71808320312E+02  0.42316374398E+02  0.18986910276E+03  0.17053603588E+03 0.  0.
        -24    2    3    3    0    0  0.67741720067E+02  0.30064731422E+02  0.16592403235E+02  0.10974049645E+03  0.79213887690E+02 0.  0.
          6    2    1    2  501    0 -0.45416121327E+01 -0.71808320312E+02  0.38445438642E+03  0.42743823206E+03  0.17239839294E+03 0.  0.
         24    2    5    5    0    0 -0.92659779920E+01 -0.11419998779E+03  0.32384043574E+03  0.35317172467E+03  0.82037453173E+02 0.  0.
          5    1    5    5  501    0  0.47243658592E+01  0.42391667482E+02  0.60613950671E+02  0.74266507394E+02  0.47000000000E+01 0. -1.
        -13    1    6    6    0    0 -0.41644750359E+02 -0.44273943738E+02  0.18007683957E+03  0.19005824233E+03  0.00000000000E+00 0.  1.
         14    1    6    6    0    0  0.32378772367E+02 -0.69926044055E+02  0.14376359617E+03  0.16311348234E+03  0.00000000000E+00 0. -1.
         -5    1    3    3    0  503 -0.63200107935E+02  0.41743588889E+02  0.25723971163E+02  0.80128606307E+02  0.47000000000E+01 0.  1.
         13    1    4    4    0    0  0.79151041700E+02  0.42778297134E+02  0.72320294480E+01  0.90261688206E+02  0.00000000000E+00 0. -1.
        -14    1    4    4    0    0 -0.11409321633E+02 -0.12713565711E+02  0.93603737867E+01  0.19478808245E+02  0.00000000000E+00 0.  1.
</event>
<event>
12    1  0.1630640E-001  0.1832470E+03  0.7818608E-02  0.1165255E+00
         21   -1    0    0  501  502  0.00000000000E+00  0.00000000000E+00  0.46229720239E+03  0.46229720239E+03  0.00000000000E+00 0. -1.
         21   -1    0    0  502  503 -0.00000000000E+00 -0.00000000000E+00 -0.25027395083E+03  0.25027395083E+03  0.00000000000E+00 0. -1.
         -6    2    1    2    0  503  0.55489631043E+02 -0.19464888703E+01 -0.19512811223E+03  0.26608295788E+03  0.17216931294E+03 0.  0.
        -24    2    3    3    0    0  0.24480962610E+02  0.58903396449E+02 -0.15882797024E+03  0.18859724068E+03  0.79206485957E+02 0.  0.
          6    2    1    2  501    0 -0.55489631043E+02  0.19464888703E+01  0.40715136379E+03  0.44648819534E+03  0.17463272194E+03 0.  0.
         24    2    5    5    0    0 -0.68635124432E+02  0.61746012280E+02  0.27159710949E+03  0.29767343514E+03  0.79505558065E+02 0.  0.
          5    1    5    5  501    0  0.13145493389E+02 -0.59799523410E+02  0.13555425429E+03  0.14881476020E+03  0.47000000000E+01 0. -1.
        -13    1    6    6    0    0 -0.22694456914E+02  0.57733099152E+02  0.83591443919E+02  0.10409456570E+03  0.00000000000E+00 0.  1.
         14    1    6    6    0    0 -0.45940667518E+02  0.40129131278E+01  0.18800566557E+03  0.19357886943E+03  0.00000000000E+00 0. -1.
         -5    1    3    3    0  503  0.31008668433E+02 -0.60849885320E+02 -0.36300141986E+02  0.77485717198E+02  0.47000000000E+01 0.  1.
         13    1    4    4    0    0 -0.25384100295E+02  0.37967158727E+01 -0.57198883532E+02  0.62693539352E+02  0.00000000000E+00 0. -1.
        -14    1    4    4    0    0  0.49865062905E+02  0.55106680577E+02 -0.10162908671E+03  0.12590370133E+03  0.00000000000E+00 0.  1.
</event>
<event>
12    1  0.1630640E-001  0.1831679E+03  0.7818608E-02  0.1165101E+00
         21   -1    0    0  501  502  0.00000000000E+00  0.00000000000E+00  0.93480650782E+02  0.93480650782E+02  0.00000000000E+00 0.  1.
         21   -1    0    0  502  503 -0.00000000000E+00 -0.00000000000E+00 -0.54836834352E+03  0.54836834352E+03  0.00000000000E+00 0.  1.
         -6    2    1    2    0  503 -0.56415644848E+02 -0.10084062125E+02 -0.41686473586E+03  0.45477622034E+03  0.17251315687E+03 0.  0.
        -24    2    3    3    0    0 -0.46130289511E+02  0.58902874461E+02 -0.28315656764E+03  0.30389563776E+03  0.81100953251E+02 0.  0.
          6    2    1    2  501    0  0.56415644848E+02  0.10084062125E+02 -0.38022956886E+02  0.18707277397E+03  0.17397144655E+03 0.  0.
         24    2    5    5    0    0  0.54574885034E+02 -0.50071819342E+02 -0.58098223823E+02  0.12345497131E+03  0.79875660636E+02 0.  0.
          5    1    5    5  501    0  0.18407598139E+01  0.60155881467E+02  0.20075266937E+02  0.63617802652E+02  0.47000000000E+01 0. -1.
        -11    1    6    6    0    0  0.24840641195E+02 -0.36072127538E+02  0.12529701808E+02  0.45554903880E+02  0.00000000000E+00 0.  1.
         12    1    6    6    0    0  0.29734243839E+02 -0.13999691804E+02 -0.70627925631E+02  0.77900067434E+02  0.00000000000E+00 0. -1.
         -5    1    3    3    0  503 -0.10285355337E+02 -0.68986936586E+02 -0.13370816821E+03  0.15088058258E+03  0.47000000000E+01 0.  1.
         11    1    4    4    0    0 -0.56361179146E+02  0.60225321144E+02 -0.28163821499E+03  0.29346849228E+03  0.00000000000E+00 0. -1.
        -12    1    4    4    0    0  0.10230889635E+02 -0.13224466827E+01 -0.15183526558E+01  0.10427145474E+02  0.00000000000E+00 0.  1.
</event>
<event>
12    1  0.1630640E-001  0.1838531E+03  0.7818608E-02  0.1164353E+00
         21   -1    0    0  503  502  0.00000000000E+00  0.00000000000E+00  0.36226809765E+04  0.36226809765E+04  0.00000000000E+00 0. -1.
         21   -1    0    0  501  503 -0.00000000000E+00 -0.00000000000E+00 -0.35489303102E+02  0.35489303102E+02  0.00000000000E+00 0. -1.
          6    2    1    2  501    0 -0.66093186829E+02  0.93095512648E+01  0.22055696004E+03  0.28651916270E+03  0.17027295992E+03 0.  0.
         24    2    3    3    0    0 -0.84332495366E+02 -0.35535982824E+02  0.20002939060E+03  0.23372460416E+03  0.78997833117E+02 0.  0.
         -6    2    1    2    0  502  0.66093186829E+02 -0.93095512648E+01  0.33666347133E+04  0.33716511169E+04  0.17130961401E+03 0.  0.
        -24    2    5    5    0    0  0.75796992540E+02  0.11390503340E+02  0.32797862054E+04  0.32817210916E+04  0.82588393132E+02 0.  0.
          5    1    3    3  501    0  0.18239308537E+02  0.44845534089E+02  0.20527569440E+02  0.52794558533E+02  0.47000000000E+01 0. -1.
        -13    1    4    4    0    0 -0.26522997736E+02 -0.53510896463E+02  0.87415580507E+02  0.10586958564E+03  0.00000000000E+00 0.  1.
         14    1    4    4    0    0 -0.57809497631E+02  0.17974913639E+02  0.11261381009E+03  0.12785501852E+03  0.00000000000E+00 0. -1.
         -5    1    5    5    0  502 -0.97038057112E+01 -0.20700054604E+02  0.86848507970E+02  0.89930025256E+02  0.47000000000E+01 0.  1.
         13    1    6    6    0    0  0.91014133988E+01  0.24625668978E+02  0.19669439265E+04  0.19671191294E+04  0.00000000000E+00 0. -1.
        -14    1    6    6    0    0  0.66695579141E+02 -0.13235165638E+02  0.13128422789E+04  0.13146019622E+04  0.00000000000E+00 0.  1.
</event>
<event>
12    1  0.1630640E-001  0.2448635E+03  0.7818608E-02  0.1117030E+00
         21   -1    0    0  503  502  0.00000000000E+00  0.00000000000E+00  0.82682038097E+03  0.82682038097E+03  0.00000000000E+00 0.  1.
         21   -1    0    0  501  503 -0.00000000000E+00 -0.00000000000E+00 -0.79358621392E+02  0.79358621392E+02  0.00000000000E+00 0.  1.
          6    2    1    2  501    0  0.16797962866E+03  0.44975485811E+02  0.51236430875E+03  0.56672508854E+03  0.16858289099E+03 0.  0.
         24    2    3    3    0    0  0.13095718807E+03 -0.30758954264E+02  0.37196083278E+03  0.40289104878E+03  0.76618781569E+02 0.  0.
         -6    2    1    2    0  502 -0.16797962866E+03 -0.44975485811E+02  0.23509745083E+03  0.33945391382E+03  0.17238966980E+03 0.  0.
        -24    2    5    5    0    0 -0.11765964036E+03 -0.69529105640E+02  0.87909427316E+02  0.18190587119E+03  0.81753232743E+02 0.  0.
          5    1    3    3  501    0  0.37022440588E+02  0.75734440075E+02  0.14040347597E+03  0.16383403976E+03  0.47000000000E+01 0. -1.
        -13    1    4    4    0    0  0.85540866302E+02 -0.33525769765E+02  0.14681189470E+03  0.17319050053E+03  0.00000000000E+00 0.  1.
         14    1    4    4    0    0  0.45416321770E+02  0.27668155003E+01  0.22514893807E+03  0.22970054825E+03  0.00000000000E+00 0. -1.
         -5    1    5    5    0  502 -0.50319988305E+02  0.24553619829E+02  0.14718802351E+03  0.15754804263E+03  0.47000000000E+01 0.  1.
         11    1    6    6    0    0 -0.66982161763E+01 -0.42476369718E+02  0.37534018513E+02  0.57078109903E+02  0.00000000000E+00 0. -1.
        -12    1    6    6    0    0 -0.11096142418E+03 -0.27052735922E+02  0.50375408803E+02  0.12482776129E+03  0.00000000000E+00 0.  1.
</event>
<event>
12    1  0.1630640E-001  0.3164020E+03  0.7818608E-02  0.1077673E+00
         21   -1    0    0  501  502  0.00000000000E+00  0.00000000000E+00  0.14860984609E+03  0.14860984609E+03  0.00000000000E+00 0. -1.
         21   -1    0    0  502  503 -0.00000000000E+00 -0.00000000000E+00 -0.75264885900E+03  0.75264885900E+03  0.00000000000E+00 0.  1.
         -6    2    1    2    0  503  0.25416522726E+03  0.74905646159E+02 -0.14890175305E+03  0.34694818068E+03  0.16730358467E+03 0.  0.
        -24    2    3    3    0    0  0.10093015182E+03 -0.17883351775E+01 -0.14391138260E+02  0.12905336521E+03  0.79104819843E+02 0.  0.
          6    2    1    2  501    0 -0.25416522726E+03 -0.74905646159E+02 -0.45513725986E+03  0.55431052442E+03  0.17291446901E+03 0.  0.
         24    2    5    5    0    0 -0.13994548437E+03  0.24542846082E+02 -0.26522040287E+03  0.31135650645E+03  0.80086966008E+02 0.  0.
          5    1    5    5  501    0 -0.11421974289E+03 -0.99448492241E+02 -0.18991685699E+03  0.24295401796E+03  0.47000000000E+01 0. -1.
        -13    1    6    6    0    0 -0.11463108476E+03 -0.14337002776E+02 -0.17148489160E+03  0.20676775205E+03  0.00000000000E+00 0.  1.
         14    1    6    6    0    0 -0.25314399614E+02  0.38879848858E+02 -0.93735511266E+02  0.10458875440E+03  0.00000000000E+00 0. -1.
         -5    1    3    3    0  503  0.15323507543E+03  0.76693981336E+02 -0.13451061479E+03  0.21789481547E+03  0.47000000000E+01 0.  1.
         11    1    4    4    0    0  0.11450472677E+03  0.18551865728E+00 -0.12042014069E+02  0.11513634080E+03  0.00000000000E+00 0. -1.
        -12    1    4    4    0    0 -0.13574574949E+02 -0.19738538348E+01 -0.23491241911E+01  0.13917024411E+02  0.00000000000E+00 0.  1.
</event>
<event>
12    1  0.1630640E-001  0.1932822E+03  0.7818608E-02  0.1155646E+00
         21   -1    0    0  501  502  0.00000000000E+00  0.00000000000E+00  0.73175429824E+02  0.73175429824E+02  0.00000000000E+00 0.  1.
         21   -1    0    0  502  503 -0.00000000000E+00 -0.00000000000E+00 -0.53829018792E+03  0.53829018792E+03  0.00000000000E+00 0. -1.
         -6    2    1    2    0  503  0.76962503902E+02  0.36078897843E+02 -0.30335269531E+03  0.35942399707E+03  0.17302554159E+03 0.  0.
        -24    2    3    3    0    0  0.35386954298E+02  0.19289255550E+02 -0.49782583093E+02  0.10187728243E+03  0.79223501447E+02 0.  0.
          6    2    1    2  501    0 -0.76962503902E+02 -0.36078897843E+02 -0.16176206279E+03  0.25204162068E+03  0.17358888133E+03 0.  0.
         24    2    5    5    0    0 -0.57354298255E+02  0.27121207313E+02 -0.31989299265E+02  0.10629596835E+03  0.79059738203E+02 0.  0.
          5    1    5    5  501    0 -0.19608205647E+02 -0.63200105156E+02 -0.12977276353E+03  0.14574565233E+03  0.47000000000E+01 0. -1.
        -13    1    6    6    0    0 -0.21951224228E+02 -0.24658047432E+02  0.51313547963E+01  0.33409674502E+02  0.00000000000E+00 0.  1.
         14    1    6    6    0    0 -0.35403074027E+02  0.51779254745E+02 -0.37120654061E+02  0.72886293844E+02  0.00000000000E+00 0. -1.
         -5    1    3    3    0  503  0.41575549605E+02  0.16789642294E+02 -0.25357011221E+03  0.25754671464E+03  0.47000000000E+01 0.  1.
         11    1    4    4    0    0  0.36331004658E+02 -0.16562740940E+02  0.72105457044E+00  0.39934774402E+02  0.00000000000E+00 0. -1.
        -12    1    4    4    0    0 -0.94405035992E+00  0.35851996490E+02 -0.50503637663E+02  0.61942508026E+02  0.00000000000E+00 0.  1.
</event>
<event>
12    1  0.1630640E-001  0.1759878E+03  0.7818608E-02  0.1172232E+00
         21   -1    0    0  503  502  0.00000000000E+00  0.00000000000E+00  0.20405295774E+03  0.20405295774E+03  0.00000000000E+00 0.  1.
         21   -1    0    0  501  503 -0.00000000000E+00 -0.00000000000E+00 -0.15085343313E+03  0.15085343313E+03  0.00000000000E+00 0. -1.
          6    2    1    2  501    0 -0.17436056306E+02 -0.29920986402E+02  0.13981380528E+02  0.17460175719E+03  0.17056087807E+03 0.  0.
         24    2    3    3    0    0  0.14447117111E+02 -0.39097433729E+02  0.67266737018E+02  0.11165604130E+03  0.78771372552E+02 0.  0.
         -6    2    1    2    0  502  0.17436056306E+02  0.29920986402E+02  0.39218144084E+02  0.18030463368E+03  0.17254685339E+03 0.  0.
        -24    2    5    5    0    0  0.72734298049E+02  0.38808702793E+02  0.11262931182E+02  0.11753146289E+03  0.83008419004E+02 0.  0.
          5    1    3    3  501    0 -0.31883173417E+02  0.91764473267E+01 -0.53285356490E+02  0.62945715890E+02  0.47000000000E+01 0. -1.
        -13    1    4    4    0    0  0.41432181442E+01  0.23412244764E+02  0.29542452003E+02  0.37921707924E+02  0.00000000000E+00 0.  1.
         14    1    4    4    0    0  0.10303898967E+02 -0.62509678493E+02  0.37724285014E+02  0.73734333380E+02  0.00000000000E+00 0. -1.
         -5    1    5    5    0  502 -0.55298241743E+02 -0.88877163914E+01  0.27955212902E+02  0.62773170789E+02  0.47000000000E+01 0.  1.
         13    1    6    6    0    0  0.31871924709E+02  0.53203210070E+02 -0.18791621899E+02  0.64803751434E+02  0.00000000000E+00 0. -1.
        -14    1    6    6    0    0  0.40862373340E+02 -0.14394507276E+02  0.30054553080E+02  0.52727711458E+02  0.00000000000E+00 0.  1.
</event>
<event>
12    1  0.1630640E-001  0.1755817E+03  0.7818608E-02  0.1172784E+00
         21   -1    0    0  501  502  0.00000000000E+00  0.00000000000E+00  0.46189608634E+03  0.46189608634E+03  0.00000000000E+00 0. -1.
         21   -1    0    0  502  503 -0.00000000000E+00 -0.00000000000E+00 -0.66223655223E+02  0.66223655223E+02  0.00000000000E+00 0. -1.
         -6    2    1    2    0  503  0.24516192260E+02 -0.80361686177E+01  0.17788685562E+03  0.24994530927E+03  0.17367584902E+03 0.  0.
        -24    2    3    3    0    0 -0.43653852902E+02 -0.74145859368E+01  0.46006221695E+02  0.10141203681E+03  0.78785746284E+02 0.  0.
          6    2    1    2  501    0 -0.24516192260E+02  0.80361686177E+01  0.21778557550E+03  0.27817443229E+03  0.17112812218E+03 0.  0.
         24    2    5    5    0    0 -0.46523926118E+02  0.62183919718E+02  0.16135083508E+03  0.19679083920E+03  0.81616339297E+02 0.  0.
          5    1    5    5  501    0  0.22007733858E+02 -0.54147751100E+02  0.56434740417E+02  0.81383593093E+02  0.47000000000E+01 0. -1.
        -13    1    6    6    0    0 -0.20278469238E+02 -0.12443092199E+01 -0.11881997898E+01  0.20351325235E+02  0.00000000000E+00 0.  1.
         14    1    6    6    0    0 -0.26245456880E+02  0.63428228938E+02  0.16253903487E+03  0.17643951397E+03  0.00000000000E+00 0. -1.
         -5    1    3    3    0  503  0.68170045162E+02 -0.62158268098E+00  0.13188063393E+03  0.14853327246E+03  0.47000000000E+01 0.  1.
         13    1    4    4    0    0 -0.54095875097E+02 -0.12392794591E+02  0.61004321585E+02  0.82471039234E+02  0.00000000000E+00 0. -1.
        -14    1    4    4    0    0  0.10442022195E+02  0.49782086541E+01 -0.14998099889E+02  0.18940997577E+02  0.00000000000E+00 0.  1.
</event>
<event>
12    1  0.1630640E-001  0.1933548E+03  0.7818608E-02  0.1155489E+00
         21   -1    0    0  503  502  0.00000000000E+00  0.00000000000E+00  0.19981583101E+04  0.19981583101E+04  0.00000000000E+00 0.  1.
         21   -1    0    0  501  503 -0.00000000000E+00 -0.00000000000E+00 -0.18812119153E+02  0.18812119153E+02  0.00000000000E+00 0.  1.
          6    2    1    2  501    0  0.88088815478E+02  0.12483173369E+02  0.91263868780E+03  0.93289627963E+03  0.17167010532E+03 0.  0.
         24    2    3    3    0    0 -0.46546798917E+01  0.56862545761E+02  0.37121891237E+03  0.38178073109E+03  0.68542180966E+02 0.  0.
         -6    2    1    2    0  502 -0.88088815478E+02 -0.12483173369E+02  0.10667075031E+04  0.10840741496E+04  0.17157038080E+03 0.  0.
        -24    2    5    5    0    0 -0.40421000365E+02 -0.18883445971E+02  0.25170106281E+03  0.26763629413E+03  0.79280004493E+02 0.  0.
          5    1    3    3  501    0  0.92743495370E+02 -0.44379372392E+02  0.54141977542E+03  0.55111554855E+03  0.47000000000E+01 0. -1.
        -13    1    4    4    0    0 -0.10303503626E+02  0.11777513381E+02  0.12053062274E+02  0.19752172503E+02  0.00000000000E+00 0.  1.
         14    1    4    4    0    0  0.56488237341E+01  0.45085032380E+02  0.35916585010E+03  0.36202855858E+03  0.00000000000E+00 0. -1.
         -5    1    5    5    0  502 -0.47667815114E+02  0.64002726020E+01  0.81500644031E+03  0.81643785546E+03  0.47000000000E+01 0.  1.
         13    1    6    6    0    0  0.18820311951E+02  0.13365788887E+02  0.76210095998E+02  0.79629311102E+02  0.00000000000E+00 0. -1.
        -14    1    6    6    0    0 -0.59241312316E+02 -0.32249234858E+02  0.17549096681E+03  0.18800698303E+03  0.00000000000E+00 0.  1.
</event>
<event>
12    1  0.1630640E-001  0.1745485E+03  0.7818608E-02  0.1173536E+00
         21   -1    0    0  503  502  0.00000000000E+00  0.00000000000E+00  0.80199333119E+02  0.80199333119E+02  0.00000000000E+00 0.  1.
         21   -1    0    0  501  503 -0.00000000000E+00 -0.00000000000E+00 -0.38001022856E+03  0.38001022856E+03  0.00000000000E+00 0.  1.
          6    2    1    2  501    0  0.24257648183E+02  0.33536518907E+01 -0.17018010556E+03  0.24278985266E+03  0.17142334656E+03 0.  0.
         24    2    3    3    0    0 -0.16750815645E+02 -0.89352558538E+01 -0.18049552376E+03  0.19850431086E+03  0.80404593844E+02 0.  0.
         -6    2    1    2    0  502 -0.24257648183E+02 -0.33536518907E+01 -0.12963078987E+03  0.21741970902E+03  0.17282218524E+03 0.  0.
        -24    2    5    5    0    0 -0.37580061698E+02 -0.41844939386E+01 -0.26425650752E+01  0.89645391421E+02  0.81237565363E+02 0.  0.
          5    1    3    3  501    0  0.41008463828E+02  0.12288907745E+02  0.10315418200E+02  0.44285541791E+02  0.47000000000E+01 0. -1.
        -11    1    4    4    0    0 -0.24683853899E+02  0.26829325958E+02 -0.43811155875E+02  0.56995813476E+02  0.00000000000E+00 0.  1.
         12    1    4    4    0    0  0.79330382539E+01 -0.35764581812E+02 -0.13668436789E+03  0.14150849739E+03  0.00000000000E+00 0. -1.
         -5    1    5    5    0  502  0.13322413515E+02  0.83084204790E+00 -0.12698822480E+03  0.12777431760E+03  0.47000000000E+01 0.  1.
         11    1    6    6    0    0 -0.32808038218E+01  0.25961919404E+01  0.36742776554E+02  0.36980204370E+02  0.00000000000E+00 0. -1.
        -12    1    6    6    0    0 -0.34299257876E+02 -0.67806858790E+01 -0.39385341630E+02  0.52665187051E+02  0.00000000000E+00 0.  1.
</event>
<event>
12    1  0.1630640E-001  0.2111440E+03  0.7818608E-02  0.1140737E+00
         21   -1    0    0  503  502  0.00000000000E+00  0.00000000000E+00  0.31095439595E+03  0.31095439595E+03  0.00000000000E+00 0.  1.
         21   -1    0    0  501  503 -0.00000000000E+00 -0.00000000000E+00 -0.16368063860E+03  0.16368063860E+03  0.00000000000E+00 0.  1.
          6    2    1    2  501    0 -0.18349720698E+01 -0.12263770025E+03 -0.10534040616E+02  0.21103481082E+03  0.17140989680E+03 0.  0.
         24    2    3    3    0    0  0.38839286173E+02 -0.40779727358E+02 -0.50192644029E+02  0.11128503471E+03  0.81814308780E+02 0.  0.
         -6    2    1    2    0  502  0.18349720698E+01  0.12263770025E+03  0.15780779797E+03  0.26360022373E+03  0.17186740298E+03 0.  0.
        -24    2    5    5    0    0  0.59580747520E+01  0.93224563497E+02  0.18913971537E+02  0.12148858589E+03  0.75335385366E+02 0.  0.
          5    1    3    3  501    0 -0.40674258243E+02 -0.81857972889E+02  0.39658603413E+02  0.99749776109E+02  0.47000000000E+01 0. -1.
        -13    1    4    4    0    0  0.13057562377E+02 -0.50276777645E+02 -0.62424430029E+02  0.81209997969E+02  0.00000000000E+00 0.  1.
         14    1    4    4    0    0  0.25781723796E+02  0.94970502868E+01  0.12231786000E+02  0.30075036738E+02  0.00000000000E+00 0. -1.
         -5    1    5    5    0  502 -0.41231026822E+01  0.29413136750E+02  0.13889382643E+03  0.14211163784E+03  0.47000000000E+01 0.  1.
         11    1    6    6    0    0  0.12176497507E+02 -0.43598412881E+01 -0.13285277277E+02  0.18541140739E+02  0.00000000000E+00 0. -1.
        -12    1    6    6    0    0 -0.62184227548E+01  0.97584404785E+02  0.32199248814E+02  0.10294744515E+03  0.00000000000E+00 0.  1.
</event>
<event>
12    1  0.1630640E-001  0.2125559E+03  0.7818608E-02  0.1140625E+00
         21   -1    0    0  501  502  0.00000000000E+00  0.00000000000E+00  0.22480732397E+03  0.22480732397E+03  0.00000000000E+00 0. -1.
         21   -1    0    0  502  503 -0.00000000000E+00 -0.00000000000E+00 -0.33682184910E+03  0.33682184910E+03  0.00000000000E+00 0. -1.
         -6    2    1    2    0  503 -0.11313936721E+03  0.24023247475E+02 -0.23722001206E+03  0.31493824473E+03  0.17185788037E+03 0.  0.
        -24    2    3    3    0    0 -0.73015769241E+02  0.76134196805E+02 -0.21176575210E+03  0.24425965177E+03  0.60748047190E+02 0.  0.
          6    2    1    2  501    0  0.11313936721E+03 -0.24023247475E+02  0.12520548693E+03  0.24669092833E+03  0.17833218254E+03 0.  0.
         24    2    5    5    0    0  0.50320613365E+02 -0.11906714793E+02 -0.10172471949E+02  0.96883425348E+02  0.81295663692E+02 0.  0.
          5    1    5    5  501    0  0.62818753845E+02 -0.12116532682E+02  0.13537795888E+03  0.14980750298E+03  0.47000000000E+01 0. -1.
        -13    1    6    6    0    0  0.17318317412E+02 -0.43616033253E+02  0.80649371550E+01  0.47616443441E+02  0.00000000000E+00 0.  1.
         14    1    6    6    0    0  0.33002295953E+02  0.31709318460E+02 -0.18237409104E+02  0.49266981907E+02  0.00000000000E+00 0. -1.
         -5    1    3    3    0  503 -0.40123597968E+02 -0.52110949329E+02 -0.25454259957E+02  0.70678592968E+02  0.47000000000E+01 0.  1.
         13    1    4    4    0    0 -0.78574364841E+01 -0.18470276247E+00 -0.70736014871E+02  0.71171323038E+02  0.00000000000E+00 0. -1.
        -14    1    4    4    0    0 -0.65158332757E+02  0.76318899567E+02 -0.14102973723E+03  0.17308832873E+03  0.00000000000E+00 0.  1.
</event>
<event>
12    1  0.1630640E-001  0.1818630E+03  0.7818608E-02  0.1166507E+00
         21   -1    0    0  501  502  0.00000000000E+00  0.00000000000E+00  0.44494512099E+03  0.44494512099E+03  0.00000000000E+00 0.  1.
         21   -1    0    0  502  503 -0.00000000000E+00 -0.00000000000E+00 -0.10977946853E+03  0.10977946853E+03  0.00000000000E+00 0. -1.
         -6    2    1    2    0  503  0.61482890820E+00 -0.57772118626E+02  0.87607809837E+01  0.18207386349E+03  0.17244171414E+03 0.  0.
        -24    2    3    3    0    0  0.10245011334E+02 -0.99192141822E+02 -0.23008145067E+02  0.12878490218E+03  0.78180144751E+02 0.  0.
          6    2    1    2  501    0 -0.61482890820E+00  0.57772118626E+02  0.32640487147E+03  0.37265072604E+03  0.17026575636E+03 0.  0.
         24    2    5    5    0    0 -0.52679986658E+02  0.67589173406E+02  0.15951803595E+03  0.19749233747E+03  0.78827293552E+02 0.  0.
          5    1    5    5  501    0  0.52065157750E+02 -0.98170547800E+01  0.16688683552E+03  0.17515838857E+03  0.47000000000E+01 0. -1.
        -11    1    6    6    0    0 -0.67273577654E+02  0.53612787667E+02  0.87543947063E+02  0.12273552020E+03  0.00000000000E+00 0.  1.
         12    1    6    6    0    0  0.14593590996E+02  0.13976385739E+02  0.71974088888E+02  0.74756817266E+02  0.00000000000E+00 0. -1.
         -5    1    3    3    0  503 -0.96301824262E+01  0.41420023195E+02  0.31768926051E+02  0.53288961310E+02  0.47000000000E+01 0.  1.
         13    1    4    4    0    0 -0.10799814425E+02 -0.49010707879E+02 -0.47509669873E+02  0.69107555375E+02  0.00000000000E+00 0. -1.
        -14    1    4    4    0    0  0.21044825759E+02 -0.50181433942E+02  0.24501524806E+02  0.59677346804E+02  0.00000000000E+00 0.  1.
</event>
<event>
12    1  0.1630640E-001  0.2035575E+03  0.7818608E-02  0.1146897E+00
         21   -1    0    0  501  502  0.00000000000E+00  0.00000000000E+00  0.41260487906E+03  0.41260487906E+03  0.00000000000E+00 0.  1.
         21   -1    0    0  502  503 -0.00000000000E+00 -0.00000000000E+00 -0.12379926608E+03  0.12379926608E+03  0.00000000000E+00 0. -1.
         -6    2    1    2    0  503 -0.10717661634E+03 -0.19718757191E+02  0.27295965505E+02  0.20537947300E+03  0.17193022340E+03 0.  0.
        -24    2    3    3    0    0 -0.53701183844E+02 -0.14440365194E+02 -0.51206947651E+02  0.11013095239E+03  0.80089536732E+02 0.  0.
          6    2    1    2  501    0  0.10717661634E+03  0.19718757191E+02  0.26150964747E+03  0.33102467215E+03  0.17121443097E+03 0.  0.
         24    2    5    5    0    0  0.68446138325E+02  0.73272223609E+02  0.13027826638E+03  0.18401518580E+03  0.82676897067E+02 0.  0.
          5    1    5    5  501    0  0.38730478020E+02 -0.53553466417E+02  0.13123138109E+03  0.14700948635E+03  0.47000000000E+01 0. -1.
        -13    1    6    6    0    0  0.84378744396E+02  0.63910859596E+02  0.12686321084E+03  0.16522301518E+03  0.00000000000E+00 0.  1.
         14    1    6    6    0    0 -0.15932606071E+02  0.93613640125E+01  0.34150555491E+01  0.18792170625E+02  0.00000000000E+00 0. -1.
         -5    1    3    3    0  503 -0.53475432500E+02 -0.52783919973E+01  0.78502913156E+02  0.95248520603E+02  0.47000000000E+01 0.  1.
         13    1    4    4    0    0 -0.13910131945E+02  0.49044768328E+01 -0.62705637469E+02  0.64416943688E+02  0.00000000000E+00 0. -1.
        -14    1    4    4    0    0 -0.39791051899E+02 -0.19344842027E+02  0.11498689818E+02  0.45714008704E+02  0.00000000000E+00 0.  1.
</event>
<event>
12    1  0.1630640E-001  0.4318812E+03  0.7818608E-02  0.1033431E+00
         21   -1    0    0  503  502  0.00000000000E+00  0.00000000000E+00  0.17762209328E+03  0.17762209328E+03  0.00000000000E+00 0. -1.
         21   -1    0    0  501  503 -0.00000000000E+00 -0.00000000000E+00 -0.14158361577E+04  0.14158361577E+04  0.00000000000E+00 0.  1.
          6    2    1    2  501    0  0.31443220075E+03 -0.23782617495E+03 -0.10257238577E+04  0.11121336030E+04  0.17118066590E+03 0.  0.
         24    2    3    3    0    0  0.15953248539E+03 -0.71117579310E+02 -0.59183623356E+03  0.62216805520E+03  0.79464693893E+02 0.  0.
         -6    2    1    2    0  502 -0.31443220075E+03  0.23782617495E+03 -0.21249020678E+03  0.48132464801E+03  0.17633045807E+03 0.  0.
        -24    2    5    5    0    0 -0.16696372696E+03  0.93222832365E+02 -0.38298718573E+02  0.21109910885E+03  0.80800119556E+02 0.  0.
          5    1    3    3  501    0  0.15489971536E+03 -0.16670859564E+03 -0.43388762411E+03  0.48996554780E+03  0.47000000000E+01 0. -1.
        -11    1    4    4    0    0  0.10188328033E+03 -0.65513619688E+02 -0.28121767647E+03  0.30619539307E+03  0.00000000000E+00 0.  1.
         12    1    4    4    0    0  0.57649205057E+02 -0.56039596217E+01 -0.31061855709E+03  0.31597266214E+03  0.00000000000E+00 0. -1.
         -5    1    5    5    0  502 -0.14746847379E+03  0.14460334258E+03 -0.17419148820E+03  0.27022553915E+03  0.47000000000E+01 0.  1.
         13    1    6    6    0    0 -0.14735520655E+03  0.10828431679E+03 -0.34299581827E+02  0.18605244280E+03  0.00000000000E+00 0. -1.
        -14    1    6    6    0    0 -0.19608520410E+02 -0.15061484421E+02 -0.39991367459E+01  0.25046666052E+02  0.00000000000E+00 0.  1.
</event>
<event>
12    1  0.1630640E-001  0.3359827E+03  0.7818608E-02  0.1068621E+00
         21   -1    0    0  503  502  0.00000000000E+00  0.00000000000E+00  0.17319188457E+03  0.17319188457E+03  0.00000000000E+00 0. -1.
         21   -1    0    0  501  503 -0.00000000000E+00 -0.00000000000E+00 -0.65039369804E+03  0.65039369804E+03  0.00000000000E+00 0. -1.
          6    2    1    2  501    0  0.28723999977E+03 -0.30427370603E+02 -0.24926497264E+03  0.41835082130E+03  0.17161509477E+03 0.  0.
         24    2    3    3    0    0  0.99506447293E+02  0.43099566785E+02 -0.98965402838E+02  0.16683114428E+03  0.79242501440E+02 0.  0.
         -6    2    1    2    0  502 -0.28723999977E+03  0.30427370603E+02 -0.22793684084E+03  0.40523476131E+03  0.16978623624E+03 0.  0.
        -24    2    5    5    0    0 -0.13101373937E+03 -0.43390422909E+02 -0.13322069404E+03  0.20813339262E+03  0.80773925857E+02 0.  0.
          5    1    3    3  501    0  0.18773355247E+03 -0.73526937388E+02 -0.15029956980E+03  0.25151967702E+03  0.47000000000E+01 0. -1.
        -13    1    4    4    0    0  0.70943536695E+02  0.46862362487E+02 -0.26831988753E+02  0.89157288188E+02  0.00000000000E+00 0.  1.
         14    1    4    4    0    0  0.28562910598E+02 -0.37627957017E+01 -0.72133414085E+02  0.77673856096E+02  0.00000000000E+00 0. -1.
         -5    1    5    5    0  502 -0.15622626040E+03  0.73817793511E+02 -0.94716146792E+02  0.19710136869E+03  0.47000000000E+01 0.  1.
         11    1    6    6    0    0 -0.11483193261E+03 -0.40400252579E+02 -0.65084460415E+02  0.13803818364E+03  0.00000000000E+00 0. -1.
        -12    1    6    6    0    0 -0.16181806758E+02 -0.29901703295E+01 -0.68136233629E+02  0.70095208979E+02  0.00000000000E+00 0.  1.
</event>
<event>
12    1  0.1630640E-001  0.6404741E+03  0.7818608E-02  0.9824957E-01
         21   -1    0    0  503  502  0.00000000000E+00  0.00000000000E+00  0.68258808898E+03  0.68258808898E+03  0.00000000000E+00 0.  1.
         21   -1    0    0  501  503 -0.00000000000E+00 -0.00000000000E+00 -0.61053352342E+03  0.61053352342E+03  0.00000000000E+00 0.  1.
          6    2    1    2  501    0 -0.11378475757E+03 -0.60637433683E+03 -0.46066955560E+02  0.64212872170E+03  0.17196023789E+03 0.  0.
         24    2    3    3    0    0 -0.39000723737E+02 -0.15122928058E+03  0.13186160503E+02  0.17706668744E+03  0.82385588645E+02 0.  0.
         -6    2    1    2    0  502  0.11378475757E+03  0.60637433683E+03  0.11812152113E+03  0.65099289069E+03  0.17088663656E+03 0.  0.
        -24    2    5    5    0    0  0.31266497283E+02  0.42528528836E+03  0.12531594700E+03  0.45180364269E+03  0.81100398417E+02 0.  0.
          5    1    3    3  501    0 -0.74784033837E+02 -0.45514505625E+03 -0.59253116064E+02  0.46506203426E+03  0.47000000000E+01 0. -1.
        -13    1    4    4    0    0 -0.27463397976E+02 -0.85921402072E+02 -0.33217054031E+02  0.96125429730E+02  0.00000000000E+00 0.  1.
         14    1    4    4    0    0 -0.11537325762E+02 -0.65307878511E+02  0.46403214534E+02  0.80941257715E+02  0.00000000000E+00 0. -1.
         -5    1    5    5    0  502  0.82518260291E+02  0.18108904847E+03 -0.71944258774E+01  0.19918924801E+03  0.47000000000E+01 0.  1.
         11    1    6    6    0    0  0.19278493166E+01  0.21942650363E+03  0.24760633044E+02  0.22082752557E+03  0.00000000000E+00 0. -1.
        -12    1    6    6    0    0  0.29338647966E+02  0.20585878473E+03  0.10055531396E+03  0.23097611712E+03  0.00000000000E+00 0.  1.
</event>
<event>
12    1  0.1630640E-001  0.2407181E+03  0.7818608E-02  0.1119597E+00
         21   -1    0    0  501  502  0.00000000000E+00  0.00000000000E+00  0.36758796878E+03  0.36758796878E+03  0.00000000000E+00 0.  1.
         21   -1    0    0  502  503 -0.00000000000E+00 -0.00000000000E+00 -0.16106454556E+03  0.16106454556E+03  0.00000000000E+00 0. -1.
         -6    2    1    2    0  503 -0.16654640098E+03  0.46466613975E+01  0.58567312443E+02  0.24609945990E+03  0.17139287889E+03 0.  0.
        -24    2    3    3    0    0 -0.12101611999E+03  0.61252606736E+02  0.84447107531E+01  0.15771617678E+03  0.80039341252E+02 0.  0.
          6    2    1    2  501    0  0.16654640098E+03 -0.46466613975E+01  0.14795611078E+03  0.28255305445E+03  0.17374096443E+03 0.  0.
         24    2    5    5    0    0  0.71187820491E+02  0.35197283222E+01  0.15176573350E+03  0.18665439951E+03  0.82017880483E+02 0.  0.
          5    1    5    5  501    0  0.95358580487E+02 -0.81663897198E+01 -0.38096227163E+01  0.95898654937E+02  0.47000000000E+01 0. -1.
        -13    1    6    6    0    0  0.35594249146E+02  0.34731623874E+02  0.35447733124E+02  0.61071908868E+02  0.00000000000E+00 0.  1.
         14    1    6    6    0    0  0.35593571345E+02 -0.31211895552E+02  0.11631800037E+03  0.12558249064E+03  0.00000000000E+00 0. -1.
         -5    1    3    3    0  503 -0.45530280983E+02 -0.56605945339E+02  0.50122601690E+02  0.88383283115E+02  0.47000000000E+01 0.  1.
         13    1    4    4    0    0 -0.76344657133E+02 -0.33401784984E+01 -0.99299207142E+01  0.77060150470E+02  0.00000000000E+00 0. -1.
        -14    1    4    4    0    0 -0.44671462862E+02  0.64592785235E+02  0.18374631467E+02  0.80656026310E+02  0.00000000000E+00 0.  1.
</event>
<event>
12    1  0.1630640E-001  0.2520891E+03  0.7818608E-02  0.1112052E+00
         21   -1    0    0  501  502  0.00000000000E+00  0.00000000000E+00  0.66932996517E+03  0.66932996517E+03  0.00000000000E+00 0. -1.
         21   -1    0    0  502  503 -0.00000000000E+00 -0.00000000000E+00 -0.10146916601E+03  0.10146916601E+03  0.00000000000E+00 0. -1.
         -6    2    1    2    0  503 -0.15922265615E+03 -0.91861553532E+02  0.18490926590E+03  0.31232254078E+03  0.17194049440E+03 0.  0.
        -24    2    3    3    0    0 -0.13208592695E+03 -0.12655851091E+03  0.11670597139E+03  0.23099566758E+03  0.79214682351E+02 0.  0.
          6    2    1    2  501    0  0.15922265615E+03  0.91861553532E+02  0.38295153326E+03  0.45847659040E+03  0.17250654443E+03 0.  0.
         24    2    5    5    0    0  0.75363077402E+02  0.88998877460E+02  0.13039215550E+03  0.19230192377E+03  0.79859389209E+02 0.  0.
          5    1    5    5  501    0  0.83859578751E+02  0.28626760715E+01  0.25255937776E+03  0.26617466663E+03  0.47000000000E+01 0. -1.
        -13    1    6    6    0    0  0.50037521234E+02  0.17100282619E+02  0.16763132659E+02  0.55472297712E+02  0.00000000000E+00 0.  1.
         14    1    6    6    0    0  0.25325556168E+02  0.71898594842E+02  0.11362902284E+03  0.13682962605E+03  0.00000000000E+00 0. -1.
         -5    1    3    3    0  503 -0.27136729204E+02  0.34696957377E+02  0.68203294512E+02  0.81326873206E+02  0.47000000000E+01 0.  1.
         11    1    4    4    0    0 -0.13771824378E+03 -0.96952940094E+02  0.91290313967E+02  0.19157272428E+03  0.00000000000E+00 0. -1.
        -12    1    4    4    0    0  0.56323168322E+01 -0.29605570815E+02  0.25415657420E+02  0.39422943298E+02  0.00000000000E+00 0.  1.
</event>
<event>
12    1  0.1630640E-001  0.1835186E+03  0.7818608E-02  0.1164618E+00
         21   -1    0    0  501  502  0.00000000000E+00  0.00000000000E+00  0.56098373786E+02  0.56098373786E+02  0.00000000000E+00 0.  1.
         21   -1    0    0  502  503 -0.00000000000E+00 -0.00000000000E+00 -0.27198279618E+04  0.27198279618E+04  0.00000000000E+00 0. -1.
         -6    2    1    2    0  503  0.61731520411E+02  0.46205124367E+00 -0.25572125120E+04  0.25637354782E+04  0.17202551026E+03 0.  0.
        -24    2    3    3    0    0  0.52839882151E+01  0.40565329211E+02 -0.77317097201E+03  0.77834451164E+03  0.79707969373E+02 0.  0.
          6    2    1    2  501    0 -0.61731520411E+02 -0.46205124367E+00 -0.10651707598E+03  0.21219085742E+03  0.17282383630E+03 0.  0.
         24    2    5    5    0    0 -0.39803511980E+02  0.35997404632E+02  0.15400038803E+01  0.95964560982E+02  0.79540509467E+02 0.  0.
          5    1    5    5  501    0 -0.21928008431E+02 -0.36459455876E+02 -0.10805707986E+03  0.11622629644E+03  0.47000000000E+01 0. -1.
        -13    1    6    6    0    0  0.85752266336E+01  0.32124265229E+02  0.25440224336E+02  0.41865354920E+02  0.00000000000E+00 0.  1.
         14    1    6    6    0    0 -0.48378738614E+02  0.38731394028E+01 -0.23900220456E+02  0.54099206062E+02  0.00000000000E+00 0. -1.
         -5    1    3    3    0  503  0.56447532196E+02 -0.40103277967E+02 -0.17840415400E+04  0.17853909665E+04  0.47000000000E+01 0.  1.
         13    1    4    4    0    0  0.15830660634E+02 -0.20986779256E+02 -0.28113088816E+03  0.28235727545E+03  0.00000000000E+00 0. -1.
        -14    1    4    4    0    0 -0.10546672419E+02  0.61552108467E+02 -0.49204008384E+03  0.49598723619E+03  0.00000000000E+00 0.  1.
</event>
<event>
12    1  0.1630640E-001  0.1896336E+03  0.7818608E-02  0.1161334E+00
         21   -1    0    0  503  502  0.00000000000E+00  0.00000000000E+00  0.58509682338E+02  0.58509682338E+02  0.00000000000E+00 0.  1.
         21   -1    0    0  501  503 -0.00000000000E+00 -0.00000000000E+00 -0.71447030329E+03  0.71447030329E+03  0.00000000000E+00 0.  1.
          6    2    1    2  501    0  0.40692298292E+02  0.26330549130E+02 -0.48783822580E+03  0.51955138822E+03  0.17204170860E+03 0.  0.
         24    2    3    3    0    0  0.10112646662E+01 -0.18113155892E+02 -0.10822347579E+03  0.13526077454E+03  0.79082535007E+02 0.  0.
         -6    2    1    2    0  502 -0.40692298292E+02 -0.26330549130E+02 -0.16812239516E+03  0.25342859741E+03  0.18333508468E+03 0.  0.
        -24    2    5    5    0    0  0.10452392932E+02 -0.70121626996E+02 -0.48319837219E+02  0.11592157639E+03  0.77953255951E+02 0.  0.
          5    1    3    3  501    0  0.39681033626E+02  0.44443705022E+02 -0.37961475000E+03  0.38429061369E+03  0.47000000000E+01 0. -1.
        -13    1    4    4    0    0 -0.14701123823E+02 -0.43748139360E+02 -0.86915214093E+02  0.98408725121E+02  0.00000000000E+00 0.  1.
         14    1    4    4    0    0  0.15712388489E+02  0.25634983468E+02 -0.21308261697E+02  0.36852049414E+02  0.00000000000E+00 0. -1.
         -5    1    5    5    0  502 -0.51144691224E+02  0.43791077866E+02 -0.11980255794E+03  0.13750702102E+03  0.47000000000E+01 0.  1.
         13    1    6    6    0    0 -0.22169381838E+02 -0.52284954192E+02 -0.53934122651E+02  0.78320415679E+02  0.00000000000E+00 0. -1.
        -14    1    6    6    0    0  0.32621774771E+02 -0.17836672804E+02  0.56142854323E+01  0.37601160711E+02  0.00000000000E+00 0.  1.
</event>
<event>
12    1  0.1630640E-001  0.1767992E+03  0.7818608E-02  0.1171031E+00
         21   -1    0    0  503  502  0.00000000000E+00  0.00000000000E+00  0.33088728654E+03  0.33088728654E+03  0.00000000000E+00 0. -1.
         21   -1    0    0  501  503 -0.00000000000E+00 -0.00000000000E+00 -0.15049333621E+03  0.15049333621E+03  0.00000000000E+00 0. -1.
          6    2    1    2  501    0  0.39162259282E+01  0.36893530650E+02 -0.56984484757E+02  0.18539672996E+03  0.17247680002E+03 0.  0.
         24    2    3    3    0    0  0.54270596087E+02  0.48737932141E+02  0.16293924904E+01  0.10707987962E+03  0.78375774765E+02 0.  0.
         -6    2    1    2    0  502 -0.39162259282E+01 -0.36893530650E+02  0.23737843509E+03  0.29598389279E+03  0.17286258681E+03 0.  0.
        -24    2    5    5    0    0  0.45158457283E+02 -0.66374343507E+00  0.20939795613E+03  0.22870894042E+03  0.80128325691E+02 0.  0.
          5    1    3    3  501    0 -0.50354370159E+02 -0.11844401491E+02 -0.58613877247E+02  0.78316850337E+02  0.47000000000E+01 0. -1.
        -11    1    4    4    0    0  0.74006636244E+01  0.54078696948E+01  0.34209203636E+02  0.35415879067E+02  0.00000000000E+00 0.  1.
         12    1    4    4    0    0  0.46869932463E+02  0.43330062447E+02 -0.32579811145E+02  0.71664000551E+02  0.00000000000E+00 0. -1.
         -5    1    5    5    0  502 -0.49074683211E+02 -0.36229787215E+02  0.27980478958E+02  0.67274952372E+02  0.47000000000E+01 0.  1.
         11    1    6    6    0    0 -0.15404853778E+02  0.70013211035E+01  0.11535590718E+03  0.11659036555E+03  0.00000000000E+00 0. -1.
        -12    1    6    6    0    0  0.60563311061E+02 -0.76650645386E+01  0.94042048943E+02  0.11211857487E+03  0.00000000000E+00 0.  1.
</event>
<event>
12    1  0.1630640E-001  0.1830691E+03  0.7818608E-02  0.1165073E+00
         21   -1    0    0  503  502  0.00000000000E+00  0.00000000000E+00  0.12593920250E+03  0.12593920250E+03  0.00000000000E+00 0. -1.
         21   -1    0    0  501  503 -0.00000000000E+00 -0.00000000000E+00 -0.26586731037E+03  0.26586731037E+03  0.00000000000E+00 0. -1.
          6    2    1    2  501    0  0.32339281575E+02  0.54005047597E+02 -0.81949427310E+02  0.19977571807E+03  0.17097442673E+03 0.  0.
         24    2    3    3    0    0  0.33523361864E+02  0.14545651804E+02  0.20103121867E+02  0.90252849429E+02  0.80037800721E+02 0.  0.
         -6    2    1    2    0  502 -0.32339281575E+02 -0.54005047597E+02 -0.57978680563E+02  0.19203079479E+03  0.17190673184E+03 0.  0.
        -24    2    5    5    0    0  0.30022738593E+02 -0.30820419147E+02  0.15085722774E+02  0.93101296712E+02  0.81172713081E+02 0.  0.
          5    1    3    3  501    0 -0.11840802881E+01  0.39459395793E+02 -0.10205254918E+03  0.10952286864E+03  0.47000000000E+01 0. -1.
        -13    1    4    4    0    0  0.75588309908E+01  0.16595832581E+02  0.48443416810E+02  0.51762169750E+02  0.00000000000E+00 0.  1.
         14    1    4    4    0    0  0.25964530873E+02 -0.20501807769E+01 -0.28340294943E+02  0.38490679679E+02  0.00000000000E+00 0. -1.
         -5    1    5    5    0  502 -0.62362020169E+02 -0.23184628450E+02 -0.73064403337E+02  0.98929498082E+02  0.47000000000E+01 0.  1.
         11    1    6    6    0    0 -0.35167009331E+01  0.61490524470E+01  0.37658115430E+02  0.38318555416E+02  0.00000000000E+00 0. -1.
        -12    1    6    6    0    0  0.33539439526E+02 -0.36969471594E+02 -0.22572392657E+02  0.54782741296E+02  0.00000000000E+00 0.  1.
</event>
<event>
12    1  0.1630640E-001  0.2046896E+03  0.7818608E-02  0.1148615E+00
         21   -1    0    0  501  502  0.00000000000E+00  0.00000000000E+00  0.25623105502E+03  0.25623105502E+03  0.00000000000E+00 0. -1.
         21   -1    0    0  502  503 -0.00000000000E+00 -0.00000000000E+00 -0.18581769533E+03  0.18581769533E+03  0.00000000000E+00 0.  1.
         -6    2    1    2    0  503 -0.80070943143E+02 -0.21357655597E+02 -0.56349550967E+02  0.21230424023E+03  0.18716386707E+03 0.  0.
        -24    2    3    3    0    0  0.88643136070E+01  0.65905386923E+01  0.28865849783E+02  0.85914620475E+02  0.80162793562E+02 0.  0.
          6    2    1    2  501    0  0.80070943143E+02  0.21357655597E+02  0.12676291066E+03  0.22974451012E+03  0.17276052507E+03 0.  0.
         24    2    5    5    0    0  0.30252806057E+02  0.46756799480E+02  0.20600317118E+02  0.10966308125E+03  0.92196462791E+02 0.  0.
          5    1    5    5  501    0  0.49818137086E+02 -0.25399143883E+02  0.10616259354E+03  0.12008142888E+03  0.47000000000E+01 0. -1.
        -11    1    6    6    0    0  0.34632793086E+02  0.71959590625E+02  0.57088629054E+01  0.80063750571E+02  0.00000000000E+00 0.  1.
         12    1    6    6    0    0 -0.43799870287E+01 -0.25202791145E+02  0.14891454212E+02  0.29599330675E+02  0.00000000000E+00 0. -1.
         -5    1    3    3    0  503 -0.88935256750E+02 -0.27948194290E+02 -0.85215400750E+02  0.12638961976E+03  0.47000000000E+01 0.  1.
         11    1    4    4    0    0  0.33586458378E+02  0.26650834270E+02 -0.95299839857E-01  0.42875706825E+02  0.00000000000E+00 0. -1.
        -12    1    4    4    0    0 -0.24722144771E+02 -0.20060295578E+02  0.28961149623E+02  0.43038913650E+02  0.00000000000E+00 0.  1.
</event>
<event>
12    1  0.1630640E-001  0.2526144E+03  0.7818608E-02  0.1111784E+00
         21   -1    0    0  503  502  0.00000000000E+00  0.00000000000E+00  0.11390969664E+04  0.11390969664E+04  0.00000000000E+00 0. -1.
         21   -1    0    0  501  503 -0.00000000000E+00 -0.00000000000E+00 -0.57094446130E+02  0.57094446130E+02  0.00000000000E+00 0.  1.
          6    2    1    2  501    0 -0.18103814204E+03 -0.31621378654E+02  0.63009108063E+03  0.67884371165E+03  0.17331847707E+03 0.  0.
         24    2    3    3    0    0 -0.15350994246E+03 -0.14676548284E+02  0.28985372135E+03  0.33704189816E+03  0.76166645167E+02 0.  0.
         -6    2    1    2    0  502  0.18103814204E+03  0.31621378654E+02  0.45191143963E+03  0.51734770087E+03  0.17219167770E+03 0.  0.
        -24    2    5    5    0    0  0.10160531830E+03  0.81173491423E+02  0.32967726485E+03  0.36330787209E+03  0.79954578026E+02 0.  0.
          5    1    3    3  501    0 -0.27528199581E+02 -0.16944830370E+02  0.34023735928E+03  0.34180181348E+03  0.47000000000E+01 0. -1.
        -13    1    4    4    0    0 -0.93685121490E+02 -0.45536917901E+02  0.16317990067E+03  0.19359285334E+03  0.00000000000E+00 0.  1.
         14    1    4    4    0    0 -0.59824820969E+02  0.30860369617E+02  0.12667382068E+03  0.14344904483E+03  0.00000000000E+00 0. -1.
         -5    1    5    5    0  502  0.79432823736E+02 -0.49552112769E+02  0.12223417478E+03  0.15403982878E+03  0.47000000000E+01 0.  1.
         11    1    6    6    0    0  0.38146201624E+02  0.68364161394E+02  0.24180792739E+03  0.25416503498E+03  0.00000000000E+00 0. -1.
        -12    1    6    6    0    0  0.63459116680E+02  0.12809330029E+02  0.87869337460E+02  0.10914283710E+03  0.00000000000E+00 0.  1.
</event>
<event>
12    1  0.1630640E-001  0.1837566E+03  0.7818608E-02  0.1164867E+00
         21   -1    0    0  503  502  0.00000000000E+00  0.00000000000E+00  0.62672293240E+03  0.62672293240E+03  0.00000000000E+00 0.  1.
         21   -1    0    0  501  503 -0.00000000000E+00 -0.00000000000E+00 -0.77216018794E+02  0.77216018794E+02  0.00000000000E+00 0.  1.
          6    2    1    2  501    0  0.57474147341E+02  0.36928456265E+02  0.79382749947E+02  0.20017020519E+03  0.17058576014E+03 0.  0.
         24    2    3    3    0    0  0.63683261627E+02  0.36920266201E+02 -0.10226710326E+02  0.11022300658E+03  0.81399396236E+02 0.  0.
         -6    2    1    2    0  502 -0.57474147341E+02 -0.36928456265E+02  0.47012416366E+03  0.50376874600E+03  0.16762825448E+03 0.  0.
        -24    2    5    5    0    0  0.30284797809E+02  0.86583842122E+01  0.22088613456E+03  0.23558694642E+03  0.75620025707E+02 0.  0.
          5    1    3    3  501    0 -0.62091142864E+01  0.81900643996E-02  0.89609460273E+02  0.89947198610E+02  0.47000000000E+01 0. -1.
        -11    1    4    4    0    0  0.68298316998E+02  0.52756944155E+02  0.67337440005E+01  0.86563841005E+02  0.00000000000E+00 0.  1.
         12    1    4    4    0    0 -0.46150553704E+01 -0.15836677955E+02 -0.16960454327E+02  0.23659165575E+02  0.00000000000E+00 0. -1.
         -5    1    5    5    0  502 -0.87758945150E+02 -0.45586840477E+02  0.24923802910E+03  0.26818179958E+03  0.47000000000E+01 0.  1.
         13    1    6    6    0    0  0.14747650887E+01  0.38781272936E+02  0.12850897497E+03  0.13424127052E+03  0.00000000000E+00 0. -1.
        -14    1    6    6    0    0  0.28810032720E+02 -0.30122888723E+02  0.92377159590E+02  0.10134567590E+03  0.00000000000E+00 0.  1.
</event>
<event>
12    1  0.1630640E-001  0.2042423E+03  0.7818608E-02  0.1146406E+00
         21   -1    0    0  503  502  0.00000000000E+00  0.00000000000E+00  0.16757858762E+03  0.16757858762E+03  0.00000000000E+00 0. -1.
         21   -1    0    0  501  503 -0.00000000000E+00 -0.00000000000E+00 -0.26623396458E+03  0.26623396458E+03  0.00000000000E+00 0. -1.
          6    2    1    2  501    0 -0.22152945944E+02  0.10903354815E+03  0.77051073807E+01  0.20438754974E+03  0.17127706843E+03 0.  0.
         24    2    3    3    0    0  0.42771206758E+02  0.93580711031E+02  0.30345323152E+02  0.13375749134E+03  0.79896822514E+02 0.  0.
         -6    2    1    2    0  502  0.22152945944E+02 -0.10903354815E+03 -0.10636048434E+03  0.22942500246E+03  0.17012998409E+03 0.  0.
        -24    2    5    5    0    0 -0.30379709314E+02 -0.76198944730E+02 -0.12012849329E+03  0.16578979898E+03  0.79537391401E+02 0.  0.
          5    1    3    3  501    0 -0.64924152702E+02  0.15452837124E+02 -0.22640215771E+02  0.70630058398E+02  0.47000000000E+01 0. -1.
        -11    1    4    4    0    0 -0.94468685209E+01  0.73826726683E+02  0.16458564827E+02  0.76226722701E+02  0.00000000000E+00 0.  1.
         12    1    4    4    0    0  0.52218075279E+02  0.19753984349E+02  0.13886758325E+02  0.57530768640E+02  0.00000000000E+00 0. -1.
         -5    1    5    5    0  502  0.52532655258E+02 -0.32834603425E+02  0.13768008949E+02  0.63635203472E+02  0.47000000000E+01 0.  1.
         11    1    6    6    0    0 -0.45291277631E+02 -0.83239733540E+02 -0.86366756638E+02  0.12821610555E+03  0.00000000000E+00 0. -1.
        -12    1    6    6    0    0  0.14911568317E+02  0.70407888100E+01 -0.33761736654E+02  0.37573693439E+02  0.00000000000E+00 0.  1.
</event>
<event>
12    1  0.1630640E-001  0.2249589E+03  0.7818608E-02  0.1130476E+00
         21   -1    0    0  503  502  0.00000000000E+00  0.00000000000E+00  0.30499177066E+03  0.30499177066E+03  0.00000000000E+00 0.  1.
         21   -1    0    0  501  503 -0.00000000000E+00 -0.00000000000E+00 -0.23193376702E+03  0.23193376702E+03  0.00000000000E+00 0. -1.
          6    2    1    2  501    0 -0.11698769700E+03  0.84170291777E+02 -0.10780336922E+03  0.24827808577E+03  0.17102538464E+03 0.  0.
         24    2    3    3    0    0 -0.87893952407E+02  0.54052831362E+02 -0.20659850028E-01  0.13255120974E+03  0.83203168985E+02 0.  0.
         -6    2    1    2    0  502  0.11698769700E+03 -0.84170291777E+02  0.18086137287E+03  0.28864745190E+03  0.17273029852E+03 0.  0.
        -24    2    5    5    0    0  0.24799642807E+02 -0.64620090284E+02  0.28497636974E+02  0.10943348557E+03  0.79829782026E+02 0.  0.
          5    1    3    3  501    0 -0.29093744596E+02  0.30117460415E+02 -0.10778270937E+03  0.11572687603E+03  0.47000000000E+01 0. -1.
        -13    1    4    4    0    0 -0.16137927981E+02 -0.22212590994E+02  0.40688680639E+01  0.27755857139E+02  0.00000000000E+00 0.  1.
         14    1    4    4    0    0 -0.71756024426E+02  0.76265422356E+02 -0.40895279140E+01  0.10479535260E+03  0.00000000000E+00 0. -1.
         -5    1    5    5    0  502  0.92188054196E+02 -0.19550201493E+02  0.15236373589E+03  0.17921396634E+03  0.47000000000E+01 0.  1.
         11    1    6    6    0    0  0.19934199747E+02 -0.41271314482E+02 -0.24025672642E+02  0.51748687563E+02  0.00000000000E+00 0. -1.
        -12    1    6    6    0    0  0.48654430604E+01 -0.23348775803E+02  0.52523309616E+02  0.57684798003E+02  0.00000000000E+00 0.  1.
</event>
<event>
12    1  0.1630640E-001  0.2292966E+03  0.7818608E-02  0.1129198E+00
         21   -1    0    0  503  502  0.00000000000E+00  0.00000000000E+00  0.53392341967E+02  0.53392341967E+02  0.00000000000E+00 0. -1.
         21   -1    0    0  501  503 -0.00000000000E+00 -0.00000000000E+00 -0.12058070546E+04  0.12058070546E+04  0.00000000000E+00 0. -1.
          6    2    1    2  501    0  0.54834873295E+01 -0.15129064318E+03 -0.88501167080E+03  0.91423333728E+03  0.17221501152E+03 0.  0.
         24    2    3    3    0    0 -0.45391849872E+02 -0.65575342341E+02 -0.29255558185E+03  0.31343243842E+03  0.79313173093E+02 0.  0.
         -6    2    1    2    0  502 -0.54834873295E+01  0.15129064318E+03 -0.26740304185E+03  0.34496605931E+03  0.15677457681E+03 0.  0.
        -24    2    5    5    0    0 -0.21806047140E+02  0.26267709272E+02 -0.74387842304E+02  0.11437092228E+03  0.79885296137E+02 0.  0.
          5    1    3    3  501    0  0.50875337201E+02 -0.85715300840E+02 -0.59245608896E+03  0.60080089886E+03  0.47000000000E+01 0. -1.
        -11    1    4    4    0    0 -0.15970394503E+02 -0.25753583105E+02 -0.23735075531E+03  0.23927741555E+03  0.00000000000E+00 0.  1.
         12    1    4    4    0    0 -0.29421455369E+02 -0.39821759236E+02 -0.55204826536E+02  0.74155022875E+02  0.00000000000E+00 0. -1.
         -5    1    5    5    0  502  0.16322559811E+02  0.12502293391E+03 -0.19301519955E+03  0.23059513702E+03  0.47000000000E+01 0.  1.
         13    1    6    6    0    0 -0.34728752520E+02  0.24074469863E+02 -0.86660801825E+02  0.96414526519E+02  0.00000000000E+00 0. -1.
        -14    1    6    6    0    0  0.12922705380E+02  0.21932394083E+01  0.12272959521E+02  0.17956395764E+02  0.00000000000E+00 0.  1.
</event>
<event>
12    1  0.1630640E-001  0.2190292E+03  0.7818608E-02  0.1134669E+00
         21   -1    0    0  501  502  0.00000000000E+00  0.00000000000E+00  0.70231724909E+03  0.70231724909E+03  0.00000000000E+00 0.  1.
         21   -1    0    0  502  503 -0.00000000000E+00 -0.00000000000E+00 -0.16564360588E+03  0.16564360588E+03  0.00000000000E+00 0.  1.
         -6    2    1    2    0  503 -0.17768779286E+02 -0.13420345578E+03 -0.64587185607E+02  0.22804805829E+03  0.17177926325E+03 0.  0.
        -24    2    3    3    0    0 -0.40005528915E+02 -0.13330972772E+03 -0.10807899311E+00  0.15967469378E+03  0.78256439386E+02 0.  0.
          6    2    1    2  501    0  0.17768779286E+02  0.13420345578E+03  0.60126082881E+03  0.63991279669E+03  0.17218451161E+03 0.  0.
         24    2    5    5    0    0 -0.41637493053E+02  0.48766524797E+02  0.40688024391E+03  0.41938054019E+03  0.78845734420E+02 0.  0.
          5    1    5    5  501    0  0.59406272339E+02  0.85436930987E+02  0.19438058490E+03  0.22053225650E+03  0.47000000000E+01 0. -1.
        -11    1    6    6    0    0 -0.22229889435E+02  0.62112353397E+02  0.36842971840E+03  0.37428941988E+03  0.00000000000E+00 0.  1.
         12    1    6    6    0    0 -0.19407603618E+02 -0.13345828601E+02  0.38450525505E+02  0.45091120310E+02  0.00000000000E+00 0. -1.
         -5    1    3    3    0  503  0.22236749629E+02 -0.89372806622E+00 -0.64479106613E+02  0.68373364504E+02  0.47000000000E+01 0.  1.
         13    1    4    4    0    0  0.46813641468E+01 -0.10818541776E+03 -0.29941341861E+01  0.10832804173E+03  0.00000000000E+00 0. -1.
        -14    1    4    4    0    0 -0.44686893061E+02 -0.25124309963E+02  0.28860551930E+01  0.51346652054E+02  0.00000000000E+00 0.  1.
</event>
<event>
12    1  0.1630640E-001  0.1911445E+03  0.7818608E-02  0.1157491E+00
         21   -1    0    0  501  502  0.00000000000E+00  0.00000000000E+00  0.63276056499E+02  0.63276056499E+02  0.00000000000E+00 0.  1.
         21   -1    0    0  502  503 -0.00000000000E+00 -0.00000000000E+00 -0.11125311574E+04  0.11125311574E+04  0.00000000000E+00 0.  1.
         -6    2    1    2    0  503  0.79748723510E+02  0.26696772074E+02 -0.93247437270E+03  0.95181176006E+03  0.17136100575E+03 0.  0.
        -24    2    3    3    0    0 -0.21325158311E+02  0.30197407052E+02 -0.36384064014E+03  0.37423527522E+03  0.79406448278E+02 0.  0.
          6    2    1    2  501    0 -0.79748723510E+02 -0.26696772074E+02 -0.11678072817E+03  0.22399545381E+03  0.17164978391E+03 0.  0.
         24    2    5    5    0    0 -0.25893666049E+02  0.24306701513E+02 -0.23286055294E+01  0.87528974748E+02  0.79966251236E+02 0.  0.
          5    1    5    5  501    0 -0.53855057461E+02 -0.51003473587E+02 -0.11445212264E+03  0.13646647907E+03  0.47000000000E+01 0. -1.
        -13    1    6    6    0    0 -0.24201789387E+02  0.41092211814E+02 -0.29113471974E+02  0.55873882375E+02  0.00000000000E+00 0.  1.
         14    1    6    6    0    0 -0.16918766618E+01 -0.16785510301E+02  0.26784866444E+02  0.31655092373E+02  0.00000000000E+00 0. -1.
         -5    1    3    3    0  503  0.10107388182E+03 -0.35006349776E+01 -0.56863373256E+03  0.57757648484E+03  0.47000000000E+01 0.  1.
         11    1    4    4    0    0  0.13580198676E+02  0.15520903581E+02 -0.21445749658E+02  0.29752990143E+02  0.00000000000E+00 0. -1.
        -12    1    4    4    0    0 -0.34905356986E+02  0.14676503471E+02 -0.34239489049E+03  0.34448228508E+03  0.00000000000E+00 0.  1.
</event>
<event>
12    1  0.1630640E-001  0.1746247E+03  0.7818608E-02  0.1173773E+00
         21   -1    0    0  501  502  0.00000000000E+00  0.00000000000E+00  0.21432293979E+03  0.21432293979E+03  0.00000000000E+00 0. -1.
         21   -1    0    0  502  503 -0.00000000000E+00 -0.00000000000E+00 -0.33023930647E+03  0.33023930647E+03  0.00000000000E+00 0. -1.
         -6    2    1    2    0  503  0.23395684401E+02 -0.19518070666E+02 -0.26471497399E+03  0.31712425824E+03  0.17194610952E+03 0.  0.
        -24    2    3    3    0    0  0.36619494523E+02 -0.73853660234E+01 -0.27770354535E+03  0.29447774279E+03  0.90566831066E+02 0.  0.
          6    2    1    2  501    0 -0.23395684401E+02  0.19518070666E+02  0.14879860731E+03  0.22743798803E+03  0.16928880569E+03 0.  0.
         24    2    5    5    0    0 -0.63415340841E+02 -0.23992206263E+02  0.12721513991E+03  0.16432972260E+03  0.78888747576E+02 0.  0.
          5    1    5    5  501    0  0.40019656440E+02  0.43510276929E+02  0.21583467403E+02  0.63108265427E+02  0.47000000000E+01 0. -1.
        -11    1    6    6    0    0 -0.71294561487E+02 -0.97300193392E+01  0.55736006740E+02  0.91016977654E+02  0.00000000000E+00 0.  1.
         12    1    6    6    0    0  0.78792206457E+01 -0.14262186924E+02  0.71479133165E+02  0.73312744948E+02  0.00000000000E+00 0. -1.
         -5    1    3    3    0  503 -0.13223810122E+02 -0.12132704643E+02  0.12988571359E+02  0.22646515450E+02  0.47000000000E+01 0.  1.
         11    1    4    4    0    0  0.24857977261E+02  0.40985063410E+02 -0.12563499191E+03  0.13446875343E+03  0.00000000000E+00 0. -1.
        -12    1    4    4    0    0  0.11761517262E+02 -0.48370429434E+02 -0.15206855344E+03  0.16000898936E+03  0.00000000000E+00 0.  1.
</event>
<event>
12    1  0.1630640E-001  0.2030634E+03  0.7818608E-02  0.1148239E+00
         21   -1    0    0  503  502  0.00000000000E+00  0.00000000000E+00  0.68583088064E+03  0.68583088064E+03  0.00000000000E+00 0. -1.
         21   -1    0    0  501  503 -0.00000000000E+00 -0.00000000000E+00 -0.65855814281E+02  0.65855814281E+02  0.00000000000E+00 0. -1.
          6    2    1    2  501    0  0.10102036035E+03  0.18087023799E+02  0.43788662177E+03  0.48267945262E+03  0.17522130811E+03 0.  0.
         24    2    3    3    0    0  0.24026619480E+02  0.59302852023E+01  0.83289947848E+02  0.11958619520E+03  0.82165661579E+02 0.  0.
         -6    2    1    2    0  502 -0.10102036035E+03 -0.18087023799E+02  0.18208844458E+03  0.26900724230E+03  0.16934119736E+03 0.  0.
        -24    2    5    5    0    0  0.11865732137E+00 -0.48679227538E+02  0.84309406344E+02  0.12496622681E+03  0.78350498222E+02 0.  0.
          5    1    3    3  501    0  0.76993740869E+02  0.12156738597E+02  0.35459667392E+03  0.36309325742E+03  0.47000000000E+01 0. -1.
        -13    1    4    4    0    0 -0.22318995343E+02 -0.21648691624E+02  0.38454432944E+02  0.49452470264E+02  0.00000000000E+00 0.  1.
         14    1    4    4    0    0  0.46345614823E+02  0.27578976826E+02  0.44835514903E+02  0.70133724932E+02  0.00000000000E+00 0. -1.
         -5    1    5    5    0  502 -0.10113901767E+03  0.30592203739E+02  0.97779038240E+02  0.14404101549E+03  0.47000000000E+01 0.  1.
         13    1    6    6    0    0 -0.35238132371E+02 -0.39501428536E+02  0.64403269378E+02  0.83365879927E+02  0.00000000000E+00 0. -1.
        -14    1    6    6    0    0  0.35356789692E+02 -0.91777990024E+01  0.19906136966E+02  0.41600346883E+02  0.00000000000E+00 0.  1.
</event>
<event>
12    1  0.1630640E-001  0.2144132E+03  0.7818608E-02  0.1138391E+00
         21   -1    0    0  501  502  0.00000000000E+00  0.00000000000E+00  0.56583573872E+03  0.56583573872E+03  0.00000000000E+00 0.  1.
         21   -1    0    0  502  503 -0.00000000000E+00 -0.00000000000E+00 -0.83635371435E+02  0.83635371435E+02  0.00000000000E+00 0.  1.
         -6    2    1    2    0  503 -0.90313408572E+02  0.88969012221E+02  0.18118491028E+03  0.28071516943E+03  0.17291916530E+03 0.  0.
        -24    2    3    3    0    0 -0.58525049186E+01 -0.11019430604E+02  0.85437940935E+02  0.11847798169E+03  0.81127743284E+02 0.  0.
          6    2    1    2  501    0  0.90313408572E+02 -0.88969012221E+02  0.30101545700E+03  0.36875594072E+03  0.17116845960E+03 0.  0.
         24    2    5    5    0    0  0.21006575288E+02 -0.11551239885E+03  0.24185615934E+03  0.27373014942E+03  0.51472345932E+02 0.  0.
          5    1    5    5  501    0  0.69306833284E+02  0.26543386631E+02  0.59159297661E+02  0.95025791307E+02  0.47000000000E+01 0. -1.
        -13    1    6    6    0    0  0.35939530386E+02 -0.60390184341E+02  0.14854860408E+03  0.16433293031E+03  0.00000000000E+00 0.  1.
         14    1    6    6    0    0 -0.14932955098E+02 -0.55122214511E+02  0.93307555255E+02  0.10939721911E+03  0.00000000000E+00 0. -1.
         -5    1    3    3    0  503 -0.84460903654E+02  0.99988442825E+02  0.95746969346E+02  0.16223718773E+03  0.47000000000E+01 0.  1.
         13    1    4    4    0    0 -0.42404555519E+02 -0.97150819424E+01  0.33275794381E+02  0.54770499702E+02  0.00000000000E+00 0. -1.
        -14    1    4    4    0    0  0.36552050601E+02 -0.13043486621E+01  0.52162146554E+02  0.63707481992E+02  0.00000000000E+00 0.  1.
</event>
<event>
12    1  0.1630640E-001  0.2970395E+03  0.7818608E-02  0.1086933E+00
         21   -1    0    0  503  502  0.00000000000E+00  0.00000000000E+00  0.12428318117E+03  0.12428318117E+03  0.00000000000E+00 0. -1.
         21   -1    0    0  501  503 -0.00000000000E+00 -0.00000000000E+00 -0.71193816058E+03  0.71193816058E+03  0.00000000000E+00 0.  1.
          6    2    1    2  501    0 -0.18542405277E+03  0.14980594637E+03 -0.33083140766E+03  0.44354998720E+03  0.17453730242E+03 0.  0.
         24    2    3    3    0    0 -0.72385635503E+02  0.76100600912E+02 -0.66788891113E+02  0.14698515066E+03  0.78185016796E+02 0.  0.
         -6    2    1    2    0  502  0.18542405277E+03 -0.14980594637E+03 -0.25682357175E+03  0.39267135455E+03  0.17722456027E+03 0.  0.
        -24    2    5    5    0    0  0.68489826433E+02 -0.13087839094E+02 -0.48936911877E+02  0.11770879801E+03  0.81230486439E+02 0.  0.
          5    1    3    3  501    0 -0.11303841727E+03  0.73705345463E+02 -0.26404251655E+03  0.29656483654E+03  0.47000000000E+01 0. -1.
        -11    1    4    4    0    0 -0.57961123655E+01 -0.15182760307E+02 -0.16978558061E+02  0.23502820319E+02  0.00000000000E+00 0.  1.
         12    1    4    4    0    0 -0.66589523137E+02  0.91283361219E+02 -0.49810333052E+02  0.12348233034E+03  0.00000000000E+00 0. -1.
         -5    1    5    5    0  502  0.11693422634E+03 -0.13671810728E+03 -0.20788665987E+03  0.27496255654E+03  0.47000000000E+01 0.  1.
         13    1    6    6    0    0 -0.12572155317E+02 -0.20020365345E+02 -0.21196503819E+02  0.31751628179E+02  0.00000000000E+00 0. -1.
        -14    1    6    6    0    0  0.81061981750E+02  0.69325262504E+01 -0.27740408058E+02  0.85957169827E+02  0.00000000000E+00 0.  1.
</event>
<event>
12    1  0.1630640E-001  0.1963005E+03  0.7818608E-02  0.1153276E+00
         21   -1    0    0  501  502  0.00000000000E+00  0.00000000000E+00  0.23309298662E+03  0.23309298662E+03  0.00000000000E+00 0.  1.
         21   -1    0    0  502  503 -0.00000000000E+00 -0.00000000000E+00 -0.31021566975E+03  0.31021566975E+03  0.00000000000E+00 0.  1.
         -6    2    1    2    0  503  0.83758546401E+02 -0.40831590802E+02 -0.22506471859E+03  0.29750238509E+03  0.17079469746E+03 0.  0.
        -24    2    3    3    0    0  0.60768475134E+02 -0.71298423825E+02 -0.10598874453E+03  0.17237065894E+03  0.98497498887E+02 0.  0.
          6    2    1    2  501    0 -0.83758546401E+02  0.40831590802E+02  0.14794203546E+03  0.24580627128E+03  0.17277489471E+03 0.  0.
         24    2    5    5    0    0 -0.86620708738E+02  0.79273787698E+02  0.15020375013E+03  0.20690640202E+03  0.80384152942E+02 0.  0.
          5    1    5    5  501    0  0.28621623370E+01 -0.38442196896E+02 -0.22617146710E+01  0.38899869263E+02  0.47000000000E+01 0. -1.
        -13    1    6    6    0    0 -0.15553147084E+02 -0.13917065622E+02  0.44206910689E+02  0.48885949437E+02  0.00000000000E+00 0.  1.
         14    1    6    6    0    0 -0.71067561654E+02  0.93190853320E+02  0.10599683944E+03  0.15802045258E+03  0.00000000000E+00 0. -1.
         -5    1    3    3    0  503  0.22990071268E+02  0.30466833023E+02 -0.11907597406E+03  0.12513172615E+03  0.47000000000E+01 0.  1.
         11    1    4    4    0    0  0.97166091382E+01 -0.61100546692E+02 -0.10308955270E+03  0.12022955200E+03  0.00000000000E+00 0. -1.
        -12    1    4    4    0    0  0.51051865996E+02 -0.10197877133E+02 -0.28991918334E+01  0.52141106940E+02  0.00000000000E+00 0.  1.
</event>
<event>
12    1  0.1630640E-001  0.2038079E+03  0.7818608E-02  0.1146818E+00
         21   -1    0    0  503  502  0.00000000000E+00  0.00000000000E+00  0.40044448758E+03  0.40044448758E+03  0.00000000000E+00 0. -1.
         21   -1    0    0  501  503 -0.00000000000E+00 -0.00000000000E+00 -0.10610285405E+03  0.10610285405E+03  0.00000000000E+00 0. -1.
          6    2    1    2  501    0 -0.82340070447E+02 -0.72697288549E+02  0.10504813140E+03  0.22928748673E+03  0.17167661080E+03 0.  0.
         24    2    3    3    0    0 -0.10889185135E+03 -0.89325185098E+02  0.66264286965E+02  0.17920994084E+03  0.88819047417E+02 0.  0.
         -6    2    1    2    0  502  0.82340070447E+02  0.72697288549E+02  0.18929350212E+03  0.27725985490E+03  0.17022401192E+03 0.  0.
        -24    2    5    5    0    0  0.91720586125E+02  0.90699459823E+02  0.20232678469E+03  0.25268285957E+03  0.79205061608E+02 0.  0.
          5    1    3    3  501    0  0.26551780906E+02  0.16627896549E+02  0.38783844438E+02  0.50077545890E+02  0.47000000000E+01 0. -1.
        -13    1    4    4    0    0 -0.48500551984E+01 -0.12851906267E+01 -0.18191789404E+02  0.18871034738E+02  0.00000000000E+00 0.  1.
         14    1    4    4    0    0 -0.10404179615E+03 -0.88039994471E+02  0.84456076369E+02  0.16033890610E+03  0.00000000000E+00 0. -1.
         -5    1    5    5    0  502 -0.93805156788E+01 -0.18002171275E+02 -0.13033282575E+02  0.24576995335E+02  0.47000000000E+01 0.  1.
         13    1    6    6    0    0  0.55162124139E+00  0.46474189132E+02  0.39972470794E+02  0.61302144847E+02  0.00000000000E+00 0. -1.
        -14    1    6    6    0    0  0.91168964884E+02  0.44225270691E+02  0.16235431390E+03  0.19138071472E+03  0.00000000000E+00 0.  1.
</event>
<event>
12    1  0.1630640E-001  0.2879472E+03  0.7818608E-02  0.1091608E+00
         21   -1    0    0  503  502  0.00000000000E+00  0.00000000000E+00  0.11893489353E+03  0.11893489353E+03  0.00000000000E+00 0. -1.
         21   -1    0    0  501  503 -0.00000000000E+00 -0.00000000000E+00 -0.83440666539E+03  0.83440666539E+03  0.00000000000E+00 0.  1.
          6    2    1    2  501    0  0.22166421068E+03  0.60350978523E+02 -0.16134925876E+03  0.32886950476E+03  0.17130179495E+03 0.  0.
         24    2    3    3    0    0  0.86421476289E+02  0.85096420210E+02 -0.10986967051E+03  0.18198461072E+03  0.79605161548E+02 0.  0.
         -6    2    1    2    0  502 -0.22166421068E+03 -0.60350978523E+02 -0.55412251310E+03  0.62447205416E+03  0.17359816817E+03 0.  0.
        -24    2    5    5    0    0 -0.14204087110E+03 -0.10352779570E+03 -0.42346806086E+03  0.46542240896E+03  0.79995041380E+02 0.  0.
          5    1    3    3  501    0  0.13524273439E+03 -0.24745441688E+02 -0.51479588253E+02  0.14688489404E+03  0.47000000000E+01 0. -1.
        -11    1    4    4    0    0  0.16483362559E+01  0.45360403796E+02 -0.61980893792E+02  0.76823918412E+02  0.00000000000E+00 0.  1.
         12    1    4    4    0    0  0.84773140033E+02  0.39736016414E+02 -0.47888776718E+02  0.10516069231E+03  0.00000000000E+00 0. -1.
         -5    1    5    5    0  502 -0.79623339587E+02  0.43176817174E+02 -0.13065445224E+03  0.15904964520E+03  0.47000000000E+01 0.  1.
         13    1    6    6    0    0 -0.25973548702E+02 -0.58416866241E+02 -0.98666206510E+02  0.11756774983E+03  0.00000000000E+00 0. -1.
        -14    1    6    6    0    0 -0.11606732239E+03 -0.45110929456E+02 -0.32480185435E+03  0.34785465913E+03  0.00000000000E+00 0.  1.
</event>
<event>
12    1  0.1630640E-001  0.2292305E+03  0.7818608E-02  0.1127484E+00
         21   -1    0    0  503  502  0.00000000000E+00  0.00000000000E+00  0.24273422301E+04  0.24273422301E+04  0.00000000000E+00 0. -1.
         21   -1    0    0  501  503 -0.00000000000E+00 -0.00000000000E+00 -0.53432737677E+02  0.53432737677E+02  0.00000000000E+00 0. -1.
          6    2    1    2  501    0 -0.14953920883E+03  0.24649016995E+02  0.22965112445E+03  0.32447842256E+03  0.17197982072E+03 0.  0.
         24    2    3    3    0    0 -0.90484707692E+02  0.59261550936E+02  0.21667465515E+03  0.25465048857E+03  0.78737230072E+02 0.  0.
         -6    2    1    2    0  502  0.14953920883E+03 -0.24649016995E+02  0.21442583680E+04  0.21562965452E+04  0.16970943770E+03 0.  0.
        -24    2    5    5    0    0  0.15458212358E+03 -0.18450346579E+02  0.21371097242E+04  0.21445898116E+04  0.88269125755E+02 0.  0.
          5    1    3    3  501    0 -0.59054501138E+02 -0.34612533941E+02  0.12976469298E+02  0.69827933994E+02  0.47000000000E+01 0. -1.
        -13    1    4    4    0    0 -0.22286314869E+02  0.59829018764E+02  0.84391685679E+02  0.10582130186E+03  0.00000000000E+00 0.  1.
         14    1    4    4    0    0 -0.68198392823E+02 -0.56746782761E+00  0.13228296947E+03  0.14882918670E+03  0.00000000000E+00 0. -1.
         -5    1    5    5    0  502 -0.50429147486E+01 -0.61986704153E+01  0.71486437999E+01  0.11706733629E+02  0.47000000000E+01 0.  1.
         13    1    6    6    0    0  0.14629593510E+02 -0.12213560912E+02  0.78713471255E+03  0.78736538645E+03  0.00000000000E+00 0. -1.
        -14    1    6    6    0    0  0.13995253007E+03 -0.62367856677E+01  0.13499750116E+04  0.13572244251E+04  0.00000000000E+00 0.  1.
</event>
<event>
12    1  0.1630640E-001  0.2183849E+03  0.7818608E-02  0.1135343E+00
         21   -1    0    0  501  502  0.00000000000E+00  0.00000000000E+00  0.25264184638E+03  0.25264184638E+03  0.00000000000E+00 0. -1.
         21   -1    0    0  502  503 -0.00000000000E+00 -0.00000000000E+00 -0.27846876292E+03  0.27846876292E+03  0.00000000000E+00 0. -1.
         -6    2    1    2    0  503 -0.27248502831E+02 -0.13140453645E+03 -0.16455840355E+03  0.27238609746E+03  0.17060212427E+03 0.  0.
        -24    2    3    3    0    0 -0.56678945374E+02 -0.14727763966E+03 -0.10957432872E+03  0.20786133602E+03  0.79351090133E+02 0.  0.
          6    2    1    2  501    0  0.27248502831E+02  0.13140453645E+03  0.13873148702E+03  0.25872451184E+03  0.17228556072E+03 0.  0.
         24    2    5    5    0    0  0.46306840598E+02  0.14006806097E+03  0.61287329210E+02  0.17836305047E+03  0.79333825444E+02 0.  0.
          5    1    5    5  501    0 -0.19058337766E+02 -0.86635245249E+01  0.77444157806E+02  0.80361461372E+02  0.47000000000E+01 0. -1.
        -11    1    6    6    0    0 -0.84122375744E+01  0.24665202123E+02 -0.14528858687E+02  0.29836649804E+02  0.00000000000E+00 0.  1.
         12    1    6    6    0    0  0.54719078172E+02  0.11540285885E+03  0.75816187897E+02  0.14852640066E+03  0.00000000000E+00 0. -1.
         -5    1    3    3    0  503  0.29430442542E+02  0.15873103210E+02 -0.54984074834E+02  0.64524761442E+02  0.47000000000E+01 0.  1.
         11    1    4    4    0    0 -0.91527702545E+01 -0.10586708762E+03 -0.96378250186E+02  0.14345863708E+03  0.00000000000E+00 0. -1.
        -12    1    4    4    0    0 -0.47526175119E+02 -0.41410552035E+02 -0.13196078531E+02  0.64402698934E+02  0.00000000000E+00 0.  1.
</event>
<event>
12    1  0.1630640E-001  0.2563796E+03  0.7818608E-02  0.1109390E+00
         21   -1    0    0  503  502  0.00000000000E+00  0.00000000000E+00  0.10982893071E+03  0.10982893071E+03  0.00000000000E+00 0.  1.
         21   -1    0    0  501  503 -0.00000000000E+00 -0.00000000000E+00 -0.77124977899E+03  0.77124977899E+03  0.00000000000E+00 0. -1.
          6    2    1    2  501    0  0.19006013764E+03  0.13589632937E+02 -0.12189404459E+03  0.28388137552E+03  0.17153117272E+03 0.  0.
         24    2    3    3    0    0  0.18394884226E+03  0.57319550410E+02 -0.11637404435E+03  0.23913526936E+03  0.80746835392E+02 0.  0.
         -6    2    1    2    0  502 -0.19006013764E+03 -0.13589632937E+02 -0.53952680369E+03  0.59719733418E+03  0.17102032046E+03 0.  0.
        -24    2    5    5    0    0 -0.15212848533E+03 -0.21226229650E+02 -0.52949140783E+03  0.55694901712E+03  0.78977388137E+02 0.  0.
          5    1    3    3  501    0  0.61112953804E+01 -0.43729917473E+02 -0.55200002385E+01  0.44746106155E+02  0.47000000000E+01 0. -1.
        -13    1    4    4    0    0  0.78564341654E+02  0.84688212947E+01 -0.65668162286E+01  0.79291864583E+02  0.00000000000E+00 0.  1.
         14    1    4    4    0    0  0.10538450060E+03  0.48850729115E+02 -0.10980722812E+03  0.15984340478E+03  0.00000000000E+00 0. -1.
         -5    1    5    5    0  502 -0.37931652305E+02  0.76365967134E+01 -0.10035395866E+02  0.40248317059E+02  0.47000000000E+01 0.  1.
         13    1    6    6    0    0 -0.14927989111E+03 -0.19615852482E+01 -0.42012851766E+03  0.44586579266E+03  0.00000000000E+00 0. -1.
        -14    1    6    6    0    0 -0.28485942210E+01 -0.19264644402E+02 -0.10936289016E+03  0.11108322447E+03  0.00000000000E+00 0.  1.
</event>
<event>
12    1  0.1630640E-001  0.2104731E+03  0.7818608E-02  0.1141193E+00
         21   -1    0    0  501  502  0.00000000000E+00  0.00000000000E+00  0.23276467682E+03  0.23276467682E+03  0.00000000000E+00 0. -1.
         21   -1    0    0  502  503 -0.00000000000E+00 -0.00000000000E+00 -0.28330124822E+03  0.28330124822E+03  0.00000000000E+00 0. -1.
         -6    2    1    2    0  503 -0.47773885290E+01 -0.12141092836E+03 -0.17310041233E+03  0.27251178089E+03  0.17185889854E+03 0.  0.
        -24    2    3    3    0    0  0.33748709020E+02 -0.14145658590E+03 -0.14380854817E+03  0.21991718150E+03  0.80831473671E+02 0.  0.
          6    2    1    2  501    0  0.47773885290E+01  0.12141092836E+03  0.12256384094E+03  0.24355414415E+03  0.17185252125E+03 0.  0.
         24    2    5    5    0    0  0.12713318317E+02  0.47215888800E+01  0.99857758635E+01  0.81149428494E+02  0.79382568370E+02 0.  0.
          5    1    5    5  501    0 -0.79359297878E+01  0.11668933948E+03  0.11257806507E+03  0.16240471565E+03  0.47000000000E+01 0. -1.
        -13    1    6    6    0    0 -0.32538944670E+02  0.41739318946E+01 -0.56103493163E+01  0.33281836595E+02  0.00000000000E+00 0.  1.
         14    1    6    6    0    0  0.45252262986E+02  0.54765698540E+00  0.15596125180E+02  0.47867591899E+02  0.00000000000E+00 0. -1.
         -5    1    3    3    0  503 -0.38526097549E+02  0.20045657542E+02 -0.29291864162E+02  0.52594599388E+02  0.47000000000E+01 0.  1.
         13    1    4    4    0    0  0.22731155957E+02 -0.16876954587E+02 -0.68027604412E+02  0.73683729611E+02  0.00000000000E+00 0. -1.
        -14    1    4    4    0    0  0.11017553063E+02 -0.12457963132E+03 -0.75780943760E+02  0.14623345189E+03  0.00000000000E+00 0.  1.
</event>
<event>
12    1  0.1630640E-001  0.2183064E+03  0.7818608E-02  0.1135247E+00
         21   -1    0    0  503  502  0.00000000000E+00  0.00000000000E+00  0.17440921838E+03  0.17440921838E+03  0.00000000000E+00 0.  1.
         21   -1    0    0  501  503 -0.00000000000E+00 -0.00000000000E+00 -0.32075606521E+03  0.32075606521E+03  0.00000000000E+00 0.  1.
          6    2    1    2  501    0 -0.10540887037E+03 -0.82943222817E+02 -0.16915703869E+03  0.27617349598E+03  0.17224136548E+03 0.  0.
         24    2    3    3    0    0 -0.96288466692E+02  0.75915443754E+01 -0.77680119947E+02  0.14706175176E+03  0.79144535077E+02 0.  0.
         -6    2    1    2    0  502  0.10540887037E+03  0.82943222817E+02  0.22810191858E+02  0.21899178760E+03  0.17159979610E+03 0.  0.
        -24    2    5    5    0    0  0.91837364797E+02  0.81413334380E+02 -0.42370626376E+02  0.15222985692E+03  0.79475950903E+02 0.  0.
          5    1    3    3  501    0 -0.91204036765E+01 -0.90534767193E+02 -0.91476918739E+02  0.12911174422E+03  0.47000000000E+01 0. -1.
        -13    1    4    4    0    0 -0.39628981576E+02  0.58354912253E+01 -0.80910606628E+02  0.90283084814E+02  0.00000000000E+00 0.  1.
         14    1    4    4    0    0 -0.56659485115E+02  0.17560531501E+01  0.32304866809E+01  0.56778666948E+02  0.00000000000E+00 0. -1.
         -5    1    5    5    0  502  0.13571505572E+02  0.15298884374E+01  0.65180818234E+02  0.66761930677E+02  0.47000000000E+01 0.  1.
         11    1    6    6    0    0  0.12673965779E+02  0.40527058348E+02 -0.46582725014E+02  0.63031913636E+02  0.00000000000E+00 0. -1.
        -12    1    6    6    0    0  0.79163399018E+02  0.40886276032E+02  0.42120986383E+01  0.89197943288E+02  0.00000000000E+00 0.  1.
</event>
<event>
12    1  0.1630640E-001  0.2547291E+03  0.7818608E-02  0.1110459E+00
         21   -1    0    0  501  502  0.00000000000E+00  0.00000000000E+00  0.11326107796E+03  0.11326107796E+03  0.00000000000E+00 0. -1.
         21   -1    0    0  502  503 -0.00000000000E+00 -0.00000000000E+00 -0.57560194488E+03  0.57560194488E+03  0.00000000000E+00 0.  1.
         -6    2    1    2    0  503 -0.18344790612E+03  0.37154202125E+02 -0.26113251092E+03  0.36479732785E+03  0.17278117129E+03 0.  0.
        -24    2    3    3    0    0 -0.29052686670E+02  0.26872316798E+02 -0.52966851704E+02  0.10537752785E+03  0.82053372774E+02 0.  0.
          6    2    1    2  501    0  0.18344790612E+03 -0.37154202125E+02 -0.20120835601E+03  0.32406569499E+03  0.17175623176E+03 0.  0.
         24    2    5    5    0    0  0.15133128799E+03 -0.61854260575E+02 -0.21441763816E+03  0.28119209959E+03  0.79793264393E+02 0.  0.
          5    1    5    5  501    0  0.32116618124E+02  0.24700058451E+02  0.13209282156E+02  0.42873595397E+02  0.47000000000E+01 0. -1.
        -13    1    6    6    0    0  0.47885619037E+01 -0.47538224849E+00 -0.58130537446E+02  0.58329372508E+02  0.00000000000E+00 0.  1.
         14    1    6    6    0    0  0.14654272609E+03 -0.61378878327E+02 -0.15628710072E+03  0.22286272709E+03  0.00000000000E+00 0. -1.
         -5    1    3    3    0  503 -0.15439521945E+03  0.10281885327E+02 -0.20816565922E+03  0.25941980000E+03  0.47000000000E+01 0.  1.
         13    1    4    4    0    0 -0.34163639526E+02  0.35787706141E+02 -0.69859109774E+02  0.85604961275E+02  0.00000000000E+00 0. -1.
        -14    1    4    4    0    0  0.51109528564E+01 -0.89153893426E+01  0.16892258071E+02  0.19772566575E+02  0.00000000000E+00 0.  1.
</event>
<event>
12    1  0.1630640E-001  0.3506574E+03  0.7818608E-02  0.1062353E+00
         21   -1    0    0  503  502  0.00000000000E+00  0.00000000000E+00  0.29034169362E+03  0.29034169362E+03  0.00000000000E+00 0. -1.
         21   -1    0    0  501  503 -0.00000000000E+00 -0.00000000000E+00 -0.98852252660E+03  0.98852252660E+03  0.00000000000E+00 0.  1.
          6    2    1    2  501    0 -0.23104448022E+03  0.19982489175E+03 -0.83254124112E+03  0.90334682349E+03  0.17204367505E+03 0.  0.
         24    2    3    3    0    0 -0.24449811561E+03  0.17244844468E+03 -0.66876005522E+03  0.73668297913E+03  0.77097377823E+02 0.  0.
         -6    2    1    2    0  502  0.23104448022E+03 -0.19982489175E+03  0.13436040814E+03  0.37551739674E+03  0.17218901467E+03 0.  0.
        -24    2    5    5    0    0  0.24547259510E+03 -0.20662229555E+03  0.13846140580E+03  0.35839187837E+03  0.79521126905E+02 0.  0.
          5    1    3    3  501    0  0.13453635397E+02  0.27376447070E+02 -0.16378118590E+03  0.16666384435E+03  0.47000000000E+01 0. -1.
        -11    1    4    4    0    0 -0.10964552486E+03  0.11377257134E+03 -0.40435155738E+03  0.43412730974E+03  0.00000000000E+00 0.  1.
         12    1    4    4    0    0 -0.13485259076E+03  0.58675873347E+02 -0.26440849785E+03  0.30255566939E+03  0.00000000000E+00 0. -1.
         -5    1    5    5    0  502 -0.14428114883E+02  0.67974037973E+01 -0.41009976538E+01  0.17125518364E+02  0.47000000000E+01 0.  1.
         13    1    6    6    0    0  0.17716568940E+03 -0.18662816317E+03  0.91452875764E+02  0.27309591955E+03  0.00000000000E+00 0. -1.
        -14    1    6    6    0    0  0.68306905700E+02 -0.19994132384E+02  0.47008530034E+02  0.85295958826E+02  0.00000000000E+00 0.  1.
</event>
<event>
12    1  0.1630640E-001  0.2852431E+03  0.7818608E-02  0.1092968E+00
         21   -1    0    0  503  502  0.00000000000E+00  0.00000000000E+00  0.60648714687E+02  0.60648714687E+02  0.00000000000E+00 0.  1.
         21   -1    0    0  501  503 -0.00000000000E+00 -0.00000000000E+00 -0.14895696760E+04  0.14895696760E+04  0.00000000000E+00 0. -1.
          6    2    1    2  501    0 -0.18047333305E+03 -0.13779654979E+03 -0.96285128513E+03  0.10042142439E+04  0.17264164396E+03 0.  0.
         24    2    3    3    0    0 -0.12611984182E+03 -0.88042300951E+02 -0.39317714566E+03  0.42977494988E+03  0.80377723421E+02 0.  0.
         -6    2    1    2    0  502  0.18047333305E+03  0.13779654979E+03 -0.46606967621E+03  0.54600414685E+03  0.17129235890E+03 0.  0.
        -24    2    5    5    0    0  0.17915538407E+03  0.14793575618E+03 -0.33972677811E+03  0.41916110054E+03  0.79373199784E+02 0.  0.
          5    1    3    3  501    0 -0.54353491230E+02 -0.49754248840E+02 -0.56967413948E+03  0.57443929398E+03  0.47000000000E+01 0. -1.
        -13    1    4    4    0    0  0.36527473887E+01  0.55838803824E+00  0.22117424225E+01  0.43065258887E+01  0.00000000000E+00 0.  1.
         14    1    4    4    0    0 -0.12977258921E+03 -0.88600688990E+02 -0.39538888808E+03  0.42546842399E+03  0.00000000000E+00 0. -1.
         -5    1    5    5    0  502  0.13179489733E+01 -0.10139206390E+02 -0.12634289811E+03  0.12684304631E+03  0.47000000000E+01 0.  1.
         13    1    6    6    0    0  0.48356529174E+02  0.47682111269E+00 -0.63470015029E+02  0.79793634332E+02  0.00000000000E+00 0. -1.
        -14    1    6    6    0    0  0.13079885490E+03  0.14745893507E+03 -0.27625676308E+03  0.33936746621E+03  0.00000000000E+00 0.  1.
</event>
<event>
12    1  0.1630640E-001  0.2970127E+03  0.7818608E-02  0.1086777E+00
         21   -1    0    0  503  502  0.00000000000E+00  0.00000000000E+00  0.55660768431E+02  0.55660768431E+02  0.00000000000E+00 0. -1.
         21   -1    0    0  501  503 -0.00000000000E+00 -0.00000000000E+00 -0.15846789634E+04  0.15846789634E+04  0.00000000000E+00 0.  1.
          6    2    1    2  501    0  0.18821980564E+03  0.15251625575E+03 -0.78738932741E+03  0.84154528895E+03  0.17183892727E+03 0.  0.
         24    2    3    3    0    0  0.99581074494E+02  0.30105418425E+02 -0.50042803157E+03  0.51718420456E+03  0.78921226862E+02 0.  0.
         -6    2    1    2    0  502 -0.18821980564E+03 -0.15251625575E+03 -0.74162886757E+03  0.79879444289E+03  0.17138051605E+03 0.  0.
        -24    2    5    5    0    0 -0.92176467777E+02 -0.12019513699E+03 -0.60831494289E+03  0.63127229517E+03  0.74258122329E+02 0.  0.
          5    1    3    3  501    0  0.88638731148E+02  0.12241083733E+03 -0.28696129584E+03  0.32436108438E+03  0.47000000000E+01 0. -1.
        -11    1    4    4    0    0  0.42762144136E+02  0.51120842488E+02 -0.20338993663E+03  0.21403132442E+03  0.00000000000E+00 0.  1.
         12    1    4    4    0    0  0.56818930358E+02 -0.21015424064E+02 -0.29703809494E+03  0.30315288014E+03  0.00000000000E+00 0. -1.
         -5    1    5    5    0  502 -0.96043337865E+02 -0.32321118762E+02 -0.13331392468E+03  0.16752214773E+03  0.47000000000E+01 0.  1.
         13    1    6    6    0    0 -0.12848455895E+01 -0.32880148444E+02 -0.57762957657E+02  0.66477923156E+02  0.00000000000E+00 0. -1.
        -14    1    6    6    0    0 -0.90891622188E+02 -0.87314988544E+02 -0.55055198523E+03  0.56479437201E+03  0.00000000000E+00 0.  1.
</event>
<event>
12    1  0.1630640E-001  0.2598305E+03  0.7818608E-02  0.1107284E+00
         21   -1    0    0  503  502  0.00000000000E+00  0.00000000000E+00  0.27732213730E+03  0.27732213730E+03  0.00000000000E+00 0.  1.
         21   -1    0    0  501  503 -0.00000000000E+00 -0.00000000000E+00 -0.33804080567E+03  0.33804080567E+03  0.00000000000E+00 0. -1.
          6    2    1    2  501    0  0.12174214692E+03  0.15345965177E+03  0.13260023947E+03  0.29170997591E+03  0.17070697549E+03 0.  0.
         24    2    3    3    0    0  0.14719065789E+03  0.12439234211E+03  0.74949923856E+02  0.22215291954E+03  0.81215048028E+02 0.  0.
         -6    2    1    2    0  502 -0.12174214692E+03 -0.15345965177E+03 -0.19331890783E+03  0.32365296706E+03  0.17031743276E+03 0.  0.
        -24    2    5    5    0    0 -0.95171673323E+02 -0.48423110215E+02 -0.16238444623E+03  0.21088020420E+03  0.81849295283E+02 0.  0.
          5    1    3    3  501    0 -0.25448510971E+02  0.29067309656E+02  0.57650315613E+02  0.69557056375E+02  0.47000000000E+01 0. -1.
        -11    1    4    4    0    0  0.42633243048E+02  0.36753606371E+02  0.64080260509E+02  0.85291856475E+02  0.00000000000E+00 0.  1.
         12    1    4    4    0    0  0.10455741484E+03  0.87638735742E+02  0.10869663346E+02  0.13686106306E+03  0.00000000000E+00 0. -1.
         -5    1    5    5    0  502 -0.26570473599E+02 -0.10503654155E+03 -0.30934461597E+02  0.11277276286E+03  0.47000000000E+01 0.  1.
         13    1    6    6    0    0 -0.60455229742E+02 -0.69721855797E+02 -0.97295317988E+02  0.13409828814E+03  0.00000000000E+00 0. -1.
        -14    1    6    6    0    0 -0.34716443581E+02  0.21298745582E+02 -0.65089128246E+02  0.76781916062E+02  0.00000000000E+00 0.  1.
</event>
<event>
12    1  0.1630640E-001  0.2075841E+03  0.7818608E-02  0.1144512E+00
         21   -1    0    0  501  502  0.00000000000E+00  0.00000000000E+00  0.92786893636E+02  0.92786893636E+02  0.00000000000E+00 0. -1.
         21   -1    0    0  502  503 -0.00000000000E+00 -0.00000000000E+00 -0.19248796882E+04  0.19248796882E+04  0.00000000000E+00 0. -1.
         -6    2    1    2    0  503  0.14292493236E+02 -0.10461157361E+03 -0.18007505312E+04  0.18126758193E+04  0.17872686797E+03 0.  0.
        -24    2    3    3    0    0  0.70919676195E+02 -0.48851703824E+02 -0.81947305468E+03  0.82817423120E+03  0.83188823968E+02 0.  0.
          6    2    1    2  501    0 -0.14292493236E+02  0.10461157361E+03 -0.31342263330E+02  0.20499076256E+03  0.17289019223E+03 0.  0.
         24    2    5    5    0    0 -0.49317087651E+02  0.64224918292E+02  0.36370999350E+02  0.11859064633E+03  0.78637628017E+02 0.  0.
          5    1    5    5  501    0  0.35024594415E+02  0.40386655321E+02 -0.67713262680E+02  0.86400116231E+02  0.47000000000E+01 0. -1.
        -13    1    6    6    0    0  0.15367992469E+02  0.85282567472E+01  0.27681484356E+02  0.32789799204E+02  0.00000000000E+00 0.  1.
         14    1    6    6    0    0 -0.64685080120E+02  0.55696661545E+02  0.86895149937E+01  0.85800847130E+02  0.00000000000E+00 0. -1.
         -5    1    3    3    0  503 -0.56627182959E+02 -0.55759869790E+02 -0.98127747657E+03  0.98450158809E+03  0.47000000000E+01 0.  1.
         11    1    4    4    0    0  0.75228231730E+02 -0.43673273972E+02 -0.81594724766E+03  0.82057086999E+03  0.00000000000E+00 0. -1.
        -12    1    4    4    0    0 -0.43085555346E+01 -0.51784298520E+01 -0.35258070199E+01  0.76033612086E+01  0.00000000000E+00 0.  1.
</event>
<event>
12    1  0.1630640E-001  0.1898641E+03  0.7818608E-02  0.1158807E+00
         21   -1    0    0  503  502  0.00000000000E+00  0.00000000000E+00  0.31333273822E+02  0.31333273822E+02  0.00000000000E+00 0.  1.
         21   -1    0    0  501  503 -0.00000000000E+00 -0.00000000000E+00 -0.11616946741E+04  0.11616946741E+04  0.00000000000E+00 0.  1.
          6    2    1    2  501    0 -0.72422541965E+02 -0.31185781467E+02 -0.63627277844E+03  0.66371524560E+03  0.17163129410E+03 0.  0.
         24    2    3    3    0    0 -0.10343502807E+03 -0.58708447345E+02 -0.43739095947E+03  0.46050269838E+03  0.81279745142E+02 0.  0.
         -6    2    1    2    0  502  0.72422541965E+02  0.31185781467E+02 -0.49408862182E+03  0.52931270230E+03  0.17271593167E+03 0.  0.
        -24    2    5    5    0    0  0.98983750670E+01 -0.43733284204E+02 -0.21299217182E+03  0.23172331733E+03  0.79494984492E+02 0.  0.
          5    1    3    3  501    0  0.31012486104E+02  0.27522665878E+02 -0.19888181897E+03  0.20321254722E+03  0.47000000000E+01 0. -1.
        -13    1    4    4    0    0 -0.36138343155E+02 -0.62493099652E+02 -0.28257076186E+03  0.29164636601E+03  0.00000000000E+00 0.  1.
         14    1    4    4    0    0 -0.67296684915E+02  0.37846523071E+01 -0.15482019761E+03  0.16885633237E+03  0.00000000000E+00 0. -1.
         -5    1    5    5    0  502  0.62524166898E+02  0.74919065671E+02 -0.28109644999E+03  0.29758938497E+03  0.47000000000E+01 0.  1.
         13    1    6    6    0    0  0.32965715607E+01 -0.63243707582E+02 -0.11211565314E+03  0.12876549853E+03  0.00000000000E+00 0. -1.
        -14    1    6    6    0    0  0.66018035062E+01  0.19510423379E+02 -0.10087651868E+03  0.10295781880E+03  0.00000000000E+00 0.  1.
</event>
<event>
12    1  0.1630640E-001  0.2425963E+03  0.7818608E-02  0.1118639E+00
         21   -1    0    0  501  502  0.00000000000E+00  0.00000000000E+00  0.46687506940E+03  0.46687506940E+03  0.00000000000E+00 0.  1.
         21   -1    0    0  502  503 -0.00000000000E+00 -0.00000000000E+00 -0.12674084517E+03  0.12674084517E+03  0.00000000000E+00 0. -1.
         -6    2    1    2    0  503  0.16452376507E+03 -0.31268586427E+02  0.21014284666E+03  0.31838742543E+03  0.17077688047E+03 0.  0.
        -24    2    3    3    0    0  0.18552045076E+03 -0.25777807579E+02  0.14684886031E+03  0.25131113924E+03  0.80686850947E+02 0.  0.
          6    2    1    2  501    0 -0.16452376507E+03  0.31268586427E+02  0.12999137757E+03  0.27522848914E+03  0.17551971177E+03 0.  0.
         24    2    5    5    0    0 -0.55527081113E+02 -0.36189871044E+02  0.97135458475E+02  0.14281805897E+03  0.81047746244E+02 0.  0.
          5    1    5    5  501    0 -0.10899668396E+03  0.67458457471E+02  0.32855919097E+02  0.13241043017E+03  0.47000000000E+01 0. -1.
        -11    1    6    6    0    0 -0.47336905045E+02 -0.38854596168E+02  0.18873081797E+02  0.64083191550E+02  0.00000000000E+00 0.  1.
         12    1    6    6    0    0 -0.81901760673E+01  0.26647251249E+01  0.78262376679E+02  0.78734867418E+02  0.00000000000E+00 0. -1.
         -5    1    3    3    0  503 -0.20996685690E+02 -0.54907788484E+01  0.63293986346E+02  0.67076286197E+02  0.47000000000E+01 0.  1.
         13    1    4    4    0    0  0.96768183517E+01 -0.17540174032E+02 -0.28444633773E+01  0.20233375655E+02  0.00000000000E+00 0. -1.
        -14    1    4    4    0    0  0.17584363241E+03 -0.82376335474E+01  0.14969332369E+03  0.23107776358E+03  0.00000000000E+00 0.  1.
</event>
<event>
12    1  0.1630640E-001  0.1772373E+03  0.7818608E-02  0.1170823E+00
         21   -1    0    0  501  502  0.00000000000E+00  0.00000000000E+00  0.34126298176E+03  0.34126298176E+03  0.00000000000E+00 0.  1.
         21   -1    0    0  502  503 -0.00000000000E+00 -0.00000000000E+00 -0.12139676957E+03  0.12139676957E+03  0.00000000000E+00 0.  1.
         -6    2    1    2    0  503 -0.38162104247E+02  0.21838080688E+02 -0.53936963514E+01  0.17603269155E+03  0.17036774508E+03 0.  0.
        -24    2    3    3    0    0 -0.12170496463E+02 -0.49429289473E+02 -0.21807062128E+02  0.98276082178E+02  0.81186604360E+02 0.  0.
          6    2    1    2  501    0  0.38162104247E+02 -0.21838080688E+02  0.22525990854E+03  0.28662705978E+03  0.17169681720E+03 0.  0.
         24    2    5    5    0    0  0.60050328389E+02 -0.46680918805E+02  0.22688636973E+03  0.25314577639E+03  0.82584557958E+02 0.  0.
          5    1    5    5  501    0 -0.21888224141E+02  0.24842838117E+02 -0.16264611924E+01  0.33481283395E+02  0.47000000000E+01 0. -1.
        -11    1    6    6    0    0  0.51400499467E+01 -0.50743910569E+02  0.15105441151E+03  0.15943274385E+03  0.00000000000E+00 0.  1.
         12    1    6    6    0    0  0.54910278442E+02  0.40629917639E+01  0.75831958219E+02  0.93713032541E+02  0.00000000000E+00 0. -1.
         -5    1    3    3    0  503 -0.25991607784E+02  0.71267370161E+02  0.16413365777E+02  0.77756609372E+02  0.47000000000E+01 0.  1.
         11    1    4    4    0    0 -0.21300019039E+02  0.70200694324E+01  0.17870200593E+02  0.28676057175E+02  0.00000000000E+00 0. -1.
        -12    1    4    4    0    0  0.91295225755E+01 -0.56449358905E+02 -0.39677262721E+02  0.69600025002E+02  0.00000000000E+00 0.  1.
</event>
<event>
12    1  0.1630640E-001  0.2250900E+03  0.7818608E-02  0.1130347E+00
         21   -1    0    0  501  502  0.00000000000E+00  0.00000000000E+00  0.93473144919E+02  0.93473144919E+02  0.00000000000E+00 0.  1.
         21   -1    0    0  502  503 -0.00000000000E+00 -0.00000000000E+00 -0.53988744670E+03  0.53988744670E+03  0.00000000000E+00 0. -1.
         -6    2    1    2    0  503 -0.44184224920E+02 -0.13663397558E+03 -0.21264118046E+03  0.30883728888E+03  0.17188109366E+03 0.  0.
        -24    2    3    3    0    0 -0.92345930661E+02 -0.98029891828E+02 -0.11540735914E+03  0.19357093997E+03  0.77544952472E+02 0.  0.
          6    2    1    2  501    0  0.44184224920E+02  0.13663397558E+03 -0.23377312132E+03  0.32452330275E+03  0.17333324194E+03 0.  0.
         24    2    5    5    0    0 -0.29547489213E+02  0.15629272473E+02 -0.86047217309E+02  0.11977092411E+03  0.76312661980E+02 0.  0.
          5    1    5    5  501    0  0.73731714132E+02  0.12100470310E+03 -0.14772590401E+03  0.20475237864E+03  0.47000000000E+01 0. -1.
        -13    1    6    6    0    0 -0.36906681354E+02  0.38801502030E+02 -0.77082113547E+02  0.93857934759E+02  0.00000000000E+00 0.  1.
         14    1    6    6    0    0  0.73591921411E+01 -0.23172229557E+02 -0.89651037623E+01  0.25912989350E+02  0.00000000000E+00 0. -1.
         -5    1    3    3    0  503  0.48161705741E+02 -0.38604083748E+02 -0.97233821324E+02  0.11526634891E+03  0.47000000000E+01 0.  1.
         11    1    4    4    0    0 -0.92830316762E+02 -0.55519434746E+02 -0.10280996818E+03  0.14923057630E+03  0.00000000000E+00 0. -1.
        -12    1    4    4    0    0  0.48438610105E+00 -0.42510457082E+02 -0.12597390959E+02  0.44340363667E+02  0.00000000000E+00 0.  1.
</event>
<event>
12    1  0.1630640E-001  0.2863925E+03  0.7818608E-02  0.1092287E+00
         21   -1    0    0  501  502  0.00000000000E+00  0.00000000000E+00  0.10090017582E+03  0.10090017582E+03  0.00000000000E+00 0. -1.
         21   -1    0    0  502  503 -0.00000000000E+00 -0.00000000000E+00 -0.13608529220E+04  0.13608529220E+04  0.00000000000E+00 0. -1.
         -6    2    1    2    0  503  0.16100945693E+03  0.16117632820E+03 -0.10939209586E+04  0.11307135231E+04  0.17305534858E+03 0.  0.
        -24    2    3    3    0    0  0.14549307338E+03  0.10698153482E+03 -0.55668494211E+03  0.59050757978E+03  0.78662531175E+02 0.  0.
          6    2    1    2  501    0 -0.16100945693E+03 -0.16117632820E+03 -0.16603178754E+03  0.33103957468E+03  0.17354766359E+03 0.  0.
         24    2    5    5    0    0 -0.91718968566E+01 -0.59799926226E+02 -0.86748428006E+02  0.13194220999E+03  0.78887908754E+02 0.  0.
          5    1    5    5  501    0 -0.15183756008E+03 -0.10137640198E+03 -0.79283359535E+02  0.19909736469E+03  0.47000000000E+01 0. -1.
        -13    1    6    6    0    0  0.12456827988E+02  0.21211897059E+01  0.92616441315E+01  0.15666845927E+02  0.00000000000E+00 0.  1.
         14    1    6    6    0    0 -0.21628724844E+02 -0.61921115932E+02 -0.96010072138E+02  0.11627536407E+03  0.00000000000E+00 0. -1.
         -5    1    3    3    0  503  0.15516383551E+02  0.54194793381E+02 -0.53723601653E+03  0.54020594336E+03  0.47000000000E+01 0.  1.
         13    1    4    4    0    0  0.13649401144E+02 -0.41386007336E+01 -0.12267042020E+03  0.12349682652E+03  0.00000000000E+00 0. -1.
        -14    1    4    4    0    0  0.13184367224E+03  0.11112013556E+03 -0.43401452191E+03  0.46701075326E+03  0.00000000000E+00 0.  1.
</event>
<event>
12    1  0.1630640E-001  0.1811378E+03  0.7818608E-02  0.1168241E+00
         21   -1    0    0  503  502  0.00000000000E+00  0.00000000000E+00  0.93064768690E+02  0.93064768690E+02  0.00000000000E+00 0. -1.
         21   -1    0    0  501  503 -0.00000000000E+00 -0.00000000000E+00 -0.46364743314E+03  0.46364743314E+03  0.00000000000E+00 0. -1.
          6    2    1    2  501    0 -0.20825013770E+02 -0.45511966903E+02 -0.32636073202E+03  0.37025444957E+03  0.16754703726E+03 0.  0.
         24    2    3    3    0    0 -0.33804498774E+02  0.19154060420E+02 -0.27049617784E+03  0.28369175245E+03  0.76178776643E+02 0.  0.
         -6    2    1    2    0  502  0.20825013770E+02  0.45511966903E+02 -0.44221932436E+02  0.18645775226E+03  0.17408588036E+03 0.  0.
        -24    2    5    5    0    0 -0.34826018311E+01 -0.55155379471E+01  0.39100912555E+02  0.85663640702E+02  0.75939635905E+02 0.  0.
          5    1    3    3  501    0  0.12979485004E+02 -0.64666027323E+02 -0.55864554173E+02  0.86562697125E+02  0.47000000000E+01 0. -1.
        -13    1    4    4    0    0  0.18213151736E+02 -0.12115918963E+02 -0.43075721763E+02  0.48311822507E+02  0.00000000000E+00 0.  1.
         14    1    4    4    0    0 -0.52017650510E+02  0.31269979383E+02 -0.22742045608E+03  0.23537992994E+03  0.00000000000E+00 0. -1.
         -5    1    5    5    0  502  0.24307615601E+02  0.51027504850E+02 -0.83322844991E+02  0.10079411156E+03  0.47000000000E+01 0.  1.
         11    1    6    6    0    0  0.71685875813E+01  0.25709399877E+02  0.44834517907E+02  0.52177541969E+02  0.00000000000E+00 0. -1.
        -12    1    6    6    0    0 -0.10651189412E+02 -0.31224937824E+02 -0.57336053521E+01  0.33486098733E+02  0.00000000000E+00 0.  1.
</event>
<event>
12    1  0.1630640E-001  0.2723885E+03  0.7818608E-02  0.1100014E+00
         21   -1    0    0  501  502  0.00000000000E+00  0.00000000000E+00  0.37184879337E+03  0.37184879337E+03  0.00000000000E+00 0. -1.
         21   -1    0    0  502  503 -0.00000000000E+00 -0.00000000000E+00 -0.28545575631E+03  0.28545575631E+03  0.00000000000E+00 0. -1.
         -6    2    1    2    0  503  0.11706413860E+03 -0.17530097967E+03 -0.13765833447E+03  0.30460851917E+03  0.17147036736E+03 0.  0.
        -24    2    3    3    0    0  0.10979161558E+03 -0.86869919929E+02 -0.30016479260E+02  0.16503129714E+03  0.82059479445E+02 0.  0.
          6    2    1    2  501    0 -0.11706413860E+03  0.17530097967E+03  0.22405137152E+03  0.35269603051E+03  0.17251384536E+03 0.  0.
         24    2    5    5    0    0 -0.34715923870E+02  0.96753156274E+02  0.40347237740E+02  0.13654726740E+03  0.80317420409E+02 0.  0.
          5    1    5    5  501    0 -0.82348214728E+02  0.78547823393E+02  0.18370413378E+03  0.21614876312E+03  0.47000000000E+01 0. -1.
        -13    1    6    6    0    0 -0.60049523537E+02  0.69976254748E+02  0.19677760720E+02  0.94285925633E+02  0.00000000000E+00 0.  1.
         14    1    6    6    0    0  0.25333599667E+02  0.26776901526E+02  0.20669477021E+02  0.42261341764E+02  0.00000000000E+00 0. -1.
         -5    1    3    3    0  503  0.72725230169E+01 -0.88431059738E+02 -0.10764185521E+03  0.13957722203E+03  0.47000000000E+01 0.  1.
         11    1    4    4    0    0  0.10416064842E+03 -0.92863563642E+02 -0.46103020740E+02  0.14696452175E+03  0.00000000000E+00 0. -1.
        -12    1    4    4    0    0  0.56309671644E+01  0.59936437130E+01  0.16086541480E+02  0.18066775389E+02  0.00000000000E+00 0.  1.
</event>
<event>
12    1  0.1630640E-001  0.2394336E+03  0.7818608E-02  0.1120416E+00
         21   -1    0    0  501  502  0.00000000000E+00  0.00000000000E+00  0.96094616676E+03  0.96094616676E+03  0.00000000000E+00 0. -1.
         21   -1    0    0  502  503 -0.00000000000E+00 -0.00000000000E+00 -0.84297830954E+02  0.84297830954E+02  0.00000000000E+00 0.  1.
         -6    2    1    2    0  503  0.60158256863E+02  0.15485684038E+03  0.15275388002E+03  0.28277980654E+03  0.17038490029E+03 0.  0.
        -24    2    3    3    0    0  0.35023941359E+02  0.12700977475E+03  0.17936509777E+03  0.23654735268E+03  0.80153929486E+02 0.  0.
          6    2    1    2  501    0 -0.60158256863E+02 -0.15485684038E+03  0.72389445579E+03  0.76246419117E+03  0.17242042458E+03 0.  0.
         24    2    5    5    0    0 -0.88103922647E+02 -0.39547940352E+02  0.32057314627E+03  0.34202719069E+03  0.69922215987E+02 0.  0.
          5    1    5    5  501    0  0.27945665785E+02 -0.11530890003E+03  0.40332130952E+03  0.42043700048E+03  0.47000000000E+01 0. -1.
        -11    1    6    6    0    0 -0.17359431095E+02 -0.22290185474E+02  0.25357414834E+02  0.37963149283E+02  0.00000000000E+00 0.  1.
         12    1    6    6    0    0 -0.70744491552E+02 -0.17257754878E+02  0.29521573143E+03  0.30406404140E+03  0.00000000000E+00 0. -1.
         -5    1    3    3    0  503  0.25134315504E+02  0.27847065631E+02 -0.26611217749E+02  0.46232453863E+02  0.47000000000E+01 0.  1.
         13    1    4    4    0    0 -0.25976008610E+02  0.43088680280E+02  0.53659599550E+02  0.73557732533E+02  0.00000000000E+00 0. -1.
        -14    1    4    4    0    0  0.60999949969E+02  0.83921094473E+02  0.12570549822E+03  0.16298962015E+03  0.00000000000E+00 0.  1.
</event>
<event>
12    1  0.1630640E-001  0.1854145E+03  0.7818608E-02  0.1162954E+00
         21   -1    0    0  501  502  0.00000000000E+00  0.00000000000E+00  0.14435618043E+03  0.14435618043E+03  0.00000000000E+00 0. -1.
         21   -1    0    0  502  503 -0.00000000000E+00 -0.00000000000E+00 -0.54947495868E+03  0.54947495868E+03  0.00000000000E+00 0. -1.
         -6    2    1    2    0  503 -0.55753289404E+02  0.36296717997E+02 -0.46406265203E+03  0.49927289532E+03  0.17173642006E+03 0.  0.
        -24    2    3    3    0    0 -0.70893231333E+02  0.41277263658E+02 -0.46859098074E+03  0.48205025216E+03  0.77879879511E+02 0.  0.
          6    2    1    2  501    0  0.55753289404E+02 -0.36296717997E+02  0.58943873786E+02  0.19455824379E+03  0.17306833607E+03 0.  0.
         24    2    5    5    0    0  0.52652701878E+02 -0.65843598932E+02  0.93337136916E+02  0.14886778127E+03  0.79637357049E+02 0.  0.
          5    1    5    5  501    0  0.31005875264E+01  0.29546880936E+02 -0.34393263130E+02  0.45690462514E+02  0.47000000000E+01 0. -1.
        -13    1    6    6    0    0  0.67077874541E+02 -0.47087249825E+02  0.41451859203E+02  0.91841749658E+02  0.00000000000E+00 0.  1.
         14    1    6    6    0    0 -0.14425172663E+02 -0.18756349107E+02  0.51885277713E+02  0.57026031613E+02  0.00000000000E+00 0. -1.
         -5    1    3    3    0  503  0.15139941929E+02 -0.49805456615E+01  0.45283287049E+01  0.17222643164E+02  0.47000000000E+01 0.  1.
         11    1    4    4    0    0 -0.19404059562E+02 -0.21560437529E+02 -0.17670218310E+03  0.17906711453E+03  0.00000000000E+00 0. -1.
        -12    1    4    4    0    0 -0.51489171771E+02  0.62837701187E+02 -0.29188879764E+03  0.30298313763E+03  0.00000000000E+00 0.  1.
</event>
<event>
12    1  0.1630640E-001  0.1915879E+03  0.7818608E-02  0.1158339E+00
         21   -1    0    0  503  502  0.00000000000E+00  0.00000000000E+00  0.60344062579E+03  0.60344062579E+03  0.00000000000E+00 0. -1.
         21   -1    0    0  501  503 -0.00000000000E+00 -0.00000000000E+00 -0.74363086333E+02  0.74363086333E+02  0.00000000000E+00 0. -1.
          6    2    1    2  501    0 -0.16092085648E+02 -0.52224965023E+02  0.42166709207E+03  0.46315121983E+03  0.18362873877E+03 0.  0.
         24    2    3    3    0    0 -0.70509333767E+02  0.10685976799E+02  0.20883655191E+03  0.23459498535E+03  0.79601165124E+02 0.  0.
         -6    2    1    2    0  502  0.16092085648E+02  0.52224965023E+02  0.10741044739E+03  0.21465249230E+03  0.17762963167E+03 0.  0.
        -24    2    5    5    0    0  0.28258766020E+02 -0.37655323431E+02  0.64661471320E+02  0.11427291609E+03  0.81613186678E+02 0.  0.
          5    1    3    3  501    0  0.54417248120E+02 -0.62910941822E+02  0.21283054016E+03  0.22855623448E+03  0.47000000000E+01 0. -1.
        -11    1    4    4    0    0 -0.10222596205E+02  0.19754845021E+02  0.63529048354E+01  0.23132547954E+02  0.00000000000E+00 0.  1.
         12    1    4    4    0    0 -0.60286737562E+02 -0.90688682219E+01  0.20248364708E+03  0.21146243740E+03  0.00000000000E+00 0. -1.
         -5    1    5    5    0  502 -0.12166680372E+02  0.89880288453E+02  0.42748976067E+02  0.10037957620E+03  0.47000000000E+01 0.  1.
         13    1    6    6    0    0 -0.24537933082E+00 -0.36761840162E+02 -0.67503940648E+01  0.37377278167E+02  0.00000000000E+00 0. -1.
        -14    1    6    6    0    0  0.28504145350E+02 -0.89348326860E+00  0.71411865385E+02  0.76895637927E+02  0.00000000000E+00 0.  1.
</event>
<event>
12    1  0.1630640E-001  0.2371239E+03  0.7818608E-02  0.1121955E+00
         21   -1    0    0  503  502  0.00000000000E+00  0.00000000000E+00  0.10714604281E+04  0.10714604281E+04  0.00000000000E+00 0. -1.
         21   -1    0    0  501  503 -0.00000000000E+00 -0.00000000000E+00 -0.58572007707E+02  0.58572007707E+02  0.00000000000E+00 0. -1.
          6    2    1    2  501    0  0.11615434707E+03  0.11448355919E+03  0.32103661261E+03  0.39911432567E+03  0.17213198613E+03 0.  0.
         24    2    3    3    0    0  0.54674754049E+02 -0.20965531178E+01  0.19101948507E+03  0.21391927606E+03  0.79241963190E+02 0.  0.
         -6    2    1    2    0  502 -0.11615434707E+03 -0.11448355919E+03  0.69185180781E+03  0.73091811017E+03  0.17024700329E+03 0.  0.
        -24    2    5    5    0    0 -0.84527696339E+02 -0.16036396606E+02  0.23992843276E+03  0.26729227420E+03  0.80482355430E+02 0.  0.
          5    1    3    3  501    0  0.61479593019E+02  0.11658011231E+03  0.13001712754E+03  0.18519504960E+03  0.47000000000E+01 0. -1.
        -13    1    4    4    0    0  0.60460829553E+02 -0.24919025813E+02  0.96917205651E+02  0.11691627136E+03  0.00000000000E+00 0.  1.
         14    1    4    4    0    0 -0.57860755036E+01  0.22822472695E+02  0.94102279420E+02  0.97003004705E+02  0.00000000000E+00 0. -1.
         -5    1    5    5    0  502 -0.31626650729E+02 -0.98447162587E+02  0.45192337506E+03  0.46362583597E+03  0.47000000000E+01 0.  1.
         11    1    6    6    0    0 -0.94657360132E+02 -0.84210493109E+01  0.15790601034E+03  0.18429660334E+03  0.00000000000E+00 0. -1.
        -12    1    6    6    0    0  0.10129663793E+02 -0.76153472953E+01  0.82022422413E+02  0.82995670860E+02  0.00000000000E+00 0.  1.
</event>
<event>
12    1  0.1630640E-001  0.1903585E+03  0.7818608E-02  0.1158366E+00
         21   -1    0    0  501  502  0.00000000000E+00  0.00000000000E+00  0.69895092132E+03  0.69895092132E+03  0.00000000000E+00 0. -1.
         21   -1    0    0  502  503 -0.00000000000E+00 -0.00000000000E+00 -0.62472222558E+02  0.62472222558E+02  0.00000000000E+00 0.  1.
         -6    2    1    2    0  503  0.17222185280E+02  0.79338766666E+02  0.15989237656E+03  0.24859997642E+03  0.17217761943E+03 0.  0.
        -24    2    3    3    0    0 -0.32238538063E+02 -0.49929812716E+01  0.10802795590E+03  0.13782897393E+03  0.79136171241E+02 0.  0.
          6    2    1    2  501    0 -0.17222185280E+02 -0.79338766666E+02  0.47658632220E+03  0.51282316745E+03  0.17106091023E+03 0.  0.
         24    2    5    5    0    0 -0.16778527232E+02 -0.11485963653E+03  0.43867556042E+03  0.46065761477E+03  0.79340630524E+02 0.  0.
          5    1    5    5  501    0 -0.44365804808E+00  0.35520869865E+02  0.37910761777E+02  0.52165552685E+02  0.47000000000E+01 0. -1.
        -11    1    6    6    0    0  0.13004669106E+02 -0.71206217548E+02  0.14277786770E+03  0.16007800080E+03  0.00000000000E+00 0.  1.
         12    1    6    6    0    0 -0.29783196338E+02 -0.43653418983E+02  0.29589769272E+03  0.30057961397E+03  0.00000000000E+00 0. -1.
         -5    1    3    3    0  503  0.49460723344E+02  0.84331747937E+02  0.51864420659E+02  0.11077100250E+03  0.47000000000E+01 0.  1.
         11    1    4    4    0    0 -0.35211769034E+02  0.13615759939E+02  0.11232573937E+03  0.11850033470E+03  0.00000000000E+00 0. -1.
        -12    1    4    4    0    0  0.29732309708E+01 -0.18608741210E+02 -0.42977834689E+01  0.19328639232E+02  0.00000000000E+00 0.  1.
</event>
<event>
12    1  0.1630640E-001  0.1931290E+03  0.7818608E-02  0.1155912E+00
         21   -1    0    0  501  502  0.00000000000E+00  0.00000000000E+00  0.73034122747E+03  0.73034122747E+03  0.00000000000E+00 0.  1.
         21   -1    0    0  502  503 -0.00000000000E+00 -0.00000000000E+00 -0.62565464662E+02  0.62565464662E+02  0.00000000000E+00 0.  1.
         -6    2    1    2    0  503  0.13771613258E+02  0.85181514124E+02  0.16259595361E+03  0.25246038461E+03  0.17278094220E+03 0.  0.
        -24    2    3    3    0    0  0.24465100973E+02  0.16403499871E+02  0.16097851616E+03  0.18267878225E+03  0.81177822365E+02 0.  0.
          6    2    1    2  501    0 -0.13771613258E+02 -0.85181514124E+02  0.50517980920E+03  0.54044630752E+03  0.17155181145E+03 0.  0.
         24    2    5    5    0    0  0.43496503499E+02 -0.92869545021E+02  0.37018142372E+03  0.39352661143E+03  0.85511456731E+02 0.  0.
          5    1    5    5  501    0 -0.57268116758E+02  0.76880308966E+01  0.13499838548E+03  0.14691969609E+03  0.47000000000E+01 0. -1.
        -13    1    6    6    0    0  0.97841764438E+01 -0.23396361144E+02  0.24593111643E+03  0.24723517924E+03  0.00000000000E+00 0.  1.
         14    1    6    6    0    0  0.33712327056E+02 -0.69473183877E+02  0.12425030729E+03  0.14629143220E+03  0.00000000000E+00 0. -1.
         -5    1    3    3    0  503 -0.10693487714E+02  0.68778014253E+02  0.16174374456E+01  0.69781602360E+02  0.47000000000E+01 0.  1.
         11    1    4    4    0    0  0.35304390977E+02 -0.22837032930E+02  0.55589564223E+02  0.69700285120E+02  0.00000000000E+00 0. -1.
        -12    1    4    4    0    0 -0.10839290004E+02  0.39240532801E+02  0.10538895194E+03  0.11297849713E+03  0.00000000000E+00 0.  1.
</event>
<event>
12    1  0.1630640E-001  0.1829255E+03  0.7818608E-02  0.1165024E+00
         21   -1    0    0  501  502  0.00000000000E+00  0.00000000000E+00  0.10914914891E+03  0.10914914891E+03  0.00000000000E+00 0. -1.
         21   -1    0    0  502  503 -0.00000000000E+00 -0.00000000000E+00 -0.40204823198E+03  0.40204823198E+03  0.00000000000E+00 0. -1.
         -6    2    1    2    0  503  0.27814332202E+02  0.55852129071E+02 -0.21814772548E+02  0.18422164087E+03  0.17195531765E+03 0.  0.
        -24    2    3    3    0    0  0.27137368770E+01  0.62557997112E+02  0.47359304231E+02  0.11018008869E+03  0.77303821867E+02 0.  0.
          6    2    1    2  501    0 -0.27814332202E+02 -0.55852129071E+02 -0.27108431052E+03  0.32697574002E+03  0.17185265128E+03 0.  0.
         24    2    5    5    0    0  0.47797162494E+02 -0.51762759559E+02 -0.13715150897E+03  0.17304748918E+03  0.78555363158E+02 0.  0.
          5    1    5    5  501    0 -0.75611494696E+02 -0.40893695123E+01 -0.13393280155E+03  0.15392825084E+03  0.47000000000E+01 0. -1.
        -11    1    6    6    0    0  0.40192110815E+02  0.50285853618E+01 -0.90529277309E+02  0.99177832667E+02  0.00000000000E+00 0.  1.
         12    1    6    6    0    0  0.76050516789E+01 -0.56791344921E+02 -0.46622231660E+02  0.73869656517E+02  0.00000000000E+00 0. -1.
         -5    1    3    3    0  503  0.25100595325E+02 -0.67058680408E+01 -0.69174076779E+02  0.74041552186E+02  0.47000000000E+01 0.  1.
         13    1    4    4    0    0 -0.68219136176E+01  0.57099941372E+02 -0.40131072718E+01  0.57645874441E+02  0.00000000000E+00 0. -1.
        -14    1    4    4    0    0  0.95356504946E+01  0.54580557404E+01  0.51372411503E+02  0.52534214246E+02  0.00000000000E+00 0.  1.
</event>
<event>
12    1  0.1630640E-001  0.1947149E+03  0.7818608E-02  0.1154375E+00
         21   -1    0    0  503  502  0.00000000000E+00  0.00000000000E+00  0.79298742670E+03  0.79298742670E+03  0.00000000000E+00 0.  1.
         21   -1    0    0  501  503 -0.00000000000E+00 -0.00000000000E+00 -0.48001773281E+02  0.48001773281E+02  0.00000000000E+00 0.  1.
          6    2    1    2  501    0  0.29999572384E+02 -0.86047503665E+02  0.33960834884E+03  0.39146864995E+03  0.17207476883E+03 0.  0.
         24    2    3    3    0    0 -0.45057923523E+02 -0.21294293203E+02  0.20286919264E+03  0.22251216800E+03  0.76629577778E+02 0.  0.
         -6    2    1    2    0  502 -0.29999572384E+02  0.86047503665E+02  0.40537730458E+03  0.44952055003E+03  0.17156287068E+03 0.  0.
        -24    2    5    5    0    0  0.14482629709E+02  0.11315040074E+03  0.32704233875E+03  0.35533089983E+03  0.79313285674E+02 0.  0.
          5    1    3    3  501    0  0.75057495907E+02 -0.64753210462E+02  0.13673915619E+03  0.16895648195E+03  0.47000000000E+01 0. -1.
        -13    1    4    4    0    0  0.11332905009E+02  0.12719817982E+02  0.91960997649E+02  0.93525684140E+02  0.00000000000E+00 0.  1.
         14    1    4    4    0    0 -0.56390828532E+02 -0.34014111185E+02  0.11090819499E+03  0.12898648386E+03  0.00000000000E+00 0. -1.
         -5    1    5    5    0  502 -0.44482202093E+02 -0.27102897077E+02  0.78334965827E+02  0.94189650196E+02  0.47000000000E+01 0.  1.
         13    1    6    6    0    0  0.10772802578E+02 -0.59544008633E+01  0.77958946190E+01  0.14569973848E+02  0.00000000000E+00 0. -1.
        -14    1    6    6    0    0  0.37098271312E+01  0.11910480161E+03  0.31924644414E+03  0.34076092598E+03  0.00000000000E+00 0.  1.
</event>
<event>
12    1  0.1630640E-001  0.2877339E+03  0.7818608E-02  0.1093627E+00
         21   -1    0    0  503  502  0.00000000000E+00  0.00000000000E+00  0.62050275652E+03  0.62050275652E+03  0.00000000000E+00 0.  1.
         21   -1    0    0  501  503 -0.00000000000E+00 -0.00000000000E+00 -0.36426894090E+03  0.36426894090E+03  0.00000000000E+00 0. -1.
          6    2    1    2  501    0 -0.41417988274E+02  0.20840960225E+03 -0.26851078182E+03  0.39355918345E+03  0.19401231627E+03 0.  0.
         24    2    3    3    0    0  0.22166987215E+02  0.57128575102E+02 -0.18469414512E+03  0.20923252539E+03  0.76884803605E+02 0.  0.
         -6    2    1    2    0  502  0.41417988274E+02 -0.20840960225E+03  0.52474459744E+03  0.59121251396E+03  0.17036822492E+03 0.  0.
        -24    2    5    5    0    0  0.77026807180E+02 -0.78205971097E+02  0.20185584348E+03  0.24121221256E+03  0.73404679693E+02 0.  0.
          5    1    3    3  501    0 -0.63584975490E+02  0.15128102715E+03 -0.83816636697E+02  0.18432665806E+03  0.47000000000E+01 0. -1.
        -11    1    4    4    0    0  0.24074810581E+02  0.14425914101E+02 -0.10654291947E+02  0.30020283794E+02  0.00000000000E+00 0.  1.
         12    1    4    4    0    0 -0.19078233661E+01  0.42702661001E+02 -0.17403985317E+03  0.17921224160E+03  0.00000000000E+00 0. -1.
         -5    1    5    5    0  502 -0.35608818906E+02 -0.13020363116E+03  0.32288875396E+03  0.35000030141E+03  0.47000000000E+01 0.  1.
         13    1    6    6    0    0  0.15318716120E+02  0.12859547912E+02  0.48682555966E+02  0.52631001239E+02  0.00000000000E+00 0. -1.
        -14    1    6    6    0    0  0.61708091059E+02 -0.91065519010E+02  0.15317328751E+03  0.18858121132E+03  0.00000000000E+00 0.  1.
</event>
<event>
12    1  0.1630640E-001  0.1734263E+03  0.7818608E-02  0.1174570E+00
         21   -1    0    0  503  502  0.00000000000E+00  0.00000000000E+00  0.19129915361E+03  0.19129915361E+03  0.00000000000E+00 0. -1.
         21   -1    0    0  501  503 -0.00000000000E+00 -0.00000000000E+00 -0.19641257782E+03  0.19641257782E+03  0.00000000000E+00 0. -1.
          6    2    1    2  501    0 -0.14190131703E+01  0.23930998873E+02 -0.90113629767E+02  0.19457521892E+03  0.17077571034E+03 0.  0.
         24    2    3    3    0    0  0.59363753564E+02  0.98775624788E+01 -0.63116350737E+02  0.12643575252E+03  0.91546186740E+02 0.  0.
         -6    2    1    2    0  502  0.14190131703E+01 -0.23930998873E+02  0.85000205554E+02  0.19313651251E+03  0.17176137871E+03 0.  0.
        -24    2    5    5    0    0 -0.12802798953E+02 -0.13792767462E+02 -0.23855195936E+02  0.82788734511E+02  0.77011376390E+02 0.  0.
          5    1    3    3  501    0 -0.60782766734E+02  0.14053436394E+02 -0.26997279030E+02  0.68139466400E+02  0.47000000000E+01 0. -1.
        -13    1    4    4    0    0  0.22552073401E+02 -0.29667367969E+02  0.70014412183E+01  0.37917923414E+02  0.00000000000E+00 0.  1.
         14    1    4    4    0    0  0.36811680163E+02  0.39544930448E+02 -0.70117791955E+02  0.88517829104E+02  0.00000000000E+00 0. -1.
         -5    1    5    5    0  502  0.14221812123E+02 -0.10138231411E+02  0.10885540149E+03  0.11034777800E+03  0.47000000000E+01 0.  1.
         11    1    6    6    0    0 -0.43125978405E+02 -0.18883173561E+02 -0.22054144745E+02  0.51988552178E+02  0.00000000000E+00 0. -1.
        -12    1    6    6    0    0  0.30323179452E+02  0.50904060983E+01 -0.18010511913E+01  0.30800182333E+02  0.00000000000E+00 0.  1.
</event>
<event>
12    1  0.1630640E-001  0.1844659E+03  0.7818608E-02  0.1163743E+00
         21   -1    0    0  501  502  0.00000000000E+00  0.00000000000E+00  0.77800244001E+03  0.77800244001E+03  0.00000000000E+00 0. -1.
         21   -1    0    0  502  503 -0.00000000000E+00 -0.00000000000E+00 -0.43763150657E+02  0.43763150657E+02  0.00000000000E+00 0. -1.
         -6    2    1    2    0  503  0.50266561175E+01  0.64547421242E+02  0.39548480628E+03  0.43604252637E+03  0.17185230852E+03 0.  0.
        -24    2    3    3    0    0 -0.20984720875E+02 -0.48333324402E+00  0.82191504311E+02  0.11498120229E+03  0.77618563354E+02 0.  0.
          6    2    1    2  501    0 -0.50266561175E+01 -0.64547421242E+02  0.33875448307E+03  0.38572306430E+03  0.17273113694E+03 0.  0.
         24    2    5    5    0    0 -0.67855887672E+02 -0.43939098320E+02  0.25386282760E+03  0.27801559715E+03  0.79443509283E+02 0.  0.
          5    1    5    5  501    0  0.62829231555E+02 -0.20608322922E+02  0.84891655470E+02  0.10770746715E+03  0.47000000000E+01 0. -1.
        -13    1    6    6    0    0 -0.28152656787E+02  0.13950524160E+02  0.30139931475E+02  0.43538542440E+02  0.00000000000E+00 0.  1.
         14    1    6    6    0    0 -0.39703230885E+02 -0.57889622480E+02  0.22372289613E+03  0.23447705471E+03  0.00000000000E+00 0. -1.
         -5    1    3    3    0  503  0.26011376992E+02  0.65030754486E+02  0.31329330197E+03  0.32106132408E+03  0.47000000000E+01 0.  1.
         13    1    4    4    0    0 -0.41994413426E+02  0.21476765946E+02  0.34536057625E+02  0.58459571592E+02  0.00000000000E+00 0. -1.
        -14    1    4    4    0    0  0.21009692551E+02 -0.21960099190E+02  0.47655446685E+02  0.56521630694E+02  0.00000000000E+00 0.  1.
</event>
<event>
12    1  0.1630640E-001  0.2149190E+03  0.7818608E-02  0.1137894E+00
         21   -1    0    0  501  502  0.00000000000E+00  0.00000000000E+00  0.32613119356E+03  0.32613119356E+03  0.00000000000E+00 0. -1.
         21   -1    0    0  502  503 -0.00000000000E+00 -0.00000000000E+00 -0.14700061959E+03  0.14700061959E+03  0.00000000000E+00 0.  1.
         -6    2    1    2    0  503 -0.97690794037E+02  0.83003190654E+02  0.13727678921E+03  0.25501976199E+03  0.17250258331E+03 0.  0.
        -24    2    3    3    0    0  0.15594432614E+02  0.55008787918E+02  0.81348801848E+02  0.12553131102E+03  0.76624600544E+02 0.  0.
          6    2    1    2  501    0  0.97690794037E+02 -0.83003190654E+02  0.41853784761E+02  0.21811205116E+03  0.17142959682E+03 0.  0.
         24    2    5    5    0    0  0.13334722990E+03 -0.46978510532E+02  0.23099081110E+02  0.16386273867E+03  0.79554794967E+02 0.  0.
          5    1    5    5  501    0 -0.35656435866E+02 -0.36024680122E+02  0.18754703651E+02  0.54249312489E+02  0.47000000000E+01 0. -1.
        -11    1    6    6    0    0  0.45793024137E+02  0.18255885011E+02 -0.88802483223E+01  0.50091288738E+02  0.00000000000E+00 0.  1.
         12    1    6    6    0    0  0.87554205766E+02 -0.65234395543E+02  0.31979329432E+02  0.11377144993E+03  0.00000000000E+00 0. -1.
         -5    1    3    3    0  503 -0.11328522665E+03  0.27994402736E+02  0.55927987366E+02  0.12948845096E+03  0.47000000000E+01 0.  1.
         11    1    4    4    0    0 -0.87222387175E+01  0.29515140804E+02 -0.59899508568E+01  0.31354433438E+02  0.00000000000E+00 0. -1.
        -12    1    4    4    0    0  0.24316671332E+02  0.25493647114E+02  0.87338752705E+02  0.94176877586E+02  0.00000000000E+00 0.  1.
</event>
<event>
12    1  0.1630640E-001  0.1845672E+03  0.7818608E-02  0.1163889E+00
         21   -1    0    0  503  502  0.00000000000E+00  0.00000000000E+00  0.12396210686E+03  0.12396210686E+03  0.00000000000E+00 0. -1.
         21   -1    0    0  501  503 -0.00000000000E+00 -0.00000000000E+00 -0.87091833352E+03  0.87091833352E+03  0.00000000000E+00 0. -1.
          6    2    1    2  501    0 -0.44405744665E+02  0.44131044467E+02 -0.78538051988E+03  0.80635596632E+03  0.17166235514E+03 0.  0.
         24    2    3    3    0    0 -0.64001807713E+02 -0.33448813691E+01 -0.33787471232E+03  0.35588786865E+03  0.91593854628E+02 0.  0.
         -6    2    1    2    0  502  0.44405744665E+02 -0.44131044467E+02  0.38424293217E+02  0.18852447406E+03  0.17362497449E+03 0.  0.
        -24    2    5    5    0    0  0.66868670585E+02  0.15879308248E+02  0.60018540833E+02  0.12074374668E+03  0.79077528936E+02 0.  0.
          5    1    3    3  501    0  0.19596063048E+02  0.47475925836E+02 -0.44750580756E+03  0.45046809767E+03  0.47000000000E+01 0. -1.
        -11    1    4    4    0    0  0.22338319009E+02  0.44976914651E+01 -0.10385892125E+03  0.10632923045E+03  0.00000000000E+00 0.  1.
         12    1    4    4    0    0 -0.86340126722E+02 -0.78425728342E+01 -0.23401579107E+03  0.24955863820E+03  0.00000000000E+00 0. -1.
         -5    1    5    5    0  502 -0.22462925920E+02 -0.60010352715E+02 -0.21594247616E+02  0.67780727379E+02  0.47000000000E+01 0.  1.
         13    1    6    6    0    0  0.38866040348E+02 -0.25409348311E+02  0.52835253368E+02  0.70340372990E+02  0.00000000000E+00 0. -1.
        -14    1    6    6    0    0  0.28002630237E+02  0.41288656559E+02  0.71832874651E+01  0.50403373691E+02  0.00000000000E+00 0.  1.
</event>
<event>
12    1  0.1630640E-001  0.1834070E+03  0.7818608E-02  0.1164615E+00
         21   -1    0    0  503  502  0.00000000000E+00  0.00000000000E+00  0.31073820257E+02  0.31073820257E+02  0.00000000000E+00 0. -1.
         21   -1    0    0  501  503 -0.00000000000E+00 -0.00000000000E+00 -0.16109401598E+04  0.16109401598E+04  0.00000000000E+00 0. -1.
          6    2    1    2  501    0 -0.36233542463E+02  0.55229898768E+02 -0.12613428899E+04  0.12746073913E+04  0.17109910775E+03 0.  0.
         24    2    3    3    0    0 -0.40977138247E+02  0.10077614255E+03 -0.10312286915E+04  0.10399340091E+04  0.78709416349E+02 0.  0.
         -6    2    1    2    0  502  0.36233542463E+02 -0.55229898768E+02 -0.31852344970E+03  0.36740658884E+03  0.17078408063E+03 0.  0.
        -24    2    5    5    0    0  0.70615368372E+02  0.12317264326E+02 -0.18108847258E+03  0.21038686992E+03  0.79569811367E+02 0.  0.
          5    1    3    3  501    0  0.47435957837E+01 -0.45546243779E+02 -0.23011419836E+03  0.23467338219E+03  0.47000000000E+01 0. -1.
        -11    1    4    4    0    0 -0.19291131030E+02  0.15086365448E+02 -0.61671873187E+02  0.66356356902E+02  0.00000000000E+00 0.  1.
         12    1    4    4    0    0 -0.21686007217E+02  0.85689777099E+02 -0.96955681833E+03  0.97357765216E+03  0.00000000000E+00 0. -1.
         -5    1    5    5    0  502 -0.34381825908E+02 -0.67547163094E+02 -0.13743497712E+03  0.15701971893E+03  0.47000000000E+01 0.  1.
         13    1    6    6    0    0  0.34572426123E+02 -0.28198288565E+02 -0.12337827063E+03  0.13119677507E+03  0.00000000000E+00 0. -1.
        -14    1    6    6    0    0  0.36042942249E+02  0.40515552891E+02 -0.57710201949E+02  0.79190094841E+02  0.00000000000E+00 0.  1.
</event>
<event>
12    1  0.1630640E-001  0.1782035E+03  0.7818608E-02  0.1169784E+00
         21   -1    0    0  501  502  0.00000000000E+00  0.00000000000E+00  0.18675913326E+02  0.18675913326E+02  0.00000000000E+00 0.  1.
         21   -1    0    0  502  503 -0.00000000000E+00 -0.00000000000E+00 -0.16993418561E+04  0.16993418561E+04  0.00000000000E+00 0.  1.
         -6    2    1    2    0  503 -0.19415169950E+02  0.38620071051E+02 -0.78395583751E+03  0.80395474471E+03  0.17288151335E+03 0.  0.
        -24    2    3    3    0    0 -0.31728926538E+02 -0.50189675307E+01 -0.72108387255E+03  0.72629543575E+03  0.80691969405E+02 0.  0.
          6    2    1    2  501    0  0.19415169950E+02 -0.38620071051E+02 -0.89671010526E+03  0.91406302471E+03  0.17191201693E+03 0.  0.
         24    2    5    5    0    0  0.74873979079E+02 -0.34866134145E+02 -0.70838794342E+03  0.71765248989E+03  0.79936586128E+02 0.  0.
          5    1    5    5  501    0 -0.55458809129E+02 -0.37539369060E+01 -0.18832216183E+03  0.19641053482E+03  0.47000000000E+01 0. -1.
        -13    1    6    6    0    0  0.15234957309E+02  0.12943433587E+01 -0.44266110039E+03  0.44292508289E+03  0.00000000000E+00 0.  1.
         14    1    6    6    0    0  0.59639021770E+02 -0.36160477504E+02 -0.26572684303E+03  0.27472740700E+03  0.00000000000E+00 0. -1.
         -5    1    3    3    0  503  0.12313756588E+02  0.43639038582E+02 -0.62871964963E+02  0.77659308959E+02  0.47000000000E+01 0.  1.
         13    1    4    4    0    0 -0.30773288358E+02 -0.36607083579E+02 -0.27778850423E+03  0.28187502005E+03  0.00000000000E+00 0. -1.
        -14    1    4    4    0    0 -0.95563818082E+00  0.31588116048E+02 -0.44329536832E+03  0.44442041570E+03  0.00000000000E+00 0.  1.
</event>
<event>
12    1  0.1630640E-001  0.2044120E+03  0.7818608E-02  0.1146133E+00
         21   -1    0    0  501  502  0.00000000000E+00  0.00000000000E+00  0.61667981574E+02  0.61667981574E+02  0.00000000000E+00 0. -1.
         21   -1    0    0  502  503 -0.00000000000E+00 -0.00000000000E+00 -0.89725025650E+03  0.89725025650E+03  0.00000000000E+00 0. -1.
         -6    2    1    2    0  503 -0.11001736005E+03  0.13068450244E+02 -0.65582888638E+03  0.68694673047E+03  0.17178381293E+03 0.  0.
        -24    2    3    3    0    0 -0.95896237361E+02 -0.24675085364E+02 -0.26511781279E+03  0.29413479886E+03  0.80142854104E+02 0.  0.
          6    2    1    2  501    0  0.11001736005E+03 -0.13068450244E+02 -0.17975338855E+03  0.27197150761E+03  0.17141358276E+03 0.  0.
         24    2    5    5    0    0  0.10340951796E+02 -0.50711555723E+02 -0.62675656349E+02  0.11359955578E+03  0.79360090761E+02 0.  0.
          5    1    5    5  501    0  0.99676408249E+02  0.37643105479E+02 -0.11707773220E+03  0.15837195184E+03  0.47000000000E+01 0. -1.
        -11    1    6    6    0    0  0.19634925144E+02 -0.13110620249E+02  0.14176383562E+02  0.27538854363E+02  0.00000000000E+00 0.  1.
         12    1    6    6    0    0 -0.92939733475E+01 -0.37600935474E+02 -0.76852039911E+02  0.86060701412E+02  0.00000000000E+00 0. -1.
         -5    1    3    3    0  503 -0.14121122684E+02  0.37743535607E+02 -0.39071107359E+03  0.39281193161E+03  0.47000000000E+01 0.  1.
         11    1    4    4    0    0 -0.70384853578E+02  0.15063327973E+02 -0.20754826348E+03  0.21967524471E+03  0.00000000000E+00 0. -1.
        -12    1    4    4    0    0 -0.25511383784E+02 -0.39738413336E+02 -0.57569549309E+02  0.74459554153E+02  0.00000000000E+00 0.  1.
</event>
<event>
12    1  0.1630640E-001  0.3007560E+03  0.7818608E-02  0.1084922E+00
         21   -1    0    0  503  502  0.00000000000E+00  0.00000000000E+00  0.55897247960E+03  0.55897247960E+03  0.00000000000E+00 0. -1.
         21   -1    0    0  501  503 -0.00000000000E+00 -0.00000000000E+00 -0.16385905432E+03  0.16385905432E+03  0.00000000000E+00 0. -1.
          6    2    1    2  501    0 -0.91585432343E+02 -0.22838023328E+03  0.24043379346E+03  0.38504881194E+03  0.17294148190E+03 0.  0.
         24    2    3    3    0    0 -0.10472208925E+03 -0.19174452003E+03  0.12659872885E+03  0.26465255296E+03  0.79253130572E+02 0.  0.
         -6    2    1    2    0  502  0.91585432343E+02  0.22838023328E+03  0.15467963182E+03  0.33778272198E+03  0.17212192305E+03 0.  0.
        -24    2    5    5    0    0  0.62744978923E+02  0.10428844593E+03  0.15088920146E+03  0.21024056893E+03  0.81366660067E+02 0.  0.
          5    1    3    3  501    0  0.13136656903E+02 -0.36635713257E+02  0.11383506461E+03  0.12039625898E+03  0.47000000000E+01 0. -1.
        -13    1    4    4    0    0 -0.70906468900E+01 -0.81358250134E+01 -0.10911746079E+02  0.15347153628E+02  0.00000000000E+00 0.  1.
         14    1    4    4    0    0 -0.97631442356E+02 -0.18360869501E+03  0.13751047493E+03  0.24930539933E+03  0.00000000000E+00 0. -1.
         -5    1    5    5    0  502  0.28840453420E+02  0.12409178735E+03  0.37904303572E+01  0.12754215305E+03  0.47000000000E+01 0.  1.
         13    1    6    6    0    0  0.22318444336E+02  0.10209904690E+03  0.95049399694E+02  0.14126824384E+03  0.00000000000E+00 0. -1.
        -14    1    6    6    0    0  0.40426534587E+02  0.21893990350E+01  0.55839801769E+02  0.68972325091E+02  0.00000000000E+00 0.  1.
</event>
<event>
12    1  0.1630640E-001  0.1958105E+03  0.7818608E-02  0.1153521E+00
         21   -1    0    0  503  502  0.00000000000E+00  0.00000000000E+00  0.17672644678E+03  0.17672644678E+03  0.00000000000E+00 0.  1.
         21   -1    0    0  501  503 -0.00000000000E+00 -0.00000000000E+00 -0.21649145528E+03  0.21649145528E+03  0.00000000000E+00 0.  1.
          6    2    1    2  501    0 -0.87572932086E+02  0.35953728579E+02 -0.29695089633E+02  0.19714862496E+03  0.17036458828E+03 0.  0.
         24    2    3    3    0    0 -0.96940048380E+02 -0.29016566838E+02 -0.20098921536E+02  0.13064254556E+03  0.80150944679E+02 0.  0.
         -6    2    1    2    0  502  0.87572932086E+02 -0.35953728579E+02 -0.10069918868E+02  0.19606927711E+03  0.17140615253E+03 0.  0.
        -24    2    5    5    0    0  0.59837310559E+02 -0.84468623679E+01  0.60965022631E+02  0.11486616569E+03  0.76325938033E+02 0.  0.
          5    1    3    3  501    0  0.93671162941E+01  0.64970295417E+02 -0.95961680971E+01  0.66506079395E+02  0.47000000000E+01 0. -1.
        -11    1    4    4    0    0 -0.87448421814E+02 -0.20487121864E+02 -0.46632020983E+02  0.10120026690E+03  0.00000000000E+00 0.  1.
         12    1    4    4    0    0 -0.94916265665E+01 -0.85294449744E+01  0.26533099447E+02  0.29442278660E+02  0.00000000000E+00 0. -1.
         -5    1    5    5    0  502  0.27735621527E+02 -0.27506866211E+02 -0.71034941499E+02  0.81203111419E+02  0.47000000000E+01 0.  1.
         11    1    6    6    0    0 -0.12141147333E+02 -0.22102835797E+01 -0.82253362460E+01  0.14830676600E+02  0.00000000000E+00 0. -1.
        -12    1    6    6    0    0  0.71978457892E+02 -0.62365787882E+01  0.69190358877E+02  0.10003548909E+03  0.00000000000E+00 0.  1.
</event>
<event>
12    1  0.1630640E-001  0.6101612E+03  0.7818608E-02  0.9885492E-01
         21   -1    0    0  501  502  0.00000000000E+00  0.00000000000E+00  0.91818784219E+03  0.91818784219E+03  0.00000000000E+00 0. -1.
         21   -1    0    0  502  503 -0.00000000000E+00 -0.00000000000E+00 -0.41540045340E+03  0.41540045340E+03  0.00000000000E+00 0.  1.
         -6    2    1    2    0  503  0.15651967605E+03 -0.56408730450E+03  0.14170116187E+03  0.62458900658E+03  0.16534603645E+03 0.  0.
        -24    2    3    3    0    0  0.39882973115E+02 -0.28089855212E+03  0.10899175751E+03  0.31654357960E+03  0.88464605663E+02 0.  0.
          6    2    1    2  501    0 -0.15651967605E+03  0.56408730450E+03  0.36108622692E+03  0.70899928901E+03  0.17205764282E+03 0.  0.
         24    2    5    5    0    0 -0.14799335665E+03  0.54318450467E+03  0.37554194102E+03  0.68178380016E+03  0.82740322558E+02 0.  0.
          5    1    5    5  501    0 -0.85263193922E+01  0.20902799835E+02 -0.14455714093E+02  0.27215488848E+02  0.47000000000E+01 0. -1.
        -11    1    6    6    0    0 -0.93620341684E+02  0.21895273990E+03  0.18716679628E+03  0.30288030692E+03  0.00000000000E+00 0.  1.
         12    1    6    6    0    0 -0.54373014970E+02  0.32423176477E+03  0.18837514473E+03  0.37890349324E+03  0.00000000000E+00 0. -1.
         -5    1    3    3    0  503  0.11663670293E+03 -0.28318875238E+03  0.32709404365E+02  0.30804542698E+03  0.47000000000E+01 0.  1.
         13    1    4    4    0    0 -0.20260424125E+02 -0.36650252360E+02 -0.12647665456E+01  0.41896603898E+02  0.00000000000E+00 0. -1.
        -14    1    4    4    0    0  0.60143397240E+02 -0.24424829976E+03  0.11025652405E+03  0.27464697571E+03  0.00000000000E+00 0.  1.
</event>
<event>
12    1  0.1630640E-001  0.2365403E+03  0.7818608E-02  0.1122464E+00
         21   -1    0    0  501  502  0.00000000000E+00  0.00000000000E+00  0.34650613564E+03  0.34650613564E+03  0.00000000000E+00 0.  1.
         21   -1    0    0  502  503 -0.00000000000E+00 -0.00000000000E+00 -0.16012555137E+03  0.16012555137E+03  0.00000000000E+00 0.  1.
         -6    2    1    2    0  503  0.85202223454E+01 -0.15907238196E+03  0.97067144973E+02  0.25568209450E+03  0.17485618640E+03 0.  0.
        -24    2    3    3    0    0  0.67632673949E+02 -0.13895294141E+03  0.71614864797E+02  0.18808784631E+03  0.79788787165E+02 0.  0.
          6    2    1    2  501    0 -0.85202223454E+01  0.15907238196E+03  0.89313439303E+02  0.25094959251E+03  0.17211098353E+03 0.  0.
         24    2    5    5    0    0 -0.70648628829E+02  0.11255083312E+03  0.73543750148E+02  0.17160876762E+03  0.79887215164E+02 0.  0.
          5    1    5    5  501    0  0.62128406483E+02  0.46521548840E+02  0.15769689155E+02  0.79340824893E+02  0.47000000000E+01 0. -1.
        -13    1    6    6    0    0 -0.87292555888E+01 -0.11657683595E+02  0.49800140618E-01  0.14563789685E+02  0.00000000000E+00 0.  1.
         14    1    6    6    0    0 -0.61919373240E+02  0.12420851671E+03  0.73493950007E+02  0.15704497793E+03  0.00000000000E+00 0. -1.
         -5    1    3    3    0  503 -0.59112451604E+02 -0.20119440552E+02  0.25452280176E+02  0.67594248194E+02  0.47000000000E+01 0.  1.
         13    1    4    4    0    0  0.15595616044E+02 -0.11365896814E+03  0.36422909676E+02  0.12036699144E+03  0.00000000000E+00 0. -1.
        -14    1    4    4    0    0  0.52037057905E+02 -0.25293973268E+02  0.35191955122E+02  0.67720854871E+02  0.00000000000E+00 0.  1.
</event>
<event>
12    1  0.1630640E-001  0.1758254E+03  0.7818608E-02  0.1172214E+00
         21   -1    0    0  501  502  0.00000000000E+00  0.00000000000E+00  0.60762139427E+02  0.60762139427E+02  0.00000000000E+00 0. -1.
         21   -1    0    0  502  503 -0.00000000000E+00 -0.00000000000E+00 -0.66033009763E+03  0.66033009763E+03  0.00000000000E+00 0. -1.
         -6    2    1    2    0  503 -0.52232687055E+01 -0.29994081138E+02 -0.47372017163E+03  0.50486957989E+03  0.17191731806E+03 0.  0.
        -24    2    3    3    0    0  0.38496647666E+02 -0.22812957589E+01 -0.42235980450E+03  0.43179833471E+03  0.81085147862E+02 0.  0.
          6    2    1    2  501    0  0.52232687055E+01  0.29994081138E+02 -0.12584778657E+03  0.21622265717E+03  0.17316941026E+03 0.  0.
         24    2    5    5    0    0 -0.63294874786E+02  0.74465405304E+01 -0.64543883416E+02  0.12144193066E+03  0.80749845180E+02 0.  0.
          5    1    5    5  501    0  0.68518143491E+02  0.22547540607E+02 -0.61303903156E+02  0.94780726506E+02  0.47000000000E+01 0. -1.
        -11    1    6    6    0    0 -0.35118514807E+02  0.38377562229E+02 -0.59913470360E+02  0.79345896526E+02  0.00000000000E+00 0.  1.
         12    1    6    6    0    0 -0.28176359979E+02 -0.30931021699E+02 -0.46304130557E+01  0.42096034137E+02  0.00000000000E+00 0. -1.
         -5    1    3    3    0  503 -0.43719916371E+02 -0.27712785379E+02 -0.51360367130E+02  0.73071245183E+02  0.47000000000E+01 0.  1.
         11    1    4    4    0    0  0.37341027845E+02  0.34337941249E+02 -0.29261931080E+03  0.29698401914E+03  0.00000000000E+00 0. -1.
        -12    1    4    4    0    0  0.11556198210E+01 -0.36619237008E+02 -0.12974049370E+03  0.13481431556E+03  0.00000000000E+00 0.  1.
</event>
<event>
12    1  0.1630640E-001  0.2008819E+03  0.7818608E-02  0.1149153E+00
         21   -1    0    0  503  502  0.00000000000E+00  0.00000000000E+00  0.15129618286E+03  0.15129618286E+03  0.00000000000E+00 0. -1.
         21   -1    0    0  501  503 -0.00000000000E+00 -0.00000000000E+00 -0.46047147057E+03  0.46047147057E+03  0.00000000000E+00 0.  1.
          6    2    1    2  501    0  0.98339543963E+02  0.30767057491E+02 -0.35334371411E+03  0.40608730919E+03  0.17157460373E+03 0.  0.
         24    2    3    3    0    0  0.44055318744E+02 -0.12124033358E+02 -0.71630118611E+02  0.11596481321E+03  0.78924652143E+02 0.  0.
         -6    2    1    2    0  502 -0.98339543963E+02 -0.30767057491E+02  0.44168426409E+02  0.20568034424E+03  0.17244209574E+03 0.  0.
        -24    2    5    5    0    0  0.11737376255E+02 -0.17470692649E+02  0.48312312695E+02  0.94626377740E+02  0.78594406310E+02 0.  0.
          5    1    3    3  501    0  0.54284225219E+02  0.42891090850E+02 -0.28171359550E+03  0.29012249598E+03  0.47000000000E+01 0. -1.
        -13    1    4    4    0    0  0.11007677584E+02 -0.37185583845E+02 -0.62408740315E+02  0.73476441662E+02  0.00000000000E+00 0.  1.
         14    1    4    4    0    0  0.33047641160E+02  0.25061550486E+02 -0.92213782961E+01  0.42488371547E+02  0.00000000000E+00 0. -1.
         -5    1    5    5    0  502 -0.11007692022E+03 -0.13296364842E+02 -0.41438862854E+01  0.11105396650E+03  0.47000000000E+01 0.  1.
         13    1    6    6    0    0  0.10309962430E+02 -0.45799216381E+02  0.46697927201E+02  0.66216009780E+02  0.00000000000E+00 0. -1.
        -14    1    6    6    0    0  0.14274138254E+01  0.28328523732E+02  0.16143854942E+01  0.28410367959E+02  0.00000000000E+00 0.  1.
</event>
<event>
12    1  0.1630640E-001  0.1894596E+03  0.7818608E-02  0.1160153E+00
         21   -1    0    0  501  502  0.00000000000E+00  0.00000000000E+00  0.30021295288E+03  0.30021295288E+03  0.00000000000E+00 0. -1.
         21   -1    0    0  502  503 -0.00000000000E+00 -0.00000000000E+00 -0.13826871676E+03  0.13826871676E+03  0.00000000000E+00 0. -1.
         -6    2    1    2    0  503 -0.50912603501E+02  0.44677894438E+02 -0.54925275044E+01  0.18953924117E+03  0.17693713188E+03 0.  0.
        -24    2    3    3    0    0 -0.44654900133E+01 -0.40950294401E+02  0.16314882637E+02  0.89603390688E+02  0.77882764555E+02 0.  0.
          6    2    1    2  501    0  0.50912603501E+02 -0.44677894438E+02  0.16743676363E+03  0.24894242847E+03  0.17131566020E+03 0.  0.
         24    2    5    5    0    0 -0.35192212608E+02  0.72546475357E+01  0.76098910296E+02  0.11301700139E+03  0.75436574132E+02 0.  0.
          5    1    5    5  501    0  0.86104816109E+02 -0.51932541973E+02  0.91337853337E+02  0.13592542707E+03  0.47000000000E+01 0. -1.
        -13    1    6    6    0    0 -0.10581152558E+02 -0.24064511068E+02 -0.92383138943E+00  0.26304276208E+02  0.00000000000E+00 0.  1.
         14    1    6    6    0    0 -0.24611060050E+02  0.31319158604E+02  0.77022741685E+02  0.86712725186E+02  0.00000000000E+00 0. -1.
         -5    1    3    3    0  503 -0.46447113488E+02  0.85628188839E+02 -0.21807410142E+02  0.99935850485E+02  0.47000000000E+01 0.  1.
         11    1    4    4    0    0 -0.61188248394E+00  0.10722559525E+02 -0.22453055728E+02  0.24889503701E+02  0.00000000000E+00 0. -1.
        -12    1    4    4    0    0 -0.38536075293E+01 -0.51672853926E+02  0.38767938366E+02  0.64713886987E+02  0.00000000000E+00 0.  1.
</event>
<event>
12    1  0.1630640E-001  0.2706349E+03  0.7818608E-02  0.1101229E+00
         21   -1    0    0  501  502  0.00000000000E+00  0.00000000000E+00  0.22255022706E+03  0.22255022706E+03  0.00000000000E+00 0.  1.
         21   -1    0    0  502  503 -0.00000000000E+00 -0.00000000000E+00 -0.36803739268E+03  0.36803739268E+03  0.00000000000E+00 0. -1.
         -6    2    1    2    0  503 -0.10548807958E+03  0.17722191526E+03  0.26760109420E+02  0.26978800038E+03  0.17185493740E+03 0.  0.
        -24    2    3    3    0    0  0.73065578568E+01  0.54657004277E+02  0.30442244010E+02  0.10311335997E+03  0.81638599207E+02 0.  0.
          6    2    1    2  501    0  0.10548807958E+03 -0.17722191526E+03 -0.17224727504E+03  0.32079961937E+03  0.17523678223E+03 0.  0.
         24    2    5    5    0    0  0.45209108327E+02 -0.18728010927E+02 -0.27824810714E+02  0.98013151450E+02  0.80235627354E+02 0.  0.
          5    1    5    5  501    0  0.60278971256E+02 -0.15849390433E+03 -0.14442246432E+03  0.22278646792E+03  0.47000000000E+01 0. -1.
        -11    1    6    6    0    0 -0.12769868231E+02 -0.15977897208E+02  0.15432798959E+02  0.25622919770E+02  0.00000000000E+00 0.  1.
         12    1    6    6    0    0  0.57978976557E+02 -0.27501137190E+01 -0.43257609673E+02  0.72390231680E+02  0.00000000000E+00 0. -1.
         -5    1    3    3    0  503 -0.11279463744E+03  0.12256491098E+03 -0.36821345898E+01  0.16667464040E+03  0.47000000000E+01 0.  1.
         13    1    4    4    0    0 -0.22750682797E+02  0.58327769094E+02  0.37038509325E+01  0.62717148588E+02  0.00000000000E+00 0. -1.
        -14    1    4    4    0    0  0.30057240653E+02 -0.36707648169E+01  0.26738393077E+02  0.40396211387E+02  0.00000000000E+00 0.  1.
</event>
