<event>
12    1  0.8451514E-002  0.5375219E+03  0.7818608E-02  0.1004443E+00
         21   -1    0    0  501  502  0.00000000000E+00  0.00000000000E+00  0.93870142916E+03  0.93870142916E+03  0.00000000000E+00 0.  1.
         21   -1    0    0  502  503 -0.00000000000E+00 -0.00000000000E+00 -0.31123546652E+03  0.31123546652E+03  0.00000000000E+00 0.  1.
         -6    2    1    2    0  503 -0.20903954012E+03  0.46415089099E+03  0.38106711887E+03  0.65863139625E+03  0.17160882292E+03 0.  0.
        -24    2    3    3    0    0 -0.49963795236E+02  0.27096859664E+03  0.21615734703E+03  0.35889515502E+03  0.78494410126E+02 0.  0.
          6    2    1    2  501    0  0.20903954012E+03 -0.46415089099E+03  0.24639884377E+03  0.59130549943E+03  0.17261582922E+03 0.  0.
         24    2    5    5    0    0  0.21957149147E+03 -0.41468929419E+03  0.25830108690E+03  0.53914109635E+03  0.61439561297E+02 0.  0.
          5    1    5    5  501    0 -0.10531951350E+02 -0.49461596800E+02 -0.11902243127E+02  0.52164403080E+02  0.47000000000E+01 0. -1.
        -11    1    6    6    0    0  0.71476455992E+02 -0.19845264988E+03  0.12330656548E+03  0.24432938238E+03  0.00000000000E+00 0.  1.
         12    1    6    6    0    0  0.14809503547E+03 -0.21623664431E+03  0.13499452142E+03  0.29481171396E+03  0.00000000000E+00 0. -1.
         -5    1    3    3    0  503 -0.15907574488E+03  0.19318229435E+03  0.16490977185E+03  0.29973624124E+03  0.47000000000E+01 0.  1.
         13    1    4    4    0    0 -0.15859562681E+02  0.15647036832E+03  0.16788131964E+03  0.23004051681E+03  0.00000000000E+00 0. -1.
        -14    1    4    4    0    0 -0.34104232554E+02  0.11449822833E+03  0.48276027390E+02  0.12885463821E+03  0.00000000000E+00 0.  1.
</event>
<event>
12    1  0.8451514E-002  0.3027256E+03  0.7818608E-02  0.1085401E+00
         21   -1    0    0  503  502  0.00000000000E+00  0.00000000000E+00  0.66775637115E+03  0.66775637115E+03  0.00000000000E+00 0.  1.
         21   -1    0    0  501  503 -0.00000000000E+00 -0.00000000000E+00 -0.35173368731E+03  0.35173368731E+03  0.00000000000E+00 0. -1.
          6    2    1    2  501    0 -0.19184962696E+03  0.13450989091E+03 -0.24379154416E+03  0.38868637798E+03  0.19168618443E+03 0.  0.
         24    2    3    3    0    0 -0.95608766039E+02  0.44055987335E+02 -0.26629004093E+02  0.13447018889E+03  0.79316843598E+02 0.  0.
         -6    2    1    2    0  502  0.19184962696E+03 -0.13450989091E+03  0.55981422801E+03  0.63080368049E+03  0.17211078793E+03 0.  0.
        -24    2    5    5    0    0  0.11978435191E+03 -0.13208994878E+03  0.28952970893E+03  0.35102685651E+03  0.87157077174E+02 0.  0.
          5    1    3    3  501    0 -0.96240860919E+02  0.90453903574E+02 -0.21716254007E+03  0.25421618908E+03  0.47000000000E+01 0. -1.
        -11    1    4    4    0    0 -0.31995713982E+02 -0.22751559927E+02 -0.12111761397E+02  0.41085933803E+02  0.00000000000E+00 0.  1.
         12    1    4    4    0    0 -0.63613052056E+02  0.66807547262E+02 -0.14517242697E+02  0.93384255089E+02  0.00000000000E+00 0. -1.
         -5    1    5    5    0  502  0.72065275044E+02 -0.24199421311E+01  0.27028451907E+03  0.27977682398E+03  0.47000000000E+01 0.  1.
         11    1    6    6    0    0 -0.11733814218E+02 -0.46748940299E+00  0.24894911048E+02  0.27525579713E+02  0.00000000000E+00 0. -1.
        -12    1    6    6    0    0  0.13151816613E+03 -0.13162245938E+03  0.26463479789E+03  0.32350127679E+03  0.00000000000E+00 0.  1.
</event>
<event>
12    1  0.8451514E-002  0.1890794E+03  0.7818608E-02  0.1159554E+00
         21   -1    0    0  501  502  0.00000000000E+00  0.00000000000E+00  0.75817039262E+03  0.75817039262E+03  0.00000000000E+00 0. -1.
         21   -1    0    0  502  503 -0.00000000000E+00 -0.00000000000E+00 -0.10107883674E+03  0.10107883674E+03  0.00000000000E+00 0. -1.
         -6    2    1    2    0  503  0.51967972931E+02 -0.53575454439E+02  0.14382801516E+02  0.18962566414E+03  0.17372399947E+03 0.  0.
        -24    2    3    3    0    0 -0.17656759891E+01  0.13665186140E+02 -0.56855511326E+02  0.77797242041E+02  0.51283591695E+02 0.  0.
          6    2    1    2  501    0 -0.51967972931E+02  0.53575454439E+02  0.64270875436E+03  0.66962356522E+03  0.17248239516E+03 0.  0.
         24    2    5    5    0    0 -0.26532253676E+02  0.65937756497E+02  0.20854343638E+03  0.23451275674E+03  0.80337537909E+02 0.  0.
          5    1    5    5  501    0 -0.25435719255E+02 -0.12362302058E+02  0.43416531798E+03  0.43511080849E+03  0.47000000000E+01 0. -1.
        -13    1    6    6    0    0 -0.48217411556E+02  0.18529110605E+02  0.13343702646E+03  0.14308629126E+03  0.00000000000E+00 0.  1.
         14    1    6    6    0    0  0.21685157881E+02  0.47408645892E+02  0.75106409924E+02  0.91426465475E+02  0.00000000000E+00 0. -1.
         -5    1    3    3    0  503  0.53733648920E+02 -0.67240640579E+02  0.71238312841E+02  0.11182842209E+03  0.47000000000E+01 0.  1.
         13    1    4    4    0    0 -0.11930596247E+02 -0.87225920952E+01 -0.50192401904E+02  0.52323034589E+02  0.00000000000E+00 0. -1.
        -14    1    4    4    0    0  0.10164920258E+02  0.22387778236E+02 -0.66631094218E+01  0.25474207453E+02  0.00000000000E+00 0.  1.
</event>
<event>
12    1  0.8451514E-002  0.1913573E+03  0.7818608E-02  0.1157346E+00
         21   -1    0    0  503  502  0.00000000000E+00  0.00000000000E+00  0.79346938382E+03  0.79346938382E+03  0.00000000000E+00 0.  1.
         21   -1    0    0  501  503 -0.00000000000E+00 -0.00000000000E+00 -0.69777214092E+02  0.69777214092E+02  0.00000000000E+00 0.  1.
          6    2    1    2  501    0  0.15996003082E+02 -0.82357521286E+02  0.11037557504E+03  0.22090810737E+03  0.17198543807E+03 0.  0.
         24    2    3    3    0    0  0.43753853078E+02 -0.14918747956E+02  0.23841026092E+01  0.90513573347E+02  0.77782095080E+02 0.  0.
         -6    2    1    2    0  502 -0.15996003082E+02  0.82357521286E+02  0.61331659468E+03  0.64233849054E+03  0.17147261498E+03 0.  0.
        -24    2    5    5    0    0 -0.30210829920E+02  0.11856722822E+03  0.41446708840E+03  0.43966530453E+03  0.80942762420E+02 0.  0.
          5    1    3    3  501    0 -0.27757849996E+02 -0.67438773330E+02  0.10799147243E+03  0.13039453402E+03  0.47000000000E+01 0. -1.
        -13    1    4    4    0    0 -0.52181877702E+01  0.26038732447E+02 -0.10742251872E+01  0.26578168312E+02  0.00000000000E+00 0.  1.
         14    1    4    4    0    0  0.48972040848E+02 -0.40957480403E+02  0.34583277964E+01  0.63935405035E+02  0.00000000000E+00 0. -1.
         -5    1    5    5    0  502  0.14214826837E+02 -0.36209706935E+02  0.19884950629E+03  0.20267318601E+03  0.47000000000E+01 0.  1.
         13    1    6    6    0    0 -0.38623215200E+02  0.13114376592E+02  0.10723403837E+03  0.11472958908E+03  0.00000000000E+00 0. -1.
        -14    1    6    6    0    0  0.84123852807E+01  0.10545285163E+03  0.30723305003E+03  0.32493571545E+03  0.00000000000E+00 0.  1.
</event>
<event>
12    1  0.8451514E-002  0.3208171E+03  0.7818608E-02  0.1075350E+00
         21   -1    0    0  501  502  0.00000000000E+00  0.00000000000E+00  0.94421043177E+03  0.94421043177E+03  0.00000000000E+00 0. -1.
         21   -1    0    0  502  503 -0.00000000000E+00 -0.00000000000E+00 -0.31353274049E+03  0.31353274049E+03  0.00000000000E+00 0.  1.
         -6    2    1    2    0  503  0.33962324451E+02 -0.26848465765E+03 -0.19297557557E+03  0.37381538640E+03  0.17105823414E+03 0.  0.
        -24    2    3    3    0    0  0.17123898663E+02 -0.24838561661E+03 -0.10447383863E+03  0.28139162607E+03  0.79232706734E+02 0.  0.
          6    2    1    2  501    0 -0.33962324451E+02  0.26848465765E+03  0.82365326684E+03  0.88392778586E+03  0.17229676652E+03 0.  0.
         24    2    5    5    0    0 -0.29207065237E+02  0.55594468482E+02  0.35291986433E+03  0.36724909327E+03  0.79847781941E+02 0.  0.
          5    1    5    5  501    0 -0.47552592142E+01  0.21289018917E+03  0.47073340251E+03  0.51667869259E+03  0.47000000000E+01 0. -1.
        -11    1    6    6    0    0 -0.40332926563E+02  0.34636288246E+02  0.10031302673E+03  0.11353026363E+03  0.00000000000E+00 0.  1.
         12    1    6    6    0    0  0.11125861326E+02  0.20958180236E+02  0.25260683760E+03  0.25371882963E+03  0.00000000000E+00 0. -1.
         -5    1    3    3    0  503  0.16838425788E+02 -0.20099041041E+02 -0.88501736937E+02  0.92423760336E+02  0.47000000000E+01 0.  1.
         11    1    4    4    0    0 -0.27662613468E+02 -0.12307258625E+03 -0.33237166062E+02  0.13044842229E+03  0.00000000000E+00 0. -1.
        -12    1    4    4    0    0  0.44786512131E+02 -0.12531303036E+03 -0.71236672568E+02  0.15094320378E+03  0.00000000000E+00 0.  1.
</event>
<event>
12    1  0.8451514E-002  0.1842228E+03  0.7818608E-02  0.1164376E+00
         21   -1    0    0  503  502  0.00000000000E+00  0.00000000000E+00  0.39087117093E+03  0.39087117093E+03  0.00000000000E+00 0. -1.
         21   -1    0    0  501  503 -0.00000000000E+00 -0.00000000000E+00 -0.17069509366E+03  0.17069509366E+03  0.00000000000E+00 0. -1.
          6    2    1    2  501    0 -0.31881938767E+02 -0.49471783425E+02 -0.87732940719E+02  0.20404680860E+03  0.17456837010E+03 0.  0.
         24    2    3    3    0    0 -0.18367066660E+02 -0.54484658019E+02 -0.12707228003E+03  0.16188694264E+03  0.82183275360E+02 0.  0.
         -6    2    1    2    0  502  0.31881938767E+02  0.49471783425E+02  0.30790901799E+03  0.35751945598E+03  0.17189613920E+03 0.  0.
        -24    2    5    5    0    0 -0.47247467822E+02  0.41546575624E+02  0.19187090896E+03  0.21676717482E+03  0.78836040061E+02 0.  0.
          5    1    3    3  501    0 -0.13514872107E+02  0.50128745936E+01  0.39339339314E+02  0.42159865956E+02  0.47000000000E+01 0. -1.
        -13    1    4    4    0    0 -0.21773715051E+01 -0.36534731173E+02 -0.44084984043E+01  0.36864107024E+02  0.00000000000E+00 0.  1.
         14    1    4    4    0    0 -0.16189695154E+02 -0.17949926846E+02 -0.12266378163E+03  0.12502283562E+03  0.00000000000E+00 0. -1.
         -5    1    5    5    0  502  0.79129406589E+02  0.79252078012E+01  0.11603810903E+03  0.14075228116E+03  0.47000000000E+01 0.  1.
         11    1    6    6    0    0  0.22062562601E+01  0.47475915273E+02  0.65430570518E+02  0.80870202522E+02  0.00000000000E+00 0. -1.
        -12    1    6    6    0    0 -0.49453724082E+02 -0.59293396491E+01  0.12644033844E+03  0.13589697230E+03  0.00000000000E+00 0.  1.
</event>
<event>
12    1  0.8451514E-002  0.2699588E+03  0.7818608E-02  0.1101475E+00
         21   -1    0    0  503  502  0.00000000000E+00  0.00000000000E+00  0.49713485878E+02  0.49713485878E+02  0.00000000000E+00 0.  1.
         21   -1    0    0  501  503 -0.00000000000E+00 -0.00000000000E+00 -0.15170319341E+04  0.15170319341E+04  0.00000000000E+00 0. -1.
          6    2    1    2  501    0 -0.19842019338E+03  0.60620192326E+02 -0.88785979598E+03  0.92799395406E+03  0.17272052741E+03 0.  0.
         24    2    3    3    0    0 -0.13304506225E+03 -0.29073085111E+01 -0.72446526276E+03  0.74083222021E+03  0.79202402201E+02 0.  0.
         -6    2    1    2    0  502  0.19842019338E+03 -0.60620192326E+02 -0.57945865224E+03  0.63875146592E+03  0.17083829987E+03 0.  0.
        -24    2    5    5    0    0  0.14559976222E+03 -0.10427900540E+03 -0.46997169250E+03  0.50950142043E+03  0.81516280213E+02 0.  0.
          5    1    3    3  501    0 -0.65375131123E+02  0.63527500837E+02 -0.16339453322E+03  0.18716173385E+03  0.47000000000E+01 0. -1.
        -13    1    4    4    0    0 -0.64918838451E+02 -0.38756510582E+01 -0.16695868621E+03  0.17917778645E+03  0.00000000000E+00 0.  1.
         14    1    4    4    0    0 -0.68126223802E+02  0.96834254712E+00 -0.55750657656E+03  0.56165443376E+03  0.00000000000E+00 0. -1.
         -5    1    5    5    0  502  0.52820431159E+02  0.43658813076E+02 -0.10948695973E+03  0.12925004549E+03  0.47000000000E+01 0.  1.
         11    1    6    6    0    0  0.78211243682E+02 -0.96683502559E+02 -0.24849455316E+03  0.27787450630E+03  0.00000000000E+00 0. -1.
        -12    1    6    6    0    0  0.67388518535E+02 -0.75955028421E+01 -0.22147713935E+03  0.23162691413E+03  0.00000000000E+00 0.  1.
</event>
<event>
12    1  0.8451514E-002  0.2347690E+03  0.7818608E-02  0.1124080E+00
         21   -1    0    0  501  502  0.00000000000E+00  0.00000000000E+00  0.41617266568E+03  0.41617266568E+03  0.00000000000E+00 0.  1.
         21   -1    0    0  502  503 -0.00000000000E+00 -0.00000000000E+00 -0.21405966070E+03  0.21405966070E+03  0.00000000000E+00 0.  1.
         -6    2    1    2    0  503 -0.12824555893E+03 -0.91255860253E+02 -0.95837150130E+02  0.25357685970E+03  0.17418929076E+03 0.  0.
        -24    2    3    3    0    0 -0.11414159740E+02 -0.59915395245E+02 -0.83625618614E+02  0.13190923013E+03  0.81772020119E+02 0.  0.
          6    2    1    2  501    0  0.12824555893E+03  0.91255860253E+02  0.29795015511E+03  0.37665546668E+03  0.16828692830E+03 0.  0.
         24    2    5    5    0    0  0.72838449239E+02  0.70299072658E+02  0.28997127737E+03  0.31669808815E+03  0.77245958009E+02 0.  0.
          5    1    5    5  501    0  0.55407109690E+02  0.20956787595E+02  0.79788777304E+01  0.59957378532E+02  0.47000000000E+01 0. -1.
        -13    1    6    6    0    0  0.74179013451E+02  0.31162665064E+02  0.13780641939E+03  0.15957520784E+03  0.00000000000E+00 0.  1.
         14    1    6    6    0    0 -0.13405642120E+01  0.39136407594E+02  0.15216485798E+03  0.15712288031E+03  0.00000000000E+00 0. -1.
         -5    1    3    3    0  503 -0.11683139919E+03 -0.31340465008E+02 -0.12211531516E+02  0.12166762957E+03  0.47000000000E+01 0.  1.
         13    1    4    4    0    0 -0.11817550876E+02  0.42668821471E+00 -0.68749624352E+02  0.69759210288E+02  0.00000000000E+00 0. -1.
        -14    1    4    4    0    0  0.40339113604E+00 -0.60342083460E+02 -0.14875994262E+02  0.62150019839E+02  0.00000000000E+00 0.  1.
</event>
<event>
12    1  0.8451514E-002  0.1799322E+03  0.7818608E-02  0.1168261E+00
         21   -1    0    0  501  502  0.00000000000E+00  0.00000000000E+00  0.95058292092E+02  0.95058292092E+02  0.00000000000E+00 0.  1.
         21   -1    0    0  502  503 -0.00000000000E+00 -0.00000000000E+00 -0.11624493986E+04  0.11624493986E+04  0.00000000000E+00 0.  1.
         -6    2    1    2    0  503  0.41475763976E+02  0.28718841266E+02 -0.10640512981E+04  0.10791574356E+04  0.17271535830E+03 0.  0.
        -24    2    3    3    0    0 -0.14443963578E+02  0.72829094221E+02 -0.62936987565E+03  0.63865458730E+03  0.79123551800E+02 0.  0.
          6    2    1    2  501    0 -0.41475763976E+02 -0.28718841266E+02 -0.33398084538E+01  0.17835025513E+03  0.17103405609E+03 0.  0.
         24    2    5    5    0    0  0.13462415092E+02 -0.25854931494E+02  0.51159033258E+02  0.10077049459E+03  0.81778553377E+02 0.  0.
          5    1    5    5  501    0 -0.54938179068E+02 -0.28639097724E+01 -0.54498841712E+02  0.77579760547E+02  0.47000000000E+01 0. -1.
        -13    1    6    6    0    0 -0.28169267890E+02 -0.22824065998E+02  0.20427097091E+01  0.36312784321E+02  0.00000000000E+00 0.  1.
         14    1    6    6    0    0  0.41631682982E+02 -0.30308654953E+01  0.49116323549E+02  0.64457710265E+02  0.00000000000E+00 0. -1.
         -5    1    3    3    0  503  0.55919727555E+02 -0.44110252955E+02 -0.43468142242E+03  0.44050284828E+03  0.47000000000E+01 0.  1.
         13    1    4    4    0    0  0.15066958978E+02  0.62832995292E+02 -0.25755157898E+03  0.26553307587E+03  0.00000000000E+00 0. -1.
        -14    1    4    4    0    0 -0.29510922556E+02  0.99960989288E+01 -0.37181829668E+03  0.37312151142E+03  0.00000000000E+00 0.  1.
</event>
<event>
12    1  0.8451514E-002  0.1785091E+03  0.7818608E-02  0.1169590E+00
         21   -1    0    0  503  502  0.00000000000E+00  0.00000000000E+00  0.13244003216E+03  0.13244003216E+03  0.00000000000E+00 0. -1.
         21   -1    0    0  501  503 -0.00000000000E+00 -0.00000000000E+00 -0.23897845016E+03  0.23897845016E+03  0.00000000000E+00 0. -1.
          6    2    1    2  501    0 -0.20949687091E+02 -0.35838056878E+02 -0.47464245284E+02  0.18338852987E+03  0.17220697605E+03 0.  0.
         24    2    3    3    0    0 -0.43375528960E+02 -0.84815243021E+02 -0.40138122182E+02  0.12882255856E+03  0.76870805769E+02 0.  0.
         -6    2    1    2    0  502  0.20949687091E+02  0.35838056878E+02 -0.59074172713E+02  0.18802995245E+03  0.17361523385E+03 0.  0.
        -24    2    5    5    0    0  0.76621551868E+02  0.34232798783E+02 -0.13506395430E+02  0.11591583657E+03  0.78811875553E+02 0.  0.
          5    1    3    3  501    0  0.22425841869E+02  0.48977186144E+02 -0.73261231022E+01  0.54565971317E+02  0.47000000000E+01 0. -1.
        -13    1    4    4    0    0  0.19692233766E+02 -0.31126014035E+02 -0.11170283662E+00  0.36832394681E+02  0.00000000000E+00 0.  1.
         14    1    4    4    0    0 -0.63067762726E+02 -0.53689228986E+02 -0.40026419345E+02  0.91990163876E+02  0.00000000000E+00 0. -1.
         -5    1    5    5    0  502 -0.55671864777E+02  0.16052580949E+01 -0.45567777283E+02  0.72114115871E+02  0.47000000000E+01 0.  1.
         11    1    6    6    0    0  0.70101266047E+02 -0.75959238762E+01  0.27570242299E+01  0.70565478412E+02  0.00000000000E+00 0. -1.
        -12    1    6    6    0    0  0.65202858214E+01  0.41828722659E+02 -0.16263419660E+02  0.45350358163E+02  0.00000000000E+00 0.  1.
</event>
<event>
12    1  0.8451514E-002  0.1902301E+03  0.7818608E-02  0.1158418E+00
         21   -1    0    0  503  502  0.00000000000E+00  0.00000000000E+00  0.19324385092E+03  0.19324385092E+03  0.00000000000E+00 0.  1.
         21   -1    0    0  501  503 -0.00000000000E+00 -0.00000000000E+00 -0.21875874583E+03  0.21875874583E+03  0.00000000000E+00 0.  1.
          6    2    1    2  501    0  0.78023824115E+02 -0.12004390122E+02 -0.91784337343E+02  0.21055995939E+03  0.17227683943E+03 0.  0.
         24    2    3    3    0    0  0.11194203119E+03 -0.77150780380E+01 -0.10560004510E+03  0.17338729806E+03  0.79506256537E+02 0.  0.
         -6    2    1    2    0  502 -0.78023824115E+02  0.12004390122E+02  0.66269442431E+02  0.20144263736E+03  0.17307707715E+03 0.  0.
        -24    2    5    5    0    0 -0.15896163532E+02 -0.50210372486E+02  0.13608497453E+02  0.98847374205E+02  0.82533887974E+02 0.  0.
          5    1    3    3  501    0 -0.33918207072E+02 -0.42893120843E+01  0.13815707761E+02  0.37172661326E+02  0.47000000000E+01 0. -1.
        -11    1    4    4    0    0  0.93368934954E+02 -0.87359566631E+01 -0.34543859470E+02  0.99936745896E+02  0.00000000000E+00 0.  1.
         12    1    4    4    0    0  0.18573096232E+02  0.10208786251E+01 -0.71056185634E+02  0.73450552167E+02  0.00000000000E+00 0. -1.
         -5    1    5    5    0  502 -0.62127660582E+02  0.62214762608E+02  0.52660944979E+02  0.10259526316E+03  0.47000000000E+01 0.  1.
         13    1    6    6    0    0 -0.44817563395E+02 -0.17994462239E+02 -0.10314196161E+02  0.49384180689E+02  0.00000000000E+00 0. -1.
        -14    1    6    6    0    0  0.28921399862E+02 -0.32215910247E+02  0.23922693614E+02  0.49463193516E+02  0.00000000000E+00 0.  1.
</event>
<event>
12    1  0.8451514E-002  0.3124354E+03  0.7818608E-02  0.1079371E+00
         21   -1    0    0  503  502  0.00000000000E+00  0.00000000000E+00  0.10608311301E+04  0.10608311301E+04  0.00000000000E+00 0. -1.
         21   -1    0    0  501  503 -0.00000000000E+00 -0.00000000000E+00 -0.14323759531E+03  0.14323759531E+03  0.00000000000E+00 0.  1.
          6    2    1    2  501    0  0.14297591943E+03 -0.21765441934E+03  0.97910050017E+02  0.32741758929E+03  0.17262775005E+03 0.  0.
         24    2    3    3    0    0  0.11393392289E+03 -0.23888161484E+03  0.88814476567E+02  0.29001637476E+03  0.78588305053E+02 0.  0.
         -6    2    1    2    0  502 -0.14297591943E+03  0.21765441934E+03  0.81968348479E+03  0.87665113614E+03  0.16976642616E+03 0.  0.
        -24    2    5    5    0    0 -0.50640323707E+02  0.67101157320E+02  0.19169998429E+03  0.22428811309E+03  0.80555980504E+02 0.  0.
          5    1    3    3  501    0  0.29041996540E+02  0.21227195495E+02  0.90955734496E+01  0.37401214526E+02  0.47000000000E+01 0. -1.
        -13    1    4    4    0    0  0.69136845336E+02 -0.18314575122E+03  0.31295370459E+02  0.19824648745E+03  0.00000000000E+00 0.  1.
         14    1    4    4    0    0  0.44797077551E+02 -0.55735863613E+02  0.57519106109E+02  0.91769887312E+02  0.00000000000E+00 0. -1.
         -5    1    5    5    0  502 -0.92335595720E+02  0.15055326202E+03  0.62798350050E+03  0.65236302305E+03  0.47000000000E+01 0.  1.
         13    1    6    6    0    0 -0.60525757575E+02  0.69493810429E+02  0.19315556093E+03  0.21401361578E+03  0.00000000000E+00 0. -1.
        -14    1    6    6    0    0  0.98854338682E+01 -0.23926531091E+01 -0.14555766386E+01  0.10274497312E+02  0.00000000000E+00 0.  1.
</event>
<event>
12    1  0.8451514E-002  0.1743454E+03  0.7818608E-02  0.1173503E+00
         21   -1    0    0  501  502  0.00000000000E+00  0.00000000000E+00  0.33715477297E+02  0.33715477297E+02  0.00000000000E+00 0. -1.
         21   -1    0    0  502  503 -0.00000000000E+00 -0.00000000000E+00 -0.24738677321E+04  0.24738677321E+04  0.00000000000E+00 0. -1.
         -6    2    1    2    0  503  0.17463084215E+02 -0.16609631176E+02 -0.22197953497E+04  0.22265965992E+04  0.17222131714E+03 0.  0.
        -24    2    3    3    0    0  0.16909357307E+01 -0.67138815255E+02 -0.18706438843E+04  0.18734241274E+04  0.76804552688E+02 0.  0.
          6    2    1    2  501    0 -0.17463084215E+02  0.16609631176E+02 -0.22035690514E+03  0.28098661019E+03  0.17267156773E+03 0.  0.
         24    2    5    5    0    0  0.50629885655E+02 -0.15020536681E+02 -0.14845996415E+03  0.17692710708E+03  0.80460166653E+02 0.  0.
          5    1    5    5  501    0 -0.68092969870E+02  0.31630167857E+02 -0.71896940986E+02  0.10405950311E+03  0.47000000000E+01 0. -1.
        -13    1    6    6    0    0  0.45875236991E+02 -0.79411690461E+01 -0.15765525941E+03  0.16438607104E+03  0.00000000000E+00 0.  1.
         14    1    6    6    0    0  0.47546486644E+01 -0.70793676349E+01  0.91952952508E+01  0.12541036033E+02  0.00000000000E+00 0. -1.
         -5    1    3    3    0  503  0.15772148484E+02  0.50529184078E+02 -0.34915146536E+03  0.35317247185E+03  0.47000000000E+01 0.  1.
         11    1    4    4    0    0 -0.12880194711E+02  0.14210744473E+02 -0.40091837793E+03  0.40137686834E+03  0.00000000000E+00 0. -1.
        -12    1    4    4    0    0  0.14571130441E+02 -0.81349559727E+02 -0.14697255064E+04  0.14720472590E+04  0.00000000000E+00 0.  1.
</event>
<event>
12    1  0.8451514E-002  0.1760511E+03  0.7818608E-02  0.1172186E+00
         21   -1    0    0  501  502  0.00000000000E+00  0.00000000000E+00  0.41834595903E+02  0.41834595903E+02  0.00000000000E+00 0. -1.
         21   -1    0    0  502  503 -0.00000000000E+00 -0.00000000000E+00 -0.85117895661E+03  0.85117895661E+03  0.00000000000E+00 0. -1.
         -6    2    1    2    0  503  0.81068535633E+01  0.35897118895E+02 -0.56945417931E+03  0.59545464979E+03  0.17009953971E+03 0.  0.
        -24    2    3    3    0    0 -0.54090155129E+02  0.44093903391E+02 -0.28257965947E+03  0.30176308489E+03  0.79622096527E+02 0.  0.
          6    2    1    2  501    0 -0.81068535633E+01 -0.35897118895E+02 -0.23989018140E+03  0.29755890272E+03  0.17216177635E+03 0.  0.
         24    2    5    5    0    0 -0.48176085871E+02  0.26880145779E+02 -0.16838719167E+03  0.19420854772E+03  0.79493623663E+02 0.  0.
          5    1    5    5  501    0  0.40069232308E+02 -0.62777264674E+02 -0.71502989728E+02  0.10335035500E+03  0.47000000000E+01 0. -1.
        -11    1    6    6    0    0 -0.45826118585E+02 -0.19861078516E+02 -0.85168331801E+02  0.98732671017E+02  0.00000000000E+00 0.  1.
         12    1    6    6    0    0 -0.23499672857E+01  0.46741224295E+02 -0.83218859868E+02  0.95475876705E+02  0.00000000000E+00 0. -1.
         -5    1    3    3    0  503  0.62197008692E+02 -0.81967844957E+01 -0.28687451983E+03  0.29369156490E+03  0.47000000000E+01 0.  1.
         13    1    4    4    0    0 -0.26659418709E+02  0.96056275325E+01 -0.23579878717E+03  0.23749539094E+03  0.00000000000E+00 0. -1.
        -14    1    4    4    0    0 -0.27430736420E+02  0.34488275859E+02 -0.46780872305E+02  0.64267693952E+02  0.00000000000E+00 0.  1.
</event>
<event>
12    1  0.8451514E-002  0.1909607E+03  0.7818608E-02  0.1158103E+00
         21   -1    0    0  503  502  0.00000000000E+00  0.00000000000E+00  0.19943976727E+03  0.19943976727E+03  0.00000000000E+00 0. -1.
         21   -1    0    0  501  503 -0.00000000000E+00 -0.00000000000E+00 -0.18082500707E+03  0.18082500707E+03  0.00000000000E+00 0. -1.
          6    2    1    2  501    0  0.77197166627E+02  0.87367627438E+01  0.43249374536E+01  0.18877019603E+03  0.17198763987E+03 0.  0.
         24    2    3    3    0    0  0.39462266972E+02 -0.28496374400E+02  0.60940842976E+02  0.11106768699E+03  0.79075475854E+02 0.  0.
         -6    2    1    2    0  502 -0.77197166627E+02 -0.87367627438E+01  0.14289822744E+02  0.19149457831E+03  0.17444265800E+03 0.  0.
        -24    2    5    5    0    0 -0.97950881363E+02 -0.60564797247E+02  0.11370101985E+02  0.13539220220E+03  0.70280149211E+02 0.  0.
          5    1    3    3  501    0  0.37734899654E+02  0.37233137143E+02 -0.56615905522E+02  0.77702509043E+02  0.47000000000E+01 0. -1.
        -11    1    4    4    0    0 -0.20237183132E+02  0.86328814961E+01  0.19872444382E+02  0.29647668876E+02  0.00000000000E+00 0.  1.
         12    1    4    4    0    0  0.59699450105E+02 -0.37129255896E+02  0.41068398594E+02  0.81420018111E+02  0.00000000000E+00 0. -1.
         -5    1    5    5    0  502  0.20753714736E+02  0.51828034503E+02  0.29197207584E+01  0.56102376109E+02  0.47000000000E+01 0.  1.
         11    1    6    6    0    0 -0.71075246066E+02 -0.41576746052E+02  0.40210184571E+02  0.91636102922E+02  0.00000000000E+00 0. -1.
        -12    1    6    6    0    0 -0.26875635297E+02 -0.18988051194E+02 -0.28840082585E+02  0.43756099281E+02  0.00000000000E+00 0.  1.
</event>
<event>
12    1  0.8451514E-002  0.2051632E+03  0.7818608E-02  0.1145699E+00
         21   -1    0    0  503  502  0.00000000000E+00  0.00000000000E+00  0.83005712768E+02  0.83005712768E+02  0.00000000000E+00 0.  1.
         21   -1    0    0  501  503 -0.00000000000E+00 -0.00000000000E+00 -0.56032144440E+03  0.56032144440E+03  0.00000000000E+00 0.  1.
          6    2    1    2  501    0  0.10345606386E+03 -0.41027728908E+02 -0.34112435391E+03  0.39806753062E+03  0.17235284278E+03 0.  0.
         24    2    3    3    0    0  0.11338693216E+03  0.17068711128E+02 -0.18054751964E+03  0.22695111354E+03  0.75904306890E+02 0.  0.
         -6    2    1    2    0  502 -0.10345606386E+03  0.41027728908E+02 -0.13619137773E+03  0.24525962655E+03  0.17093203726E+03 0.  0.
        -24    2    5    5    0    0 -0.83282457878E+02  0.65950061958E+02 -0.15950743149E+03  0.20533688334E+03  0.73724056436E+02 0.  0.
          5    1    3    3  501    0 -0.99308683027E+01 -0.58096440036E+02 -0.16057683427E+03  0.17111641708E+03  0.47000000000E+01 0. -1.
        -11    1    4    4    0    0  0.52363624807E+02 -0.27500792057E+02 -0.10232945771E+03  0.11819289608E+03  0.00000000000E+00 0.  1.
         12    1    4    4    0    0  0.61023307356E+02  0.44569503185E+02 -0.78218061927E+02  0.10875821747E+03  0.00000000000E+00 0. -1.
         -5    1    5    5    0  502 -0.20173605982E+02 -0.24922333050E+02  0.23316053759E+02  0.39922743215E+02  0.47000000000E+01 0.  1.
         11    1    6    6    0    0 -0.15919231535E+02  0.56157741424E+02 -0.95340398972E+02  0.11178955913E+03  0.00000000000E+00 0. -1.
        -12    1    6    6    0    0 -0.67363226342E+02  0.97923205340E+01 -0.64167032514E+02  0.93547324207E+02  0.00000000000E+00 0.  1.
</event>
<event>
12    1  0.8451514E-002  0.2651381E+03  0.7818608E-02  0.1104345E+00
         21   -1    0    0  503  502  0.00000000000E+00  0.00000000000E+00  0.15880901654E+03  0.15880901654E+03  0.00000000000E+00 0. -1.
         21   -1    0    0  501  503 -0.00000000000E+00 -0.00000000000E+00 -0.65379136229E+03  0.65379136229E+03  0.00000000000E+00 0. -1.
          6    2    1    2  501    0  0.37998877645E+02 -0.19805952396E+03 -0.14519798312E+02  0.26383589772E+03  0.16949060933E+03 0.  0.
         24    2    3    3    0    0  0.18236923536E+02 -0.66579798571E+02 -0.63235143761E+02  0.12215764286E+03  0.78475163875E+02 0.  0.
         -6    2    1    2    0  502 -0.37998877645E+02  0.19805952396E+03 -0.48046254743E+03  0.54876448111E+03  0.17212410205E+03 0.  0.
        -24    2    5    5    0    0  0.19611167147E+01  0.14901009112E+03 -0.44412065320E+03  0.47565175111E+03  0.82423179425E+02 0.  0.
          5    1    3    3  501    0  0.19761954109E+02 -0.13147972539E+03  0.48715345449E+02  0.14167825486E+03  0.47000000000E+01 0. -1.
        -13    1    4    4    0    0 -0.14714841942E+02  0.44830816688E+01 -0.36132014765E+02  0.39270180616E+02  0.00000000000E+00 0.  1.
         14    1    4    4    0    0  0.32951765478E+02 -0.71062880239E+02 -0.27103128996E+02  0.82887462245E+02  0.00000000000E+00 0. -1.
         -5    1    5    5    0  502 -0.39959994360E+02  0.49049432838E+02 -0.36341894240E+02  0.73112729999E+02  0.47000000000E+01 0.  1.
         11    1    6    6    0    0  0.36732610668E+02  0.70321013646E+02 -0.27036437929E+03  0.28176448895E+03  0.00000000000E+00 0. -1.
        -12    1    6    6    0    0 -0.34771493954E+02  0.78689077474E+02 -0.17375627391E+03  0.19388726216E+03  0.00000000000E+00 0.  1.
</event>
<event>
12    1  0.8451514E-002  0.1819613E+03  0.7818608E-02  0.1166033E+00
         21   -1    0    0  501  502  0.00000000000E+00  0.00000000000E+00  0.16881981298E+03  0.16881981298E+03  0.00000000000E+00 0.  1.
         21   -1    0    0  502  503 -0.00000000000E+00 -0.00000000000E+00 -0.22266933391E+03  0.22266933391E+03  0.00000000000E+00 0.  1.
         -6    2    1    2    0  503  0.55077412558E+02  0.21809869190E+02  0.41347863399E+02  0.18612984316E+03  0.17153856983E+03 0.  0.
        -24    2    3    3    0    0 -0.10340474604E+02  0.38370738980E+02 -0.25198587610E+02  0.91238945223E+02  0.78168646418E+02 0.  0.
          6    2    1    2  501    0 -0.55077412558E+02 -0.21809869190E+02 -0.95197384336E+02  0.20535930373E+03  0.17204856837E+03 0.  0.
         24    2    5    5    0    0 -0.98594541711E+02 -0.18746496318E+02 -0.40343032577E+02  0.13511533823E+03  0.80970856284E+02 0.  0.
          5    1    5    5  501    0  0.43517129153E+02 -0.30633728718E+01 -0.54854351759E+02  0.70243965506E+02  0.47000000000E+01 0. -1.
        -11    1    6    6    0    0 -0.66285520941E+02 -0.49884434973E+02 -0.34570805354E+02  0.89874177169E+02  0.00000000000E+00 0.  1.
         12    1    6    6    0    0 -0.32309020771E+02  0.31137938655E+02 -0.57722272227E+01  0.45241161059E+02  0.00000000000E+00 0. -1.
         -5    1    3    3    0  503  0.65417887161E+02 -0.16560869791E+02  0.66546451009E+02  0.94890897934E+02  0.47000000000E+01 0.  1.
         11    1    4    4    0    0  0.52737342651E+01  0.35722149579E+02 -0.50082606273E+02  0.61742624618E+02  0.00000000000E+00 0. -1.
        -12    1    4    4    0    0 -0.15614208869E+02  0.26485894009E+01  0.24884018662E+02  0.29496320604E+02  0.00000000000E+00 0.  1.
</event>
<event>
12    1  0.8451514E-002  0.1780900E+03  0.7818608E-02  0.1170283E+00
         21   -1    0    0  501  502  0.00000000000E+00  0.00000000000E+00  0.19137052842E+03  0.19137052842E+03  0.00000000000E+00 0.  1.
         21   -1    0    0  502  503 -0.00000000000E+00 -0.00000000000E+00 -0.20919166560E+03  0.20919166560E+03  0.00000000000E+00 0.  1.
         -6    2    1    2    0  503  0.31466633081E+02 -0.18801930486E+02 -0.10255189609E+03  0.20334312122E+03  0.17172033068E+03 0.  0.
        -24    2    3    3    0    0 -0.43677591475E+02 -0.12124932617E+02 -0.88596495199E+02  0.12647908543E+03  0.78056864537E+02 0.  0.
          6    2    1    2  501    0 -0.31466633081E+02  0.18801930486E+02  0.84730758914E+02  0.19721907280E+03  0.17427679015E+03 0.  0.
         24    2    5    5    0    0 -0.33713880650E+02 -0.44663452056E+02  0.95822515164E+01  0.98718854190E+02  0.80759785354E+02 0.  0.
          5    1    5    5  501    0  0.22472475687E+01  0.63465382542E+02  0.75148507397E+02  0.98500218613E+02  0.47000000000E+01 0. -1.
        -13    1    6    6    0    0 -0.17058004561E+02 -0.64360021037E+02  0.21957135747E+02  0.70109226481E+02  0.00000000000E+00 0.  1.
         14    1    6    6    0    0 -0.16655876088E+02  0.19696568981E+02 -0.12374884231E+02  0.28609627709E+02  0.00000000000E+00 0. -1.
         -5    1    3    3    0  503  0.75144224556E+02 -0.66769978688E+01 -0.13955400895E+02  0.76864035796E+02  0.47000000000E+01 0.  1.
         13    1    4    4    0    0  0.51739186962E+01  0.32779798142E+01  0.12067209796E+02  0.13532632360E+02  0.00000000000E+00 0. -1.
        -14    1    4    4    0    0 -0.48851510172E+02 -0.15402912431E+02 -0.10066370499E+03  0.11294645307E+03  0.00000000000E+00 0.  1.
</event>
<event>
12    1  0.8451514E-002  0.1839008E+03  0.7818608E-02  0.1164675E+00
         21   -1    0    0  503  502  0.00000000000E+00  0.00000000000E+00  0.34361730738E+02  0.34361730738E+02  0.00000000000E+00 0.  1.
         21   -1    0    0  501  503 -0.00000000000E+00 -0.00000000000E+00 -0.16520837544E+04  0.16520837544E+04  0.00000000000E+00 0. -1.
          6    2    1    2  501    0 -0.21566148213E+02 -0.51992508725E+02 -0.26412300647E+03  0.32041114886E+03  0.17243555913E+03 0.  0.
         24    2    3    3    0    0  0.49656458006E+02 -0.51324187242E+01 -0.16447180888E+03  0.18918242161E+03  0.79037378432E+02 0.  0.
         -6    2    1    2    0  502  0.21566148213E+02  0.51992508725E+02 -0.13535990172E+04  0.13660343363E+04  0.17507480929E+03 0.  0.
        -24    2    5    5    0    0 -0.13031894308E+02  0.97846211370E+02 -0.88760532359E+03  0.89649009016E+03  0.78150879304E+02 0.  0.
          5    1    3    3  501    0 -0.71222606219E+02 -0.46860090001E+02 -0.99651197594E+02  0.13122872724E+03  0.47000000000E+01 0. -1.
        -13    1    4    4    0    0  0.47263247694E+02 -0.35673159348E+02 -0.13126599136E+03  0.14400399080E+03  0.00000000000E+00 0.  1.
         14    1    4    4    0    0  0.23932103121E+01  0.30540740624E+02 -0.33205817520E+02  0.45178430812E+02  0.00000000000E+00 0. -1.
         -5    1    5    5    0  502  0.34598042521E+02 -0.45853702645E+02 -0.46599369360E+03  0.46954424612E+03  0.47000000000E+01 0.  1.
         13    1    6    6    0    0 -0.29151080569E+02  0.64456648135E+01 -0.31502582693E+03  0.31643736146E+03  0.00000000000E+00 0. -1.
        -14    1    6    6    0    0  0.16119186261E+02  0.91400546557E+02 -0.57257949666E+03  0.58005272870E+03  0.00000000000E+00 0.  1.
</event>
<event>
12    1  0.8451514E-002  0.2060836E+03  0.7818608E-02  0.1144890E+00
         21   -1    0    0  503  502  0.00000000000E+00  0.00000000000E+00  0.50931221757E+02  0.50931221757E+02  0.00000000000E+00 0.  1.
         21   -1    0    0  501  503 -0.00000000000E+00 -0.00000000000E+00 -0.12694593585E+04  0.12694593585E+04  0.00000000000E+00 0.  1.
          6    2    1    2  501    0  0.16246580192E+02  0.11022906911E+03 -0.99673047387E+03  0.10176288483E+04  0.17228591466E+03 0.  0.
         24    2    3    3    0    0  0.16659011656E+02  0.13615184401E+03 -0.95696820645E+03  0.96992886649E+03  0.78479364187E+02 0.  0.
         -6    2    1    2    0  502 -0.16246580192E+02 -0.11022906911E+03 -0.22179766284E+03  0.30276173189E+03  0.17336684806E+03 0.  0.
        -24    2    5    5    0    0 -0.28947875450E-01  0.13342145800E+02 -0.79389629827E+02  0.11346039903E+03  0.79953330959E+02 0.  0.
          5    1    3    3  501    0 -0.41243146415E+00 -0.25922774896E+02 -0.39762267426E+02  0.47699981854E+02  0.47000000000E+01 0. -1.
        -11    1    4    4    0    0  0.26563788772E+02  0.95080687875E+02 -0.42630349784E+03  0.43758501385E+03  0.00000000000E+00 0.  1.
         12    1    4    4    0    0 -0.99047771166E+01  0.41071156135E+02 -0.53066470861E+03  0.53234385264E+03  0.00000000000E+00 0. -1.
         -5    1    5    5    0  502 -0.16217632316E+02 -0.12357121492E+03 -0.14240803302E+03  0.18930133286E+03  0.47000000000E+01 0.  1.
         11    1    6    6    0    0 -0.33457517595E+02  0.27089593990E+02 -0.30944526357E+02  0.53017122684E+02  0.00000000000E+00 0. -1.
        -12    1    6    6    0    0  0.33428569720E+02 -0.13747448190E+02 -0.48445103470E+02  0.60443276346E+02  0.00000000000E+00 0.  1.
</event>
<event>
12    1  0.8451514E-002  0.1886919E+03  0.7818608E-02  0.1160461E+00
         21   -1    0    0  501  502  0.00000000000E+00  0.00000000000E+00  0.91767108787E+03  0.91767108787E+03  0.00000000000E+00 0. -1.
         21   -1    0    0  502  503 -0.00000000000E+00 -0.00000000000E+00 -0.38151800375E+02  0.38151800375E+02  0.00000000000E+00 0. -1.
         -6    2    1    2    0  503 -0.57252089711E+02  0.54205536095E+02  0.42230331990E+03  0.46254161148E+03  0.17143105445E+03 0.  0.
        -24    2    3    3    0    0  0.74883656915E+01  0.27443792055E+01  0.32409859846E+03  0.33406657676E+03  0.80603777461E+02 0.  0.
          6    2    1    2  501    0  0.57252089711E+02 -0.54205536095E+02  0.45721596759E+03  0.49328127676E+03  0.16752293893E+03 0.  0.
         24    2    5    5    0    0  0.80072177618E+02  0.61526435694E+01  0.35447263831E+03  0.37186402932E+03  0.78629487742E+02 0.  0.
          5    1    5    5  501    0 -0.22820087907E+02 -0.60358179664E+02  0.10274332928E+03  0.12141724744E+03  0.47000000000E+01 0. -1.
        -11    1    6    6    0    0  0.71647308203E+02 -0.11304402958E+02  0.34005934411E+03  0.34770890672E+03  0.00000000000E+00 0.  1.
         12    1    6    6    0    0  0.84248694147E+01  0.17457046528E+02  0.14413294204E+02  0.24155122602E+02  0.00000000000E+00 0. -1.
         -5    1    3    3    0  503 -0.64740455403E+02  0.51461156889E+02  0.98204721438E+02  0.12847503472E+03  0.47000000000E+01 0.  1.
         11    1    4    4    0    0  0.68228420010E+01  0.26739128397E+02  0.29525287344E+03  0.29653969622E+03  0.00000000000E+00 0. -1.
        -12    1    4    4    0    0  0.66552369050E+00 -0.23994749191E+02  0.28845725026E+02  0.37526880537E+02  0.00000000000E+00 0.  1.
</event>
<event>
12    1  0.8451514E-002  0.2434416E+03  0.7818608E-02  0.1118024E+00
         21   -1    0    0  503  502  0.00000000000E+00  0.00000000000E+00  0.15943126514E+04  0.15943126514E+04  0.00000000000E+00 0. -1.
         21   -1    0    0  501  503 -0.00000000000E+00 -0.00000000000E+00 -0.63077726241E+02  0.63077726241E+02  0.00000000000E+00 0. -1.
          6    2    1    2  501    0 -0.17063703035E+03 -0.46395387925E+02  0.22698693530E+03  0.33061737078E+03  0.16283503590E+03 0.  0.
         24    2    3    3    0    0 -0.79391407717E+02 -0.82616202123E+02  0.15660569322E+03  0.20973180395E+03  0.79584257028E+02 0.  0.
         -6    2    1    2    0  502  0.17063703035E+03  0.46395387925E+02  0.13042479899E+04  0.13267730069E+04  0.16731486649E+03 0.  0.
        -24    2    5    5    0    0  0.13983260724E+03  0.40803112313E+02  0.62518754031E+03  0.64697497056E+03  0.80616995378E+02 0.  0.
          5    1    3    3  501    0 -0.91245622632E+02  0.36220814198E+02  0.70381242086E+02  0.12088556683E+03  0.47000000000E+01 0. -1.
        -13    1    4    4    0    0 -0.59549809369E+02 -0.72994875789E+02  0.62439716943E+02  0.11301836107E+03  0.00000000000E+00 0.  1.
         14    1    4    4    0    0 -0.19841598348E+02 -0.96213263348E+01  0.94165976274E+02  0.96713442877E+02  0.00000000000E+00 0. -1.
         -5    1    5    5    0  502  0.30804423110E+02  0.55922756123E+01  0.67906044956E+03  0.67979803632E+03  0.47000000000E+01 0.  1.
         13    1    6    6    0    0  0.60545968170E+02 -0.20835811701E+02  0.19598849955E+03  0.20618301886E+03  0.00000000000E+00 0. -1.
        -14    1    6    6    0    0  0.79286639068E+02  0.61638924014E+02  0.42919904076E+03  0.44079195169E+03  0.00000000000E+00 0.  1.
</event>
<event>
12    1  0.8451514E-002  0.2499586E+03  0.7818608E-02  0.1113408E+00
         21   -1    0    0  501  502  0.00000000000E+00  0.00000000000E+00  0.10600917434E+04  0.10600917434E+04  0.00000000000E+00 0.  1.
         21   -1    0    0  502  503 -0.00000000000E+00 -0.00000000000E+00 -0.96280394453E+02  0.96280394453E+02  0.00000000000E+00 0. -1.
         -6    2    1    2    0  503 -0.11334097642E+03  0.14101875681E+03  0.12155602835E+03  0.27794811788E+03  0.17247266885E+03 0.  0.
        -24    2    3    3    0    0 -0.87785712208E+02  0.14317511635E+02  0.58123434744E+02  0.13389236136E+03  0.81470904965E+02 0.  0.
          6    2    1    2  501    0  0.11334097642E+03 -0.14101875681E+03  0.84225532063E+03  0.87842402000E+03  0.17176223997E+03 0.  0.
         24    2    5    5    0    0  0.94473428721E+02 -0.38720864303E+02  0.53945365207E+03  0.55821817426E+03  0.10086006777E+03 0.  0.
          5    1    5    5  501    0  0.18867547701E+02 -0.10229789250E+03  0.30280166856E+03  0.32020584574E+03  0.47000000000E+01 0. -1.
        -13    1    6    6    0    0  0.37837908200E+02 -0.46307626173E+01  0.41973036379E+03  0.42145786213E+03  0.00000000000E+00 0.  1.
         14    1    6    6    0    0  0.56635520521E+02 -0.34090101686E+02  0.11972328828E+03  0.13676031213E+03  0.00000000000E+00 0. -1.
         -5    1    3    3    0  503 -0.25555264214E+02  0.12670124517E+03  0.63432593603E+02  0.14405575653E+03  0.47000000000E+01 0.  1.
         13    1    4    4    0    0 -0.41626374327E+02 -0.10665782133E+02  0.68043685902E+02  0.80476438411E+02  0.00000000000E+00 0. -1.
        -14    1    4    4    0    0 -0.46159337881E+02  0.24983293768E+02 -0.99202511580E+01  0.53415922946E+02  0.00000000000E+00 0.  1.
</event>
<event>
12    1  0.8451514E-002  0.1720706E+03  0.7818608E-02  0.1175982E+00
         21   -1    0    0  501  502  0.00000000000E+00  0.00000000000E+00  0.61286500478E+02  0.61286500478E+02  0.00000000000E+00 0.  1.
         21   -1    0    0  502  503 -0.00000000000E+00 -0.00000000000E+00 -0.14169157039E+04  0.14169157039E+04  0.00000000000E+00 0.  1.
         -6    2    1    2    0  503 -0.12238640262E+02 -0.32546024858E+00 -0.12780726845E+04  0.12894607999E+04  0.17055637636E+03 0.  0.
        -24    2    3    3    0    0  0.55611761697E+02  0.14252720680E+02 -0.68660931508E+03  0.69392137408E+03  0.82454313206E+02 0.  0.
          6    2    1    2  501    0  0.12238640262E+02  0.32546024858E+00 -0.77556518951E+02  0.18874140445E+03  0.17163453581E+03 0.  0.
         24    2    5    5    0    0 -0.58187079753E+02 -0.10640409461E+02 -0.56231093242E+02  0.11419681297E+03  0.79875037908E+02 0.  0.
          5    1    5    5  501    0  0.70425720015E+02  0.10965869709E+02 -0.21325425709E+02  0.74544591486E+02  0.47000000000E+01 0. -1.
        -13    1    6    6    0    0 -0.68293878687E+02  0.17666349091E+01 -0.14965077262E+02  0.69936602737E+02  0.00000000000E+00 0.  1.
         14    1    6    6    0    0  0.10106798934E+02 -0.12407044370E+02 -0.41266015979E+02  0.44260210229E+02  0.00000000000E+00 0. -1.
         -5    1    3    3    0  503 -0.67850401959E+02 -0.14578180929E+02 -0.59146336940E+03  0.59553942585E+03  0.47000000000E+01 0.  1.
         13    1    4    4    0    0 -0.21743647871E+02  0.18948253550E+01 -0.12831982260E+03  0.13016279599E+03  0.00000000000E+00 0. -1.
        -14    1    4    4    0    0  0.77355409569E+02  0.12357895325E+02 -0.55828949247E+03  0.56375857809E+03  0.00000000000E+00 0.  1.
</event>
<event>
12    1  0.8451514E-002  0.1760911E+03  0.7818608E-02  0.1173429E+00
         21   -1    0    0  501  502  0.00000000000E+00  0.00000000000E+00  0.94664634749E+03  0.94664634749E+03  0.00000000000E+00 0. -1.
         21   -1    0    0  502  503 -0.00000000000E+00 -0.00000000000E+00 -0.41733431374E+02  0.41733431374E+02  0.00000000000E+00 0. -1.
         -6    2    1    2    0  503 -0.47503764798E+01  0.33608627776E+02  0.20038034036E+03  0.26217442082E+03  0.16562318736E+03 0.  0.
        -24    2    3    3    0    0 -0.59420394301E+02  0.33142391479E+02  0.91042762920E+02  0.13983953591E+03  0.81468458631E+02 0.  0.
          6    2    1    2  501    0  0.47503764798E+01 -0.33608627776E+02  0.70453257576E+03  0.72620535805E+03  0.17278878961E+03 0.  0.
         24    2    5    5    0    0  0.67708268506E+02 -0.29820545429E+01  0.38152699711E+03  0.39566583394E+03  0.79970621818E+02 0.  0.
          5    1    5    5  501    0 -0.62957892026E+02 -0.30626573234E+02  0.32300557865E+03  0.33053952411E+03  0.47000000000E+01 0. -1.
        -11    1    6    6    0    0  0.56768398200E+01 -0.33983157122E+02  0.10185321129E+03  0.10752282608E+03  0.00000000000E+00 0.  1.
         12    1    6    6    0    0  0.62031428686E+02  0.31001102579E+02  0.27967378581E+03  0.28814300786E+03  0.00000000000E+00 0. -1.
         -5    1    3    3    0  503  0.54670017821E+02  0.46623629770E+00  0.10933757744E+03  0.12233488491E+03  0.47000000000E+01 0.  1.
         13    1    4    4    0    0  0.20521233566E+02  0.36794369405E+01  0.15581722870E+02  0.26027857592E+02  0.00000000000E+00 0. -1.
        -14    1    4    4    0    0 -0.79941627867E+02  0.29462954538E+02  0.75461040050E+02  0.11381167832E+03  0.00000000000E+00 0.  1.
</event>
<event>
12    1  0.8451514E-002  0.1991023E+03  0.7818608E-02  0.1150501E+00
         21   -1    0    0  503  502  0.00000000000E+00  0.00000000000E+00  0.35416025890E+02  0.35416025890E+02  0.00000000000E+00 0. -1.
         21   -1    0    0  501  503 -0.00000000000E+00 -0.00000000000E+00 -0.16493387683E+04  0.16493387683E+04  0.00000000000E+00 0. -1.
          6    2    1    2  501    0  0.37561155327E+02 -0.92083511661E+02 -0.12845001927E+04  0.12998379803E+04  0.17247555278E+03 0.  0.
         24    2    3    3    0    0  0.51980896919E+02  0.75977290588E+01 -0.51232105439E+03  0.52110375707E+03  0.79476560838E+02 0.  0.
         -6    2    1    2    0  502 -0.37561155327E+02  0.92083511661E+02 -0.32942254971E+03  0.38491681395E+03  0.17248630061E+03 0.  0.
        -24    2    5    5    0    0 -0.29502582877E+01  0.10677493722E+03 -0.31871114404E+03  0.34553945510E+03  0.80069535104E+02 0.  0.
          5    1    3    3  501    0 -0.14419741592E+02 -0.99681240720E+02 -0.77217913834E+03  0.77873422320E+03  0.47000000000E+01 0. -1.
        -11    1    4    4    0    0 -0.49063653101E+01  0.10549745349E+02 -0.32742671775E+03  0.32763336986E+03  0.00000000000E+00 0.  1.
         12    1    4    4    0    0  0.56887262229E+02 -0.29520162900E+01 -0.18489433664E+03  0.19347038721E+03  0.00000000000E+00 0. -1.
         -5    1    5    5    0  502 -0.34610897039E+02 -0.14691425558E+02 -0.10711405665E+02  0.39377358851E+02  0.47000000000E+01 0.  1.
         11    1    6    6    0    0 -0.19366635348E+02  0.64082791642E+02 -0.89267771456E+02  0.11158138631E+03  0.00000000000E+00 0. -1.
        -12    1    6    6    0    0  0.16416377061E+02  0.42692145576E+02 -0.22944337258E+03  0.23395806879E+03  0.00000000000E+00 0.  1.
</event>
<event>
12    1  0.8451514E-002  0.1870087E+03  0.7818608E-02  0.1161548E+00
         21   -1    0    0  501  502  0.00000000000E+00  0.00000000000E+00  0.12440327820E+03  0.12440327820E+03  0.00000000000E+00 0.  1.
         21   -1    0    0  502  503 -0.00000000000E+00 -0.00000000000E+00 -0.59676949520E+03  0.59676949520E+03  0.00000000000E+00 0.  1.
         -6    2    1    2    0  503 -0.71322879599E+02 -0.62034591328E+01 -0.49985890279E+03  0.53369577287E+03  0.17276232002E+03 0.  0.
        -24    2    3    3    0    0 -0.51322449956E+02  0.52131085670E+02 -0.41836813725E+03  0.43139342113E+03  0.75609136787E+02 0.  0.
          6    2    1    2  501    0  0.71322879599E+02  0.62034591328E+01  0.27492685790E+02  0.18747700053E+03  0.17107408306E+03 0.  0.
         24    2    5    5    0    0  0.98091605181E+02 -0.60356613700E+01 -0.22518186429E+02  0.12925726092E+03  0.80882498512E+02 0.  0.
          5    1    5    5  501    0 -0.26768725582E+02  0.12239120503E+02  0.50010872219E+02  0.58219739608E+02  0.47000000000E+01 0. -1.
        -13    1    6    6    0    0  0.24690914088E+02  0.26184344449E+02  0.17093945832E+02  0.39842993322E+02  0.00000000000E+00 0.  1.
         14    1    6    6    0    0  0.73400691094E+02 -0.32220005819E+02 -0.39612132261E+02  0.89414267599E+02  0.00000000000E+00 0. -1.
         -5    1    3    3    0  503 -0.20000429643E+02 -0.58334544803E+02 -0.81490765548E+02  0.10230235175E+03  0.47000000000E+01 0.  1.
         11    1    4    4    0    0 -0.47169553687E+01  0.50107112593E+02 -0.13235451210E+03  0.14160045647E+03  0.00000000000E+00 0. -1.
        -12    1    4    4    0    0 -0.46605494588E+02  0.20239730771E+01 -0.28601362515E+03  0.28979296465E+03  0.00000000000E+00 0.  1.
</event>
<event>
12    1  0.8451514E-002  0.3214368E+03  0.7818608E-02  0.1075022E+00
         21   -1    0    0  501  502  0.00000000000E+00  0.00000000000E+00  0.31498635033E+03  0.31498635033E+03  0.00000000000E+00 0.  1.
         21   -1    0    0  502  503 -0.00000000000E+00 -0.00000000000E+00 -0.50270751681E+03  0.50270751681E+03  0.00000000000E+00 0.  1.
         -6    2    1    2    0  503  0.15681010737E+03  0.22102978603E+03 -0.33509523033E+03  0.46433868060E+03  0.17285259857E+03 0.  0.
        -24    2    3    3    0    0  0.15900674900E+02  0.73922302633E+02 -0.77917229047E+02  0.13622483729E+03  0.82272555716E+02 0.  0.
          6    2    1    2  501    0 -0.15681010737E+03 -0.22102978603E+03  0.14737406384E+03  0.35335518654E+03  0.17232874709E+03 0.  0.
         24    2    5    5    0    0 -0.17893908397E+03 -0.22151546754E+03  0.12570848833E+03  0.32202764826E+03  0.82528080542E+02 0.  0.
          5    1    5    5  501    0  0.22128976597E+02  0.48568151353E+00  0.21665575514E+02  0.31327538271E+02  0.47000000000E+01 0. -1.
        -11    1    6    6    0    0 -0.89570928703E+02 -0.13623646256E+03  0.30046456391E+02  0.16578936800E+03  0.00000000000E+00 0.  1.
         12    1    6    6    0    0 -0.89368155263E+02 -0.85279004979E+02  0.95662031938E+02  0.15623828026E+03  0.00000000000E+00 0. -1.
         -5    1    3    3    0  503  0.14090943247E+03  0.14710748339E+03 -0.25717800128E+03  0.32811384331E+03  0.47000000000E+01 0.  1.
         11    1    4    4    0    0  0.63258806704E+01  0.81410355667E+02 -0.30325038602E+02  0.87104940975E+02  0.00000000000E+00 0. -1.
        -12    1    4    4    0    0  0.95747942295E+01 -0.74880530342E+01 -0.47592190445E+02  0.49119896316E+02  0.00000000000E+00 0.  1.
</event>
<event>
12    1  0.8451514E-002  0.2490981E+03  0.7818608E-02  0.1113895E+00
         21   -1    0    0  501  502  0.00000000000E+00  0.00000000000E+00  0.11855308728E+03  0.11855308728E+03  0.00000000000E+00 0.  1.
         21   -1    0    0  502  503 -0.00000000000E+00 -0.00000000000E+00 -0.10881474496E+04  0.10881474496E+04  0.00000000000E+00 0.  1.
         -6    2    1    2    0  503  0.17822086127E+03  0.31569576968E+02 -0.91961375134E+03  0.95275353492E+03  0.17114477224E+03 0.  0.
        -24    2    3    3    0    0  0.14387403728E+03  0.53485824589E+02 -0.46619879500E+03  0.49748741619E+03  0.81190767795E+02 0.  0.
          6    2    1    2  501    0 -0.17822086127E+03 -0.31569576968E+02 -0.49980611002E+02  0.25394700199E+03  0.17097281878E+03 0.  0.
         24    2    5    5    0    0 -0.73782218306E+02 -0.29787558605E+02  0.40201912611E+02  0.11586882378E+03  0.74015377861E+02 0.  0.
          5    1    5    5  501    0 -0.10443864296E+03 -0.17820183631E+01 -0.90182523613E+02  0.13807817821E+03  0.47000000000E+01 0. -1.
        -13    1    6    6    0    0 -0.20766963671E+02  0.15761107352E+02  0.37817795574E+02  0.45933266236E+02  0.00000000000E+00 0.  1.
         14    1    6    6    0    0 -0.53015254635E+02 -0.45548665956E+02  0.23841170372E+01  0.69935557540E+02  0.00000000000E+00 0. -1.
         -5    1    3    3    0  503  0.34346823992E+02 -0.21916247621E+02 -0.45341495633E+03  0.45526611872E+03  0.47000000000E+01 0.  1.
         11    1    4    4    0    0  0.11794925364E+03  0.32477067185E+02 -0.43474752705E+03  0.45163281392E+03  0.00000000000E+00 0. -1.
        -12    1    4    4    0    0  0.25924783640E+02  0.21008757404E+02 -0.31451267948E+02  0.45854602277E+02  0.00000000000E+00 0.  1.
</event>
<event>
12    1  0.8451514E-002  0.1859895E+03  0.7818608E-02  0.1162961E+00
         21   -1    0    0  503  502  0.00000000000E+00  0.00000000000E+00  0.14392200614E+03  0.14392200614E+03  0.00000000000E+00 0.  1.
         21   -1    0    0  501  503 -0.00000000000E+00 -0.00000000000E+00 -0.47487644091E+03  0.47487644091E+03  0.00000000000E+00 0. -1.
          6    2    1    2  501    0  0.66628869969E+02 -0.41006834574E+02 -0.38421823829E+03  0.42533234240E+03  0.16481195362E+03 0.  0.
         24    2    3    3    0    0  0.30019451508E+02  0.52361956873E+02 -0.12159515002E+03  0.14417232172E+03  0.48552403065E+02 0.  0.
         -6    2    1    2    0  502 -0.66628869969E+02  0.41006834574E+02  0.53263803515E+02  0.19346610465E+03  0.16873391506E+03 0.  0.
        -24    2    5    5    0    0 -0.90016176522E+02 -0.11836011505E+02  0.59364954249E+02  0.13516819277E+03  0.80642664515E+02 0.  0.
          5    1    3    3  501    0  0.36609418460E+02 -0.93368791447E+02 -0.26262308827E+03  0.28116002068E+03  0.47000000000E+01 0. -1.
        -13    1    4    4    0    0  0.26538625124E+02  0.52968834527E+01 -0.25832534840E+02  0.37412236689E+02  0.00000000000E+00 0.  1.
         14    1    4    4    0    0  0.34808263845E+01  0.47065073420E+02 -0.95762615183E+02  0.10676008503E+03  0.00000000000E+00 0. -1.
         -5    1    5    5    0  502  0.23387306554E+02  0.52842846079E+02 -0.61011507346E+01  0.58297911882E+02  0.47000000000E+01 0.  1.
         13    1    6    6    0    0  0.30064662346E+01  0.74661039190E+01 -0.13310113950E+02  0.15554442462E+02  0.00000000000E+00 0. -1.
        -14    1    6    6    0    0 -0.93022642757E+02 -0.19302115424E+02  0.72675068199E+02  0.11961375031E+03  0.00000000000E+00 0.  1.
</event>
<event>
12    1  0.8451514E-002  0.3290313E+03  0.7818608E-02  0.1071630E+00
         21   -1    0    0  501  502  0.00000000000E+00  0.00000000000E+00  0.72331301485E+03  0.72331301485E+03  0.00000000000E+00 0. -1.
         21   -1    0    0  502  503 -0.00000000000E+00 -0.00000000000E+00 -0.15657333153E+03  0.15657333153E+03  0.00000000000E+00 0.  1.
         -6    2    1    2    0  503 -0.19081250360E+03 -0.20521075154E+03  0.18906085794E+03  0.37898425123E+03  0.17135982783E+03 0.  0.
        -24    2    3    3    0    0 -0.11911183440E+03 -0.16701856643E+03  0.65791064046E+02  0.23127791740E+03  0.84131922240E+02 0.  0.
          6    2    1    2  501    0  0.19081250360E+03  0.20521075154E+03  0.37767882538E+03  0.50090209515E+03  0.17245506575E+03 0.  0.
         24    2    5    5    0    0  0.55522351237E+02  0.20592692366E+02  0.12404134595E+03  0.15922781448E+03  0.80376930347E+02 0.  0.
          5    1    5    5  501    0  0.13529015236E+03  0.18461805918E+03  0.25363747943E+03  0.34167428067E+03  0.47000000000E+01 0. -1.
        -11    1    6    6    0    0  0.38161233024E+02  0.11759664178E+00  0.65633352446E+01  0.38721711021E+02  0.00000000000E+00 0.  1.
         12    1    6    6    0    0  0.17361118213E+02  0.20475095724E+02  0.11747801071E+03  0.12050610346E+03  0.00000000000E+00 0. -1.
         -5    1    3    3    0  503 -0.71700669200E+02 -0.38192185111E+02  0.12326979389E+03  0.14770633383E+03  0.47000000000E+01 0.  1.
         13    1    4    4    0    0  0.10451532655E+02 -0.22670262749E+02  0.19980352457E+02  0.31974831231E+02  0.00000000000E+00 0. -1.
        -14    1    4    4    0    0 -0.12956336705E+03 -0.14434830368E+03  0.45810711589E+02  0.19930308617E+03  0.00000000000E+00 0.  1.
</event>
<event>
12    1  0.8451514E-002  0.1824605E+03  0.7818608E-02  0.1165746E+00
         21   -1    0    0  503  502  0.00000000000E+00  0.00000000000E+00  0.13256563981E+03  0.13256563981E+03  0.00000000000E+00 0.  1.
         21   -1    0    0  501  503 -0.00000000000E+00 -0.00000000000E+00 -0.36470639292E+03  0.36470639292E+03  0.00000000000E+00 0.  1.
          6    2    1    2  501    0  0.48237830495E+01  0.57538271708E+02 -0.25615566171E+03  0.31449569085E+03  0.17308349125E+03 0.  0.
         24    2    3    3    0    0  0.86685358893E+01  0.78200224003E+02 -0.83542750776E+02  0.14054453271E+03  0.81135417164E+02 0.  0.
         -6    2    1    2    0  502 -0.48237830495E+01 -0.57538271708E+02  0.24014908607E+02  0.18277634188E+03  0.17174560757E+03 0.  0.
        -24    2    5    5    0    0 -0.49817043472E+02 -0.44326140963E+01  0.51382627918E+02  0.10783845817E+03  0.80545469901E+02 0.  0.
          5    1    3    3  501    0 -0.38447528397E+01 -0.20661952294E+02 -0.17261291094E+03  0.17395115814E+03  0.47000000000E+01 0. -1.
        -13    1    4    4    0    0  0.42966842343E+02  0.40801707492E+02 -0.28737259437E+02  0.65854073185E+02  0.00000000000E+00 0.  1.
         14    1    4    4    0    0 -0.34298306453E+02  0.37398516511E+02 -0.54805491339E+02  0.74690459523E+02  0.00000000000E+00 0. -1.
         -5    1    5    5    0  502  0.44993260422E+02 -0.53105657612E+02 -0.27367719311E+02  0.74937883704E+02  0.47000000000E+01 0.  1.
         11    1    6    6    0    0  0.22073330096E+02 -0.56526139577E+01  0.10043661129E+02  0.24900985421E+02  0.00000000000E+00 0. -1.
        -12    1    6    6    0    0 -0.71890373568E+02  0.12199998614E+01  0.41338966788E+02  0.82937472752E+02  0.00000000000E+00 0.  1.
</event>
<event>
12    1  0.8451514E-002  0.2682401E+03  0.7818608E-02  0.1102318E+00
         21   -1    0    0  501  502  0.00000000000E+00  0.00000000000E+00  0.12443996431E+03  0.12443996431E+03  0.00000000000E+00 0.  1.
         21   -1    0    0  502  503 -0.00000000000E+00 -0.00000000000E+00 -0.62779009581E+03  0.62779009581E+03  0.00000000000E+00 0. -1.
         -6    2    1    2    0  503 -0.17315890817E+03 -0.11173654688E+03 -0.35786962214E+03  0.44723976992E+03  0.17170813013E+03 0.  0.
        -24    2    3    3    0    0 -0.13540482150E+03 -0.15360990812E+02 -0.26544286137E+03  0.30839303796E+03  0.77948235939E+02 0.  0.
          6    2    1    2  501    0  0.17315890817E+03  0.11173654688E+03 -0.14548050936E+03  0.30499029020E+03  0.17142180470E+03 0.  0.
         24    2    5    5    0    0  0.69055405892E+02  0.16704750348E+02 -0.64445865290E+01  0.10694570084E+03  0.79675293941E+02 0.  0.
          5    1    5    5  501    0  0.10410350228E+03  0.95031796536E+02 -0.13903592283E+03  0.19804458937E+03  0.47000000000E+01 0. -1.
        -13    1    6    6    0    0  0.54796339148E+02 -0.25704893527E+02 -0.12476337529E+02  0.61798376462E+02  0.00000000000E+00 0.  1.
         14    1    6    6    0    0  0.14259066744E+02  0.42409643874E+02  0.60317509998E+01  0.45147324374E+02  0.00000000000E+00 0. -1.
         -5    1    3    3    0  503 -0.37754086678E+02 -0.96375556072E+02 -0.92426760776E+02  0.13884673196E+03  0.47000000000E+01 0.  1.
         11    1    4    4    0    0 -0.97951013293E+02 -0.39063653910E+02 -0.22458581496E+03  0.24811118142E+03  0.00000000000E+00 0. -1.
        -12    1    4    4    0    0 -0.37453808203E+02  0.23702663098E+02 -0.40857046404E+02  0.60281856539E+02  0.00000000000E+00 0.  1.
</event>
<event>
12    1  0.8451514E-002  0.2161405E+03  0.7818608E-02  0.1136940E+00
         21   -1    0    0  501  502  0.00000000000E+00  0.00000000000E+00  0.34845667305E+02  0.34845667305E+02  0.00000000000E+00 0. -1.
         21   -1    0    0  502  503 -0.00000000000E+00 -0.00000000000E+00 -0.15478247170E+04  0.15478247170E+04  0.00000000000E+00 0.  1.
         -6    2    1    2    0  503  0.11676586331E+03  0.60751756187E+02 -0.10481225219E+04  0.10700220490E+04  0.17047381496E+03 0.  0.
        -24    2    3    3    0    0  0.73702700085E+02  0.64192834149E+02 -0.37194670826E+03  0.39245131610E+03  0.78236013247E+02 0.  0.
          6    2    1    2  501    0 -0.11676586331E+03 -0.60751756187E+02 -0.46485652770E+03  0.51264833528E+03  0.17144002332E+03 0.  0.
         24    2    5    5    0    0 -0.95846648841E+02  0.27202150858E+02 -0.23714341177E+03  0.26759965344E+03  0.73797287706E+02 0.  0.
          5    1    5    5  501    0 -0.20919214472E+02 -0.87953907045E+02 -0.22771311594E+03  0.24504868183E+03  0.47000000000E+01 0. -1.
        -11    1    6    6    0    0 -0.31782074218E+02  0.32548063140E+02 -0.41183911297E+02  0.61364413185E+02  0.00000000000E+00 0.  1.
         12    1    6    6    0    0 -0.64064574623E+02 -0.53459122820E+01 -0.19595950047E+03  0.20623524026E+03  0.00000000000E+00 0. -1.
         -5    1    3    3    0  503  0.43063163228E+02 -0.34410779624E+01 -0.67617581368E+03  0.67757073288E+03  0.47000000000E+01 0.  1.
         13    1    4    4    0    0 -0.91460982336E+01  0.15554611880E+02 -0.17209439481E+02  0.24935153316E+02  0.00000000000E+00 0. -1.
        -14    1    4    4    0    0  0.82848798319E+02  0.48638222270E+02 -0.35473726878E+03  0.36751616279E+03  0.00000000000E+00 0.  1.
</event>
<event>
12    1  0.8451514E-002  0.2323019E+03  0.7818608E-02  0.1125105E+00
         21   -1    0    0  501  502  0.00000000000E+00  0.00000000000E+00  0.31886087198E+03  0.31886087198E+03  0.00000000000E+00 0. -1.
         21   -1    0    0  502  503 -0.00000000000E+00 -0.00000000000E+00 -0.36002429776E+03  0.36002429776E+03  0.00000000000E+00 0. -1.
         -6    2    1    2    0  503 -0.42688945835E+02  0.14804276137E+03 -0.26789339780E+03  0.35458574818E+03  0.17385388961E+03 0.  0.
        -24    2    3    3    0    0  0.23050963203E+02  0.66920401369E+02 -0.20865278708E+03  0.23444369521E+03  0.80113504746E+02 0.  0.
          6    2    1    2  501    0  0.42688945835E+02 -0.14804276137E+03  0.22672997202E+03  0.32429942156E+03  0.17327616488E+03 0.  0.
         24    2    5    5    0    0  0.48619292531E+02 -0.17483058864E+03  0.21828121474E+03  0.29520941981E+03  0.81069985230E+02 0.  0.
          5    1    5    5  501    0 -0.59303466961E+01  0.26787827269E+02  0.84487572808E+01  0.29090001742E+02  0.47000000000E+01 0. -1.
        -13    1    6    6    0    0 -0.90622755826E+01  0.41986275247E+01  0.62888390058E+01  0.11802661050E+02  0.00000000000E+00 0.  1.
         14    1    6    6    0    0  0.57681568114E+02 -0.17902921617E+03  0.21199237574E+03  0.28340675876E+03  0.00000000000E+00 0. -1.
         -5    1    3    3    0  503 -0.65739909038E+02  0.81122360005E+02 -0.59240610722E+02  0.12014205297E+03  0.47000000000E+01 0.  1.
         11    1    4    4    0    0  0.11010165790E+02 -0.32316586724E+01 -0.12094533200E+03  0.12148843855E+03  0.00000000000E+00 0. -1.
        -12    1    4    4    0    0  0.12040797414E+02  0.70152060042E+02 -0.87707455083E+02  0.11295525666E+03  0.00000000000E+00 0.  1.
</event>
<event>
12    1  0.8451514E-002  0.2208214E+03  0.7818608E-02  0.1133474E+00
         21   -1    0    0  501  502  0.00000000000E+00  0.00000000000E+00  0.21898921732E+03  0.21898921732E+03  0.00000000000E+00 0. -1.
         21   -1    0    0  502  503 -0.00000000000E+00 -0.00000000000E+00 -0.30042535828E+03  0.30042535828E+03  0.00000000000E+00 0.  1.
         -6    2    1    2    0  503 -0.73768442783E+02 -0.11569592252E+03  0.92255898209E+02  0.23931828152E+03  0.17301664509E+03 0.  0.
        -24    2    3    3    0    0 -0.30114276172E+02 -0.12995045607E+03  0.10846407508E+03  0.19039310409E+03  0.81799069911E+02 0.  0.
          6    2    1    2  501    0  0.73768442783E+02  0.11569592252E+03 -0.17369203917E+03  0.28009629407E+03  0.17163239743E+03 0.  0.
         24    2    5    5    0    0  0.92013250213E+02  0.10598356677E+03 -0.19274350641E+03  0.25159627203E+03  0.80322289525E+02 0.  0.
          5    1    5    5  501    0 -0.18244807430E+02  0.97123557483E+01  0.19051467247E+02  0.28500022046E+02  0.47000000000E+01 0. -1.
        -13    1    6    6    0    0  0.76417072975E+01  0.59680159845E+01 -0.74832529250E+02  0.75458070073E+02  0.00000000000E+00 0.  1.
         14    1    6    6    0    0  0.84371542916E+02  0.10001555078E+03 -0.11791097716E+03  0.17613820196E+03  0.00000000000E+00 0. -1.
         -5    1    3    3    0  503 -0.43654166611E+02  0.14254533559E+02 -0.16208176870E+02  0.48925177434E+02  0.47000000000E+01 0.  1.
         13    1    4    4    0    0  0.26689174366E+02 -0.52257258471E+02  0.54338118421E+02  0.79973521898E+02  0.00000000000E+00 0. -1.
        -14    1    4    4    0    0 -0.56803450538E+02 -0.77693197604E+02  0.54125956658E+02  0.11041958219E+03  0.00000000000E+00 0.  1.
</event>
<event>
12    1  0.8451514E-002  0.1730130E+03  0.7818608E-02  0.1174938E+00
         21   -1    0    0  503  502  0.00000000000E+00  0.00000000000E+00  0.71155550501E+02  0.71155550501E+02  0.00000000000E+00 0. -1.
         21   -1    0    0  501  503 -0.00000000000E+00 -0.00000000000E+00 -0.43070871101E+03  0.43070871101E+03  0.00000000000E+00 0. -1.
          6    2    1    2  501    0 -0.86139974805E+01 -0.63299813261E+01 -0.13768586950E+03  0.22051287492E+03  0.17191352399E+03 0.  0.
         24    2    3    3    0    0 -0.30831268565E+02 -0.52204695213E+02 -0.36978908391E+02  0.10754350507E+03  0.80760562739E+02 0.  0.
         -6    2    1    2    0  502  0.86139974805E+01  0.63299813261E+01 -0.22186729101E+03  0.28135138659E+03  0.17268247826E+03 0.  0.
        -24    2    5    5    0    0  0.77029386637E+01  0.59841663543E+02 -0.19974697229E+03  0.22325036541E+03  0.79382068231E+02 0.  0.
          5    1    3    3  501    0  0.22217271084E+02  0.45874713886E+02 -0.10070696111E+03  0.11296936985E+03  0.47000000000E+01 0. -1.
        -11    1    4    4    0    0 -0.53074171075E+02 -0.42476290114E+02 -0.60828373751E+01  0.68250302326E+02  0.00000000000E+00 0.  1.
         12    1    4    4    0    0  0.22242902510E+02 -0.97284050986E+01 -0.30896071016E+02  0.39293202746E+02  0.00000000000E+00 0. -1.
         -5    1    5    5    0  502  0.91105881684E+00 -0.53511682217E+02 -0.22120318720E+02  0.58101021180E+02  0.47000000000E+01 0.  1.
         13    1    6    6    0    0 -0.19619089335E+02  0.84598180152E+00 -0.87638967491E+01  0.21504191168E+02  0.00000000000E+00 0. -1.
        -14    1    6    6    0    0  0.27322027999E+02  0.58995681742E+02 -0.19098307554E+03  0.20174617424E+03  0.00000000000E+00 0.  1.
</event>
<event>
12    1  0.8451514E-002  0.1889946E+03  0.7818608E-02  0.1159390E+00
         21   -1    0    0  503  502  0.00000000000E+00  0.00000000000E+00  0.63874269661E+03  0.63874269661E+03  0.00000000000E+00 0. -1.
         21   -1    0    0  501  503 -0.00000000000E+00 -0.00000000000E+00 -0.93707474292E+02  0.93707474292E+02  0.00000000000E+00 0. -1.
          6    2    1    2  501    0 -0.75985927916E+02 -0.12848741561E+02  0.39919866554E+02  0.19316461214E+03  0.17256888548E+03 0.  0.
         24    2    3    3    0    0 -0.16820323949E+02 -0.10170516552E+02 -0.41384278031E+02  0.92466074368E+02  0.80317829504E+02 0.  0.
         -6    2    1    2    0  502  0.75985927916E+02  0.12848741561E+02  0.50511535577E+03  0.53928555877E+03  0.17247736044E+03 0.  0.
        -24    2    5    5    0    0  0.67363583522E+02  0.64110693800E+02  0.24034468538E+03  0.26941942442E+03  0.78569873493E+02 0.  0.
          5    1    3    3  501    0 -0.59165603967E+02 -0.26782250097E+01  0.81304144585E+02  0.10069853777E+03  0.47000000000E+01 0. -1.
        -11    1    4    4    0    0  0.29094818694E+02  0.10145989220E+00 -0.34149110023E+02  0.44862907666E+02  0.00000000000E+00 0.  1.
         12    1    4    4    0    0 -0.45915142643E+02 -0.10271976444E+02 -0.72351680085E+01  0.47603166702E+02  0.00000000000E+00 0. -1.
         -5    1    5    5    0  502  0.86223443940E+01 -0.51261952239E+02  0.26477067039E+03  0.26986613435E+03  0.47000000000E+01 0.  1.
         11    1    6    6    0    0  0.73775781887E+02  0.47411611681E+02  0.12499376582E+03  0.15268977834E+03  0.00000000000E+00 0. -1.
        -12    1    6    6    0    0 -0.64121983643E+01  0.16699082120E+02  0.11535091956E+03  0.11672964608E+03  0.00000000000E+00 0.  1.
</event>
<event>
12    1  0.8451514E-002  0.1756454E+03  0.7818608E-02  0.1172196E+00
         21   -1    0    0  501  502  0.00000000000E+00  0.00000000000E+00  0.13641973186E+02  0.13641973186E+02  0.00000000000E+00 0.  1.
         21   -1    0    0  502  503 -0.00000000000E+00 -0.00000000000E+00 -0.22583053742E+04  0.22583053742E+04  0.00000000000E+00 0.  1.
         -6    2    1    2    0  503  0.16954625108E+02  0.25705773297E+02 -0.11615613998E+04  0.11747664349E+04  0.17292496946E+03 0.  0.
        -24    2    3    3    0    0  0.49922655486E+02 -0.28034579665E+02 -0.91236436344E+03  0.91767468188E+03  0.80248868477E+02 0.  0.
          6    2    1    2  501    0 -0.16954625108E+02 -0.25705773297E+02 -0.10831020012E+04  0.10971809125E+04  0.17247539972E+03 0.  0.
         24    2    5    5    0    0  0.48260844749E+02 -0.31896725325E+02 -0.44829155776E+03  0.45898206059E+03  0.79703832782E+02 0.  0.
          5    1    5    5  501    0 -0.65215469857E+02  0.61909520276E+01 -0.63481044348E+03  0.63819885188E+03  0.47000000000E+01 0. -1.
        -11    1    6    6    0    0  0.84437328255E+01  0.22683982184E+02 -0.57394884510E+02  0.62289906403E+02  0.00000000000E+00 0.  1.
         12    1    6    6    0    0  0.39817111923E+02 -0.54580707508E+02 -0.39089667325E+03  0.39669215418E+03  0.00000000000E+00 0. -1.
         -5    1    3    3    0  503 -0.32968030379E+02  0.53740352962E+02 -0.24919703636E+03  0.25709175307E+03  0.47000000000E+01 0.  1.
         13    1    4    4    0    0  0.19001241898E+02  0.24641332505E+02 -0.17176481262E+03  0.17456057205E+03  0.00000000000E+00 0. -1.
        -14    1    4    4    0    0  0.30921413589E+02 -0.52675912170E+02 -0.74059955083E+03  0.74311410983E+03  0.00000000000E+00 0.  1.
</event>
<event>
12    1  0.8451514E-002  0.2441682E+03  0.7818608E-02  0.1117098E+00
         21   -1    0    0  503  502  0.00000000000E+00  0.00000000000E+00  0.43551202853E+03  0.43551202853E+03  0.00000000000E+00 0.  1.
         21   -1    0    0  501  503 -0.00000000000E+00 -0.00000000000E+00 -0.28201591244E+03  0.28201591244E+03  0.00000000000E+00 0.  1.
          6    2    1    2  501    0  0.10270495619E+03 -0.13972767528E+03 -0.18079361716E+03  0.30356209288E+03  0.17143943818E+03 0.  0.
         24    2    3    3    0    0  0.84524098839E+02 -0.14559955240E+02 -0.72305252507E+02  0.13686081220E+03  0.78399724461E+02 0.  0.
         -6    2    1    2    0  502 -0.10270495619E+03  0.13972767528E+03  0.33428973325E+03  0.41396584808E+03  0.17188940153E+03 0.  0.
        -24    2    5    5    0    0 -0.92258666941E+02  0.78203189524E+02  0.11039245423E+03  0.18148688375E+03  0.78253399570E+02 0.  0.
          5    1    3    3  501    0  0.18180857352E+02 -0.12516772004E+03 -0.10848836465E+03  0.16670128068E+03  0.47000000000E+01 0. -1.
        -11    1    4    4    0    0  0.63627887883E+02 -0.38265376103E+02 -0.21973474282E+02  0.77431135190E+02  0.00000000000E+00 0.  1.
         12    1    4    4    0    0  0.20896210957E+02  0.23705420863E+02 -0.50331778224E+02  0.59429677013E+02  0.00000000000E+00 0. -1.
         -5    1    5    5    0  502 -0.10446289250E+02  0.61524485759E+02  0.22389727901E+03  0.23247896433E+03  0.47000000000E+01 0.  1.
         13    1    6    6    0    0 -0.19136875064E+02 -0.15409749519E+02  0.26008859876E+02  0.35779060349E+02  0.00000000000E+00 0. -1.
        -14    1    6    6    0    0 -0.73121791877E+02  0.93612939043E+02  0.84383594358E+02  0.14570782340E+03  0.00000000000E+00 0.  1.
</event>
<event>
12    1  0.8451514E-002  0.2650419E+03  0.7818608E-02  0.1104215E+00
         21   -1    0    0  501  502  0.00000000000E+00  0.00000000000E+00  0.16341840961E+04  0.16341840961E+04  0.00000000000E+00 0.  1.
         21   -1    0    0  502  503 -0.00000000000E+00 -0.00000000000E+00 -0.90823220822E+02  0.90823220822E+02  0.00000000000E+00 0.  1.
         -6    2    1    2    0  503 -0.68136853537E+02 -0.18962125918E+03  0.14556010855E+03  0.30238217538E+03  0.17218705538E+03 0.  0.
        -24    2    3    3    0    0 -0.10491927156E+03 -0.10061542115E+03  0.69882719555E+02  0.17980916577E+03  0.79474682036E+02 0.  0.
          6    2    1    2  501    0  0.68136853537E+02  0.18962125918E+03  0.13978007667E+04  0.14226251415E+04  0.17151226532E+03 0.  0.
         24    2    5    5    0    0  0.35547913526E+02  0.13415693028E+03  0.12723477762E+04  0.12815617741E+04  0.65345093468E+02 0.  0.
          5    1    5    5  501    0  0.32588940011E+02  0.55464328899E+02  0.12545299051E+03  0.14106336739E+03  0.47000000000E+01 0. -1.
        -13    1    6    6    0    0  0.54676573598E+02  0.10400540914E+03  0.10020331094E+04  0.10088989073E+04  0.00000000000E+00 0.  1.
         14    1    6    6    0    0 -0.19128660072E+02  0.30151521139E+02  0.27031466682E+03  0.27266286686E+03  0.00000000000E+00 0. -1.
         -5    1    3    3    0  503  0.36782418020E+02 -0.89005838036E+02  0.75677388999E+02  0.12257300961E+03  0.47000000000E+01 0.  1.
         13    1    4    4    0    0 -0.65064599463E+02 -0.92946180264E+02  0.78950179187E+02  0.13822273808E+03  0.00000000000E+00 0. -1.
        -14    1    4    4    0    0 -0.39854672093E+02 -0.76692408821E+01 -0.90674596324E+01  0.41586427685E+02  0.00000000000E+00 0.  1.
</event>
<event>
12    1  0.8451514E-002  0.3332768E+03  0.7818608E-02  0.1069865E+00
         21   -1    0    0  503  502  0.00000000000E+00  0.00000000000E+00  0.12432152831E+04  0.12432152831E+04  0.00000000000E+00 0. -1.
         21   -1    0    0  501  503 -0.00000000000E+00 -0.00000000000E+00 -0.91446747911E+02  0.91446747911E+02  0.00000000000E+00 0.  1.
          6    2    1    2  501    0 -0.25851106204E+03  0.12102655585E+03  0.46650959823E+03  0.57332767653E+03  0.17204075975E+03 0.  0.
         24    2    3    3    0    0 -0.14222968493E+03  0.12698528507E+02  0.30537167182E+03  0.34695665034E+03  0.82076326451E+02 0.  0.
         -6    2    1    2    0  502  0.25851106204E+03 -0.12102655585E+03  0.68525893699E+03  0.76133435451E+03  0.16904080048E+03 0.  0.
        -24    2    5    5    0    0  0.21956593742E+03 -0.37733027614E+02  0.53774182294E+03  0.58744380413E+03  0.79315651811E+02 0.  0.
          5    1    3    3  501    0 -0.11628137711E+03  0.10832802734E+03  0.16113792642E+03  0.22637102619E+03  0.47000000000E+01 0. -1.
        -13    1    4    4    0    0 -0.70280476802E+02  0.13274137646E+02  0.67147370129E+02  0.98103605770E+02  0.00000000000E+00 0.  1.
         14    1    4    4    0    0 -0.71949208128E+02 -0.57560913845E+00  0.23822430169E+03  0.24885304457E+03  0.00000000000E+00 0. -1.
         -5    1    5    5    0  502  0.38945124615E+02 -0.83293528231E+02  0.14751711405E+03  0.17389055039E+03  0.47000000000E+01 0.  1.
         11    1    6    6    0    0  0.44478037354E+02 -0.11108562750E+02  0.20966026147E+03  0.21461388868E+03  0.00000000000E+00 0. -1.
        -12    1    6    6    0    0  0.17508790007E+03 -0.26624464864E+02  0.32808156147E+03  0.37282991545E+03  0.00000000000E+00 0.  1.
</event>
<event>
12    1  0.8451514E-002  0.2155252E+03  0.7818608E-02  0.1137509E+00
         21   -1    0    0  503  502  0.00000000000E+00  0.00000000000E+00  0.82643337403E+03  0.82643337403E+03  0.00000000000E+00 0.  1.
         21   -1    0    0  501  503 -0.00000000000E+00 -0.00000000000E+00 -0.73107675627E+02  0.73107675627E+02  0.00000000000E+00 0.  1.
          6    2    1    2  501    0  0.10145041144E+03 -0.78727038735E+02  0.15744090122E+03  0.26587726797E+03  0.17150204558E+03 0.  0.
         24    2    3    3    0    0  0.42640834877E+02 -0.38964780260E+02  0.64845970521E+01  0.98995575556E+02  0.80134755762E+02 0.  0.
         -6    2    1    2    0  502 -0.10145041144E+03  0.78727038735E+02  0.59588479718E+03  0.63366378169E+03  0.17309235713E+03 0.  0.
        -24    2    5    5    0    0  0.88978753458E+01  0.94385318917E+01  0.29051486486E+03  0.30162383357E+03  0.80061177878E+02 0.  0.
          5    1    3    3  501    0  0.58809576567E+02 -0.39762258475E+02  0.15095630417E+03  0.16688169242E+03  0.47000000000E+01 0. -1.
        -13    1    4    4    0    0  0.59989518759E+02 -0.22007588392E+02  0.24857779633E+02  0.68563733242E+02  0.00000000000E+00 0.  1.
         14    1    4    4    0    0 -0.17348683882E+02 -0.16957191868E+02 -0.18373182581E+02  0.30431842314E+02  0.00000000000E+00 0. -1.
         -5    1    5    5    0  502 -0.11034828679E+03  0.69288506843E+02  0.30536993232E+03  0.33203994812E+03  0.47000000000E+01 0.  1.
         11    1    6    6    0    0  0.11657105276E+02 -0.34381919005E+02  0.15401806827E+03  0.15823896426E+03  0.00000000000E+00 0. -1.
        -12    1    6    6    0    0 -0.27592299298E+01  0.43820450896E+02  0.13649679659E+03  0.14338486931E+03  0.00000000000E+00 0.  1.
</event>
<event>
12    1  0.8451514E-002  0.1955373E+03  0.7818608E-02  0.1153691E+00
         21   -1    0    0  503  502  0.00000000000E+00  0.00000000000E+00  0.72741432810E+02  0.72741432810E+02  0.00000000000E+00 0. -1.
         21   -1    0    0  501  503 -0.00000000000E+00 -0.00000000000E+00 -0.91745143135E+03  0.91745143135E+03  0.00000000000E+00 0. -1.
          6    2    1    2  501    0 -0.91938482751E+02  0.64302362689E+01 -0.74620168350E+03  0.77124375836E+03  0.17177296005E+03 0.  0.
         24    2    3    3    0    0 -0.59337526181E+02  0.14409885657E+02 -0.72392534653E+03  0.73068734873E+03  0.78150543357E+02 0.  0.
         -6    2    1    2    0  502  0.91938482751E+02 -0.64302362689E+01 -0.98508315040E+02  0.21894910580E+03  0.17245518330E+03 0.  0.
        -24    2    5    5    0    0  0.42984264724E+02 -0.36676556795E+02 -0.49289442878E+01  0.10899209602E+03  0.93070756265E+02 0.  0.
          5    1    3    3  501    0 -0.32600956570E+02 -0.79796493878E+01 -0.22276336974E+02  0.40556409636E+02  0.47000000000E+01 0. -1.
        -13    1    4    4    0    0  0.16071772507E+02  0.10901381174E+02 -0.78692978671E+02  0.81053851698E+02  0.00000000000E+00 0.  1.
         14    1    4    4    0    0 -0.75409298688E+02  0.35085044828E+01 -0.64523236786E+03  0.64963349703E+03  0.00000000000E+00 0. -1.
         -5    1    5    5    0  502  0.48954218027E+02  0.30246320527E+02 -0.93579370752E+02  0.10995700977E+03  0.47000000000E+01 0.  1.
         11    1    6    6    0    0  0.71210673549E+02 -0.36231607982E+02  0.20047431662E+01  0.79923140826E+02  0.00000000000E+00 0. -1.
        -12    1    6    6    0    0 -0.28226408825E+02 -0.44494881375E+00 -0.69336874540E+01  0.29068955198E+02  0.00000000000E+00 0.  1.
</event>
<event>
12    1  0.8451514E-002  0.1930520E+03  0.7818608E-02  0.1157844E+00
         21   -1    0    0  503  502  0.00000000000E+00  0.00000000000E+00  0.33143978720E+03  0.33143978720E+03  0.00000000000E+00 0. -1.
         21   -1    0    0  501  503 -0.00000000000E+00 -0.00000000000E+00 -0.28353247213E+03  0.28353247213E+03  0.00000000000E+00 0.  1.
          6    2    1    2  501    0  0.49940152098E+02 -0.71116118722E+02 -0.21879901300E+03  0.28572865675E+03  0.16191459498E+03 0.  0.
         24    2    3    3    0    0  0.46696327079E+02 -0.11018240935E+03 -0.18043661050E+03  0.23067903015E+03  0.79591043763E+02 0.  0.
         -6    2    1    2    0  502 -0.49940152098E+02  0.71116118722E+02  0.26670632806E+03  0.32924360257E+03  0.17238782808E+03 0.  0.
        -24    2    5    5    0    0 -0.25098014364E+02  0.10798121858E+03  0.24392137933E+03  0.27906979184E+03  0.78054183319E+02 0.  0.
          5    1    3    3  501    0  0.32438250189E+01  0.39066290628E+02 -0.38362402499E+02  0.55049626608E+02  0.47000000000E+01 0. -1.
        -13    1    4    4    0    0  0.43252771171E+01 -0.66044539864E+02 -0.14639802357E+03  0.16066415460E+03  0.00000000000E+00 0.  1.
         14    1    4    4    0    0  0.42371049962E+02 -0.44137869486E+02 -0.34038586933E+02  0.70014875548E+02  0.00000000000E+00 0. -1.
         -5    1    5    5    0  502 -0.24842137734E+02 -0.36865099854E+02  0.22784948734E+02  0.50173810731E+02  0.47000000000E+01 0.  1.
         13    1    6    6    0    0  0.93004791068E+01  0.68498942405E+02  0.74010558358E+02  0.10127273459E+03  0.00000000000E+00 0. -1.
        -14    1    6    6    0    0 -0.34398493471E+02  0.39482276171E+02  0.16991082097E+03  0.17779705725E+03  0.00000000000E+00 0.  1.
</event>
<event>
12    1  0.8451514E-002  0.1977479E+03  0.7818608E-02  0.1153172E+00
         21   -1    0    0  503  502  0.00000000000E+00  0.00000000000E+00  0.54762579477E+02  0.54762579477E+02  0.00000000000E+00 0. -1.
         21   -1    0    0  501  503 -0.00000000000E+00 -0.00000000000E+00 -0.87746835706E+03  0.87746835706E+03  0.00000000000E+00 0. -1.
          6    2    1    2  501    0 -0.80843431491E+02 -0.70229868731E+01 -0.63304684561E+03  0.66321380834E+03  0.18033098478E+03 0.  0.
         24    2    3    3    0    0 -0.87229444785E+02 -0.67774682695E+02 -0.44766629938E+03  0.46797142915E+03  0.79935969663E+02 0.  0.
         -6    2    1    2    0  502  0.80843431491E+02  0.70229868731E+01 -0.18965893196E+03  0.26901712819E+03  0.17266940096E+03 0.  0.
        -24    2    5    5    0    0  0.50246758020E+02 -0.33696192059E+02 -0.32159072813E+02  0.10341971398E+03  0.77467807671E+02 0.  0.
          5    1    3    3  501    0  0.63860132938E+01  0.60751695822E+02 -0.18538054624E+03  0.19524237920E+03  0.47000000000E+01 0. -1.
        -13    1    4    4    0    0 -0.33290190897E+02 -0.65957492025E+02 -0.17403080781E+03  0.18906440604E+03  0.00000000000E+00 0.  1.
         14    1    4    4    0    0 -0.53939253888E+02 -0.18171906697E+01 -0.27363549157E+03  0.27890702311E+03  0.00000000000E+00 0. -1.
         -5    1    5    5    0  502  0.30596673471E+02  0.40719178932E+02 -0.15749985915E+03  0.16559741421E+03  0.47000000000E+01 0.  1.
         11    1    6    6    0    0  0.42405653836E+02  0.16062517839E+02 -0.27019680209E+02  0.52785481671E+02  0.00000000000E+00 0. -1.
        -12    1    6    6    0    0  0.78411041835E+01 -0.49758709898E+02 -0.51393926046E+01  0.50634232312E+02  0.00000000000E+00 0.  1.
</event>
<event>
12    1  0.8451514E-002  0.1950203E+03  0.7818608E-02  0.1156565E+00
         21   -1    0    0  503  502  0.00000000000E+00  0.00000000000E+00  0.55886049593E+02  0.55886049593E+02  0.00000000000E+00 0. -1.
         21   -1    0    0  501  503 -0.00000000000E+00 -0.00000000000E+00 -0.64736111429E+03  0.64736111429E+03  0.00000000000E+00 0. -1.
          6    2    1    2  501    0 -0.30096867606E+02  0.56088599025E+02 -0.33794896254E+03  0.39018256745E+03  0.18433985538E+03 0.  0.
         24    2    3    3    0    0 -0.68869852991E+02 -0.13793795355E+02 -0.13550221336E+03  0.17248169540E+03  0.80347744087E+02 0.  0.
         -6    2    1    2    0  502  0.30096867606E+02 -0.56088599025E+02 -0.25352610217E+03  0.31306459644E+03  0.17228524221E+03 0.  0.
        -24    2    5    5    0    0 -0.12042185634E+02 -0.94453403910E+02 -0.15318785071E+03  0.19757687949E+03  0.80645185584E+02 0.  0.
          5    1    3    3  501    0  0.38772985385E+02  0.69882394380E+02 -0.20244674918E+03  0.21770087205E+03  0.47000000000E+01 0. -1.
        -13    1    4    4    0    0 -0.77241357148E+02  0.18588836114E+01 -0.68793099617E+02  0.10345130863E+03  0.00000000000E+00 0.  1.
         14    1    4    4    0    0  0.83715041567E+01 -0.15652678966E+02 -0.66709113743E+02  0.69030386766E+02  0.00000000000E+00 0. -1.
         -5    1    5    5    0  502  0.42139053240E+02  0.38364804885E+02 -0.10033825146E+03  0.11548771696E+03  0.47000000000E+01 0.  1.
         11    1    6    6    0    0 -0.11867925335E+02 -0.10929027201E+03 -0.13416899507E+03  0.17345469278E+03  0.00000000000E+00 0. -1.
        -12    1    6    6    0    0 -0.17426029862E+00  0.14836868104E+02 -0.19018855639E+02  0.24122186709E+02  0.00000000000E+00 0.  1.
</event>
<event>
12    1  0.8451514E-002  0.1803605E+03  0.7818608E-02  0.1167697E+00
         21   -1    0    0  501  502  0.00000000000E+00  0.00000000000E+00  0.60322911701E+03  0.60322911701E+03  0.00000000000E+00 0. -1.
         21   -1    0    0  502  503 -0.00000000000E+00 -0.00000000000E+00 -0.91932679170E+02  0.91932679170E+02  0.00000000000E+00 0. -1.
         -6    2    1    2    0  503  0.13294131468E+02 -0.51973350333E+02  0.30872716073E+02  0.18199822823E+03  0.17114983905E+03 0.  0.
        -24    2    3    3    0    0  0.74486569825E+02 -0.35861217063E+02  0.16396029803E+02  0.11691535955E+03  0.81031447796E+02 0.  0.
          6    2    1    2  501    0 -0.13294131468E+02  0.51973350333E+02  0.48042372177E+03  0.51316356794E+03  0.17219736338E+03 0.  0.
         24    2    5    5    0    0  0.17195371865E+02  0.88465439926E+02  0.41523941392E+03  0.43234051179E+03  0.79829395532E+02 0.  0.
          5    1    5    5  501    0 -0.30489503333E+02 -0.36492089593E+02  0.65184307847E+02  0.80823056153E+02  0.47000000000E+01 0. -1.
        -11    1    6    6    0    0  0.92457411698E+00  0.40804385309E+02  0.54428006199E+02  0.68031320408E+02  0.00000000000E+00 0.  1.
         12    1    6    6    0    0  0.16270797748E+02  0.47661054617E+02  0.36081140772E+03  0.36430919138E+03  0.00000000000E+00 0. -1.
         -5    1    3    3    0  503 -0.61192438357E+02 -0.16112133271E+02  0.14476686270E+02  0.65082868683E+02  0.47000000000E+01 0.  1.
         11    1    4    4    0    0  0.59488582515E+02 -0.61764610708E+02  0.13978386760E+02  0.86885866987E+02  0.00000000000E+00 0. -1.
        -12    1    4    4    0    0  0.14997987310E+02  0.25903393646E+02  0.24176430426E+01  0.30029492563E+02  0.00000000000E+00 0.  1.
</event>
<event>
12    1  0.8451514E-002  0.1907988E+03  0.7818608E-02  0.1157755E+00
         21   -1    0    0  503  502  0.00000000000E+00  0.00000000000E+00  0.50044025343E+03  0.50044025343E+03  0.00000000000E+00 0. -1.
         21   -1    0    0  501  503 -0.00000000000E+00 -0.00000000000E+00 -0.23477923646E+03  0.23477923646E+03  0.00000000000E+00 0.  1.
          6    2    1    2  501    0 -0.41279519615E+02 -0.71274852810E+02 -0.17259006066E+03  0.25723601258E+03  0.17204340658E+03 0.  0.
         24    2    3    3    0    0 -0.91514961423E+02 -0.39555442343E+02 -0.13769146863E+03  0.18817283614E+03  0.80687387773E+02 0.  0.
         -6    2    1    2    0  502  0.41279519615E+02  0.71274852810E+02  0.43825107763E+03  0.47798347732E+03  0.17210489291E+03 0.  0.
        -24    2    5    5    0    0  0.20187517123E+02  0.87213958564E+02  0.43540873074E+03  0.45098168854E+03  0.76091459277E+02 0.  0.
          5    1    3    3  501    0  0.50235441809E+02 -0.31719410466E+02 -0.34898592032E+02  0.69063176439E+02  0.47000000000E+01 0. -1.
        -11    1    4    4    0    0 -0.44898096590E+02 -0.53131825278E+02 -0.11540560537E+03  0.13474896543E+03  0.00000000000E+00 0.  1.
         12    1    4    4    0    0 -0.46616864834E+02  0.13576382935E+02 -0.22285863263E+02  0.53423870712E+02  0.00000000000E+00 0. -1.
         -5    1    5    5    0  502  0.21092002492E+02 -0.15939105754E+02  0.28423468869E+01  0.27001788778E+02  0.47000000000E+01 0.  1.
         13    1    6    6    0    0  0.22970883055E+01  0.45531331196E+02  0.36078183541E+03  0.36365080984E+03  0.00000000000E+00 0. -1.
        -14    1    6    6    0    0  0.17890428817E+02  0.41682627368E+02  0.74626895336E+02  0.87330878703E+02  0.00000000000E+00 0.  1.
</event>
<event>
12    1  0.8451514E-002  0.1794237E+03  0.7818608E-02  0.1169170E+00
         21   -1    0    0  501  502  0.00000000000E+00  0.00000000000E+00  0.60366861857E+03  0.60366861857E+03  0.00000000000E+00 0. -1.
         21   -1    0    0  502  503 -0.00000000000E+00 -0.00000000000E+00 -0.86899538767E+02  0.86899538767E+02  0.00000000000E+00 0. -1.
         -6    2    1    2    0  503  0.12469684246E+02  0.50805354326E+02  0.39248393651E+02  0.18045164202E+03  0.16818347615E+03 0.  0.
        -24    2    3    3    0    0  0.10425249622E+01  0.33298703813E+02 -0.42312964392E+02  0.96122477983E+02  0.79619427805E+02 0.  0.
          6    2    1    2  501    0 -0.12469684246E+02 -0.50805354326E+02  0.47752068616E+03  0.51011651532E+03  0.17162801765E+03 0.  0.
         24    2    5    5    0    0  0.56530958140E+02 -0.93516577101E+01  0.25978646209E+03  0.27793171836E+03  0.80460123365E+02 0.  0.
          5    1    5    5  501    0 -0.69000642386E+02 -0.41453696616E+02  0.21773422406E+03  0.23218479696E+03  0.47000000000E+01 0. -1.
        -13    1    6    6    0    0  0.97144750370E+01  0.25929829737E+02  0.15852813378E+03  0.16092823337E+03  0.00000000000E+00 0.  1.
         14    1    6    6    0    0  0.46816483103E+02 -0.35281487447E+02  0.10125832831E+03  0.11700348499E+03  0.00000000000E+00 0. -1.
         -5    1    3    3    0  503  0.11427159284E+02  0.17506650513E+02  0.81561358043E+02  0.84329164038E+02  0.47000000000E+01 0.  1.
         13    1    4    4    0    0  0.11806252749E+02  0.54684440777E+02 -0.45313182073E+02  0.71993472875E+02  0.00000000000E+00 0. -1.
        -14    1    4    4    0    0 -0.10763727787E+02 -0.21385736964E+02  0.30002176815E+01  0.24129005108E+02  0.00000000000E+00 0.  1.
</event>
<event>
12    1  0.8451514E-002  0.2230832E+03  0.7818608E-02  0.1131824E+00
         21   -1    0    0  503  502  0.00000000000E+00  0.00000000000E+00  0.10190283353E+04  0.10190283353E+04  0.00000000000E+00 0.  1.
         21   -1    0    0  501  503 -0.00000000000E+00 -0.00000000000E+00 -0.52493433298E+02  0.52493433298E+02  0.00000000000E+00 0.  1.
          6    2    1    2  501    0  0.13301469900E+03  0.45305322915E+02  0.62842577867E+03  0.66644904258E+03  0.17172619084E+03 0.  0.
         24    2    3    3    0    0  0.48547390299E+02  0.75994186113E+02  0.25480081026E+03  0.28213895998E+03  0.80913375929E+02 0.  0.
         -6    2    1    2    0  502 -0.13301469900E+03 -0.45305322915E+02  0.33810912330E+03  0.40507272599E+03  0.17326468666E+03 0.  0.
        -24    2    5    5    0    0 -0.44382615392E+02  0.33159567190E+02  0.20036656550E+03  0.22339309738E+03  0.81782283766E+02 0.  0.
          5    1    3    3  501    0  0.84467308703E+02 -0.30688863198E+02  0.37362496841E+03  0.38431008260E+03  0.47000000000E+01 0. -1.
        -13    1    4    4    0    0  0.71339934610E+02  0.56972106842E+02  0.18562418101E+03  0.20686117036E+03  0.00000000000E+00 0.  1.
         14    1    4    4    0    0 -0.22792544311E+02  0.19022079271E+02  0.69176629246E+02  0.75277789618E+02  0.00000000000E+00 0. -1.
         -5    1    5    5    0  502 -0.88632083610E+02 -0.78464890105E+02  0.13774255780E+03  0.18167962861E+03  0.47000000000E+01 0.  1.
         11    1    6    6    0    0  0.59647120149E+01 -0.22445422232E+02  0.37973656688E+02  0.44512620355E+02  0.00000000000E+00 0. -1.
        -12    1    6    6    0    0 -0.50347327406E+02  0.55604989422E+02  0.16239290882E+03  0.17888047702E+03  0.00000000000E+00 0.  1.
</event>
<event>
12    1  0.8451514E-002  0.2285864E+03  0.7818608E-02  0.1127708E+00
         21   -1    0    0  503  502  0.00000000000E+00  0.00000000000E+00  0.15675498577E+03  0.15675498577E+03  0.00000000000E+00 0.  1.
         21   -1    0    0  501  503 -0.00000000000E+00 -0.00000000000E+00 -0.35399677300E+03  0.35399677300E+03  0.00000000000E+00 0. -1.
          6    2    1    2  501    0  0.79664083372E+02  0.12749516257E+03 -0.16123725095E+03  0.27973058770E+03  0.17219282198E+03 0.  0.
         24    2    3    3    0    0  0.35936186114E+00  0.11777556128E+03 -0.72782584150E+02  0.16044090842E+03  0.81072612910E+02 0.  0.
         -6    2    1    2    0  502 -0.79664083372E+02 -0.12749516257E+03 -0.36004536280E+02  0.23102117107E+03  0.17167723260E+03 0.  0.
        -24    2    5    5    0    0  0.69721586584E+01 -0.57061825385E+02 -0.61957957853E+02  0.11629382685E+03  0.79879926827E+02 0.  0.
          5    1    3    3  501    0  0.79304721511E+02  0.97196012921E+01 -0.88454666804E+02  0.11928967928E+03  0.47000000000E+01 0. -1.
        -13    1    4    4    0    0  0.20810398409E+02  0.12055029081E+03 -0.62962197162E+02  0.13758518659E+03  0.00000000000E+00 0.  1.
         14    1    4    4    0    0 -0.20451036548E+02 -0.27747295351E+01 -0.98203869876E+01  0.22855721832E+02  0.00000000000E+00 0. -1.
         -5    1    5    5    0  502 -0.86636242031E+02 -0.70433337187E+02  0.25953421573E+02  0.11472734422E+03  0.47000000000E+01 0.  1.
         11    1    6    6    0    0 -0.22869545098E+02 -0.12056436946E+02 -0.56357134385E+02  0.62004035038E+02  0.00000000000E+00 0. -1.
        -12    1    6    6    0    0  0.29841703757E+02 -0.45005388439E+02 -0.56008234674E+01  0.54289791814E+02  0.00000000000E+00 0.  1.
</event>
<event>
12    1  0.8451514E-002  0.2514341E+03  0.7818608E-02  0.1113096E+00
         21   -1    0    0  503  502  0.00000000000E+00  0.00000000000E+00  0.77212638480E+03  0.77212638480E+03  0.00000000000E+00 0.  1.
         21   -1    0    0  501  503 -0.00000000000E+00 -0.00000000000E+00 -0.80485000277E+02  0.80485000277E+02  0.00000000000E+00 0. -1.
          6    2    1    2  501    0  0.55572914960E+02  0.17436798892E+03  0.33452066010E+03  0.41585708304E+03  0.16595329779E+03 0.  0.
         24    2    3    3    0    0  0.66235434746E+02  0.38132786494E+02  0.13396510505E+03  0.17312607890E+03  0.78643166291E+02 0.  0.
         -6    2    1    2    0  502 -0.55572914960E+02 -0.17436798892E+03  0.35712072442E+03  0.43675430203E+03  0.17241393243E+03 0.  0.
        -24    2    5    5    0    0  0.92262664947E+01 -0.73562374360E+02  0.80628606423E+02  0.13537300341E+03  0.79550807438E+02 0.  0.
          5    1    3    3  501    0 -0.10662519786E+02  0.13623520242E+03  0.20055555505E+03  0.24273100414E+03  0.47000000000E+01 0. -1.
        -13    1    4    4    0    0 -0.48199321100E+01  0.32065782065E+02  0.70752818475E+02  0.77829348238E+02  0.00000000000E+00 0.  1.
         14    1    4    4    0    0  0.71055366856E+02  0.60670044290E+01  0.63212286571E+02  0.95296730664E+02  0.00000000000E+00 0. -1.
         -5    1    5    5    0  502 -0.64799181455E+02 -0.10080561456E+03  0.27649211800E+03  0.30138129862E+03  0.47000000000E+01 0.  1.
         13    1    6    6    0    0  0.37126403636E+01 -0.86649051206E+02  0.46499863374E+02  0.98407718534E+02  0.00000000000E+00 0. -1.
        -14    1    6    6    0    0  0.55136261311E+01  0.13086676845E+02  0.34128743049E+02  0.36965284877E+02  0.00000000000E+00 0.  1.
</event>
<event>
12    1  0.8451514E-002  0.2432298E+03  0.7818608E-02  0.1117778E+00
         21   -1    0    0  501  502  0.00000000000E+00  0.00000000000E+00  0.13667560796E+04  0.13667560796E+04  0.00000000000E+00 0. -1.
         21   -1    0    0  502  503 -0.00000000000E+00 -0.00000000000E+00 -0.80348656342E+02  0.80348656342E+02  0.00000000000E+00 0.  1.
         -6    2    1    2    0  503  0.94742021877E+02  0.14257532379E+03  0.15041873810E+03  0.28536852699E+03  0.17177201682E+03 0.  0.
        -24    2    3    3    0    0 -0.14509411381E+02  0.63310935637E+02  0.38034682021E+02  0.10966711846E+03  0.79758649974E+02 0.  0.
          6    2    1    2  501    0 -0.94742021877E+02 -0.14257532379E+03  0.11359886852E+04  0.11617362090E+04  0.17279164541E+03 0.  0.
         24    2    5    5    0    0 -0.19137123829E+02 -0.36891198042E+02  0.74335641543E+03  0.74813322991E+03  0.73466858723E+02 0.  0.
          5    1    5    5  501    0 -0.75604898048E+02 -0.10568412575E+03  0.39263226977E+03  0.41360297909E+03  0.47000000000E+01 0. -1.
        -11    1    6    6    0    0  0.68366319164E+01 -0.42241584388E+02  0.22103176151E+03  0.22513580476E+03  0.00000000000E+00 0.  1.
         12    1    6    6    0    0 -0.25973755746E+02  0.53503863467E+01  0.52232465392E+03  0.52299742515E+03  0.00000000000E+00 0. -1.
         -5    1    3    3    0  503  0.10925143326E+03  0.79264388150E+02  0.11238405608E+03  0.17570140853E+03  0.47000000000E+01 0.  1.
         11    1    4    4    0    0 -0.37752371041E+02  0.41888993832E+01  0.57811409831E+01  0.38421478217E+02  0.00000000000E+00 0. -1.
        -12    1    4    4    0    0  0.23242959661E+02  0.59122036254E+02  0.32253541038E+02  0.71245640246E+02  0.00000000000E+00 0.  1.
</event>
<event>
12    1  0.8451514E-002  0.2024971E+03  0.7818608E-02  0.1147973E+00
         21   -1    0    0  503  502  0.00000000000E+00  0.00000000000E+00  0.69738378857E+03  0.69738378857E+03  0.00000000000E+00 0.  1.
         21   -1    0    0  501  503 -0.00000000000E+00 -0.00000000000E+00 -0.13325053037E+03  0.13325053037E+03  0.00000000000E+00 0.  1.
          6    2    1    2  501    0 -0.10093041379E+03  0.27175718170E+02 -0.29788754788E+02  0.20314053354E+03  0.17161945801E+03 0.  0.
         24    2    3    3    0    0 -0.49593814697E+00  0.19791647663E+02  0.23722049818E+02  0.89004191361E+02  0.83468887379E+02 0.  0.
         -6    2    1    2    0  502  0.10093041379E+03 -0.27175718170E+02  0.59392201299E+03  0.62749378540E+03  0.17343478636E+03 0.  0.
        -24    2    5    5    0    0 -0.14065767969E+02 -0.39096235151E+02  0.13942518662E+03  0.15849946163E+03  0.62899405747E+02 0.  0.
          5    1    3    3  501    0 -0.10043447565E+03  0.73840705065E+01 -0.53510804606E+02  0.11413634218E+03  0.47000000000E+01 0. -1.
        -11    1    4    4    0    0 -0.82271909652E+01  0.43459683104E+02 -0.11657056921E+02  0.45741859415E+02  0.00000000000E+00 0.  1.
         12    1    4    4    0    0  0.77312528182E+01 -0.23668035440E+02  0.35379106739E+02  0.43262331946E+02  0.00000000000E+00 0. -1.
         -5    1    5    5    0  502  0.11499618176E+03  0.11920516981E+02  0.45449682637E+03  0.46899432377E+03  0.47000000000E+01 0.  1.
         11    1    6    6    0    0  0.48983894493E+01 -0.50981888992E+02  0.11159164116E+03  0.12278371879E+03  0.00000000000E+00 0. -1.
        -12    1    6    6    0    0 -0.18964157418E+02  0.11885653841E+02  0.27833545463E+02  0.35715742843E+02  0.00000000000E+00 0.  1.
</event>
<event>
12    1  0.8451514E-002  0.3002458E+03  0.7818608E-02  0.1085199E+00
         21   -1    0    0  501  502  0.00000000000E+00  0.00000000000E+00  0.22626334749E+03  0.22626334749E+03  0.00000000000E+00 0. -1.
         21   -1    0    0  502  503 -0.00000000000E+00 -0.00000000000E+00 -0.42415652425E+03  0.42415652425E+03  0.00000000000E+00 0. -1.
         -6    2    1    2    0  503  0.15619990056E+03 -0.18988742231E+03 -0.18028780886E+03  0.34965831754E+03  0.17117710978E+03 0.  0.
        -24    2    3    3    0    0  0.15101850799E+03 -0.14696452751E+03 -0.20066138055E+03  0.30163338495E+03  0.79451539770E+02 0.  0.
          6    2    1    2  501    0 -0.15619990056E+03  0.18988742231E+03 -0.17605367897E+02  0.30076155420E+03  0.17231343946E+03 0.  0.
         24    2    5    5    0    0 -0.10594791937E+03  0.52895383185E+02  0.32340193934E+02  0.14646077797E+03  0.79887346680E+02 0.  0.
          5    1    5    5  501    0 -0.50251981192E+02  0.13699203913E+03 -0.49945561831E+02  0.15430077623E+03  0.47000000000E+01 0. -1.
        -13    1    6    6    0    0 -0.48262198072E+02  0.10741407051E+02 -0.24483125051E+02  0.55172828461E+02  0.00000000000E+00 0.  1.
         14    1    6    6    0    0 -0.57685721296E+02  0.42153976134E+02  0.56823318984E+02  0.91287949510E+02  0.00000000000E+00 0. -1.
         -5    1    3    3    0  503  0.51813925670E+01 -0.42922894799E+02  0.20373571685E+02  0.48024932588E+02  0.47000000000E+01 0.  1.
         11    1    4    4    0    0  0.10430839887E+03 -0.12307651514E+03 -0.10488495394E+03  0.19242901085E+03  0.00000000000E+00 0. -1.
        -12    1    4    4    0    0  0.46710109125E+02 -0.23888012369E+02 -0.95776426606E+02  0.10920437410E+03  0.00000000000E+00 0.  1.
</event>
<event>
12    1  0.8451514E-002  0.1892698E+03  0.7818608E-02  0.1159456E+00
         21   -1    0    0  501  502  0.00000000000E+00  0.00000000000E+00  0.68431181201E+03  0.68431181201E+03  0.00000000000E+00 0.  1.
         21   -1    0    0  502  503 -0.00000000000E+00 -0.00000000000E+00 -0.60575490679E+02  0.60575490679E+02  0.00000000000E+00 0.  1.
         -6    2    1    2    0  503  0.40841154644E+02  0.64826073767E+02  0.17231462412E+03  0.25595973967E+03  0.17306830702E+03 0.  0.
        -24    2    3    3    0    0  0.59291187885E+02 -0.19848299618E+01  0.41502866391E+02  0.10784523484E+03  0.79929482967E+02 0.  0.
          6    2    1    2  501    0 -0.40841154644E+02 -0.64826073767E+02  0.45142169722E+03  0.48892756302E+03  0.17145901379E+03 0.  0.
         24    2    5    5    0    0 -0.59877779134E+02 -0.10022798804E+03  0.38453120383E+03  0.41074753545E+03  0.84960538697E+02 0.  0.
          5    1    5    5  501    0  0.19036624489E+02  0.35401914268E+02  0.66890493382E+02  0.78180027569E+02  0.47000000000E+01 0. -1.
        -13    1    6    6    0    0 -0.41296814948E+02 -0.76203577072E+02  0.36378224468E+03  0.37396515029E+03  0.00000000000E+00 0.  1.
         14    1    6    6    0    0 -0.18580964186E+02 -0.24024410963E+02  0.20748959150E+02  0.36782385160E+02  0.00000000000E+00 0. -1.
         -5    1    3    3    0  503 -0.18450033241E+02  0.66810903729E+02  0.13081175773E+03  0.14811450484E+03  0.47000000000E+01 0.  1.
         13    1    4    4    0    0  0.62374178332E+02  0.12609312721E+02  0.57647429683E+02  0.85864771815E+02  0.00000000000E+00 0. -1.
        -14    1    4    4    0    0 -0.30829904469E+01 -0.14594142682E+02 -0.16144563292E+02  0.21980463021E+02  0.00000000000E+00 0.  1.
</event>
<event>
12    1  0.8451514E-002  0.1939722E+03  0.7818608E-02  0.1155105E+00
         21   -1    0    0  501  502  0.00000000000E+00  0.00000000000E+00  0.51597611210E+03  0.51597611210E+03  0.00000000000E+00 0.  1.
         21   -1    0    0  502  503 -0.00000000000E+00 -0.00000000000E+00 -0.77928338076E+02  0.77928338076E+02  0.00000000000E+00 0.  1.
         -6    2    1    2    0  503 -0.47476621672E+02 -0.72414823642E+02  0.14106030328E+03  0.23918374157E+03  0.17266417342E+03 0.  0.
        -24    2    3    3    0    0  0.28980736804E+01 -0.99077012233E+02  0.61962699009E+02  0.14157737275E+03  0.79875673536E+02 0.  0.
          6    2    1    2  501    0  0.47476621672E+02  0.72414823642E+02  0.29698747075E+03  0.35472070861E+03  0.17357213788E+03 0.  0.
         24    2    5    5    0    0  0.58224341825E+02  0.10821347861E+03  0.17990820931E+03  0.23173005594E+03  0.78940636653E+02 0.  0.
          5    1    5    5  501    0 -0.10747720153E+02 -0.35798654965E+02  0.11707926144E+03  0.12299065267E+03  0.47000000000E+01 0. -1.
        -13    1    6    6    0    0  0.61140824705E+01  0.18563096593E+02 -0.46012793162E+01  0.20078404591E+02  0.00000000000E+00 0.  1.
         14    1    6    6    0    0  0.52110259354E+02  0.89650382014E+02  0.18450948863E+03  0.21165165135E+03  0.00000000000E+00 0. -1.
         -5    1    3    3    0  503 -0.50374695352E+02  0.26662188591E+02  0.79097604273E+02  0.97606368819E+02  0.47000000000E+01 0.  1.
         11    1    4    4    0    0  0.37115716366E+02 -0.70230845008E+02  0.24255859362E+02  0.83055973327E+02  0.00000000000E+00 0. -1.
        -12    1    4    4    0    0 -0.34217642685E+02 -0.28846167225E+02  0.37706839648E+02  0.58521399426E+02  0.00000000000E+00 0.  1.
</event>
<event>
12    1  0.8451514E-002  0.1823482E+03  0.7818608E-02  0.1165956E+00
         21   -1    0    0  503  502  0.00000000000E+00  0.00000000000E+00  0.18608444320E+04  0.18608444320E+04  0.00000000000E+00 0.  1.
         21   -1    0    0  501  503 -0.00000000000E+00 -0.00000000000E+00 -0.11872136576E+03  0.11872136576E+03  0.00000000000E+00 0.  1.
          6    2    1    2  501    0  0.13684032407E+02 -0.56746879775E+02 -0.41341290006E+02  0.18697581347E+03  0.17275239928E+03 0.  0.
         24    2    3    3    0    0  0.13776241584E+02 -0.10346735283E+03 -0.13332932683E+02  0.13230068946E+03  0.80189945775E+02 0.  0.
         -6    2    1    2    0  502 -0.13684032407E+02  0.56746879775E+02  0.17834643562E+04  0.17925899843E+04  0.17095695564E+03 0.  0.
        -24    2    5    5    0    0 -0.57411559729E+02  0.70915720450E+02  0.92535096346E+03  0.93323351717E+03  0.79531537223E+02 0.  0.
          5    1    3    3  501    0 -0.92209177106E-01  0.46720473058E+02 -0.28008357323E+02  0.54675124007E+02  0.47000000000E+01 0. -1.
        -11    1    4    4    0    0  0.15589094615E+02 -0.77245951298E+02 -0.45315424269E+02  0.90903490249E+02  0.00000000000E+00 0.  1.
         12    1    4    4    0    0 -0.18128530312E+01 -0.26221401536E+02  0.31982491585E+02  0.41397199212E+02  0.00000000000E+00 0. -1.
         -5    1    5    5    0  502  0.43727527322E+02 -0.14168840675E+02  0.85811339279E+03  0.85935646711E+03  0.47000000000E+01 0.  1.
         11    1    6    6    0    0 -0.11850524891E+02  0.24017350794E+02  0.63644439288E+02  0.69049856855E+02  0.00000000000E+00 0. -1.
        -12    1    6    6    0    0 -0.45561034838E+02  0.46898369656E+02  0.86170652417E+03  0.86418366032E+03  0.00000000000E+00 0.  1.
</event>
<event>
12    1  0.8451514E-002  0.2627333E+03  0.7818608E-02  0.1106010E+00
         21   -1    0    0  503  502  0.00000000000E+00  0.00000000000E+00  0.15573761278E+03  0.15573761278E+03  0.00000000000E+00 0. -1.
         21   -1    0    0  501  503 -0.00000000000E+00 -0.00000000000E+00 -0.86294965639E+03  0.86294965639E+03  0.00000000000E+00 0.  1.
          6    2    1    2  501    0 -0.17198537807E+03  0.98309294597E+02 -0.71003996869E+03  0.75593873506E+03  0.16746022320E+03 0.  0.
         24    2    3    3    0    0 -0.41134715137E+02  0.64906252298E+02 -0.17574986711E+03  0.20482562338E+03  0.71837551640E+02 0.  0.
         -6    2    1    2    0  502  0.17198537807E+03 -0.98309294597E+02  0.28279250854E+01  0.26274853411E+03  0.17258362420E+03 0.  0.
        -24    2    5    5    0    0  0.15699589754E+03 -0.13728055246E+02  0.19102922275E+01  0.17671596686E+03  0.79929421258E+02 0.  0.
          5    1    3    3  501    0 -0.13085066293E+03  0.33403042299E+02 -0.53429010158E+03  0.55111311168E+03  0.47000000000E+01 0. -1.
        -13    1    4    4    0    0 -0.28300834875E+02  0.15305385748E+01 -0.10595821886E+03  0.10968328927E+03  0.00000000000E+00 0.  1.
         14    1    4    4    0    0 -0.12833880262E+02  0.63375713723E+02 -0.69791648258E+02  0.95142334106E+02  0.00000000000E+00 0. -1.
         -5    1    5    5    0  502  0.14989480528E+02 -0.84581239351E+02  0.91763285791E+00  0.86032567245E+02  0.47000000000E+01 0.  1.
         13    1    6    6    0    0  0.32906588528E+02 -0.33043501172E+02 -0.17163631954E+02  0.49692120101E+02  0.00000000000E+00 0. -1.
        -14    1    6    6    0    0  0.12408930901E+03  0.19315445927E+02  0.19073924182E+02  0.12702384676E+03  0.00000000000E+00 0.  1.
</event>
<event>
12    1  0.8451514E-002  0.2107884E+03  0.7818608E-02  0.1140957E+00
         21   -1    0    0  503  502  0.00000000000E+00  0.00000000000E+00  0.69116127933E+03  0.69116127933E+03  0.00000000000E+00 0. -1.
         21   -1    0    0  501  503 -0.00000000000E+00 -0.00000000000E+00 -0.67124614908E+02  0.67124614908E+02  0.00000000000E+00 0.  1.
          6    2    1    2  501    0 -0.10967031989E+03 -0.51759082653E+02  0.23380768783E+03  0.31479797919E+03  0.17240983473E+03 0.  0.
         24    2    3    3    0    0 -0.11912838764E+02 -0.36023699227E+02  0.39420717409E+02  0.96595065193E+02  0.79605219836E+02 0.  0.
         -6    2    1    2    0  502  0.10967031989E+03  0.51759082653E+02  0.39022897659E+03  0.44348791505E+03  0.17232612954E+03 0.  0.
        -24    2    5    5    0    0  0.22156871797E+02  0.83200996618E+02  0.22644532270E+03  0.25508841178E+03  0.79870400305E+02 0.  0.
          5    1    3    3  501    0 -0.97757481122E+02 -0.15735383426E+02  0.19438697042E+03  0.21820291399E+03  0.47000000000E+01 0. -1.
        -13    1    4    4    0    0  0.29708944620E+02  0.52678863751E+00  0.20682661541E+01  0.29785510262E+02  0.00000000000E+00 0.  1.
         14    1    4    4    0    0 -0.41621783384E+02 -0.36550487865E+02  0.37352451255E+02  0.66809554930E+02  0.00000000000E+00 0. -1.
         -5    1    5    5    0  502  0.87513448090E+02 -0.31441913965E+02  0.16378365389E+03  0.18839950327E+03  0.47000000000E+01 0.  1.
         13    1    6    6    0    0  0.17876660354E+02  0.58487817887E+02  0.22115461999E+03  0.22945536771E+03  0.00000000000E+00 0. -1.
        -14    1    6    6    0    0  0.42802114423E+01  0.24713178731E+02  0.52907027042E+01  0.25633044066E+02  0.00000000000E+00 0.  1.
</event>
<event>
12    1  0.8451514E-002  0.1801861E+03  0.7818608E-02  0.1168154E+00
         21   -1    0    0  501  502  0.00000000000E+00  0.00000000000E+00  0.36726182474E+03  0.36726182474E+03  0.00000000000E+00 0.  1.
         21   -1    0    0  502  503 -0.00000000000E+00 -0.00000000000E+00 -0.94210348340E+02  0.94210348340E+02  0.00000000000E+00 0.  1.
         -6    2    1    2    0  503  0.50282735997E+02 -0.22595255694E+02  0.74964901248E+02  0.19515829495E+03  0.17154627524E+03 0.  0.
        -24    2    3    3    0    0  0.87299150866E+02  0.18692922231E+02  0.25288264723E+02  0.12056079618E+03  0.76972996298E+02 0.  0.
          6    2    1    2  501    0 -0.50282735997E+02  0.22595255694E+02  0.19808657515E+03  0.26631387814E+03  0.16925097138E+03 0.  0.
         24    2    5    5    0    0 -0.22440455708E+02 -0.21057161933E+02  0.30331050244E+02  0.90687193732E+02  0.79732153973E+02 0.  0.
          5    1    5    5  501    0 -0.27842280289E+02  0.43652417626E+02  0.16775552491E+03  0.17562668440E+03  0.47000000000E+01 0. -1.
        -13    1    6    6    0    0  0.20363940564E+02  0.16193482590E+02 -0.67214715913E+00  0.26026346949E+02  0.00000000000E+00 0.  1.
         14    1    6    6    0    0 -0.42804396272E+02 -0.37250644523E+02  0.31003197403E+02  0.64660846783E+02  0.00000000000E+00 0. -1.
         -5    1    3    3    0  503 -0.37016414868E+02 -0.41288177924E+02  0.49676636524E+02  0.74597498767E+02  0.47000000000E+01 0.  1.
         11    1    4    4    0    0  0.47030375751E+02 -0.17626787215E+00 -0.25137436191E+02  0.53327085162E+02  0.00000000000E+00 0. -1.
        -12    1    4    4    0    0  0.40268775115E+02  0.18869190103E+02  0.50425700914E+02  0.67233711017E+02  0.00000000000E+00 0.  1.
</event>
<event>
12    1  0.8451514E-002  0.1820789E+03  0.7818608E-02  0.1167780E+00
         21   -1    0    0  503  502  0.00000000000E+00  0.00000000000E+00  0.23482780211E+03  0.23482780211E+03  0.00000000000E+00 0.  1.
         21   -1    0    0  501  503 -0.00000000000E+00 -0.00000000000E+00 -0.36185715114E+03  0.36185715114E+03  0.00000000000E+00 0.  1.
          6    2    1    2  501    0 -0.52253038185E+02  0.26765219297E+02 -0.29918667658E+03  0.34610388551E+03  0.16379400220E+03 0.  0.
         24    2    3    3    0    0 -0.64136214547E+02  0.83048071774E+01 -0.30605879329E+03  0.32262383687E+03  0.78941315745E+02 0.  0.
         -6    2    1    2    0  502  0.52253038185E+02 -0.26765219297E+02  0.17215732755E+03  0.25058106773E+03  0.17235419667E+03 0.  0.
        -24    2    5    5    0    0  0.73603191541E+02 -0.17708756817E+02  0.41728002798E+02  0.11802260019E+03  0.80355946042E+02 0.  0.
          5    1    3    3  501    0  0.11883176361E+02  0.18460412120E+02  0.68721167048E+01  0.23480048638E+02  0.47000000000E+01 0. -1.
        -13    1    4    4    0    0 -0.27079429054E+00 -0.26514442764E+02 -0.11902940426E+03  0.12194707083E+03  0.00000000000E+00 0.  1.
         14    1    4    4    0    0 -0.63865420256E+02  0.34819249942E+02 -0.18702938903E+03  0.20067676605E+03  0.00000000000E+00 0. -1.
         -5    1    5    5    0  502 -0.21350153356E+02 -0.90564624802E+01  0.13042932476E+03  0.13255846754E+03  0.47000000000E+01 0.  1.
         11    1    6    6    0    0  0.18680647196E+02 -0.42553234742E+02  0.34179810377E+01  0.46598572522E+02  0.00000000000E+00 0. -1.
        -12    1    6    6    0    0  0.54922544345E+02  0.24844477925E+02  0.38310021760E+02  0.71424027665E+02  0.00000000000E+00 0.  1.
</event>
<event>
12    1  0.8451514E-002  0.2006829E+03  0.7818608E-02  0.1149216E+00
         21   -1    0    0  503  502  0.00000000000E+00  0.00000000000E+00  0.44321930017E+03  0.44321930017E+03  0.00000000000E+00 0. -1.
         21   -1    0    0  501  503 -0.00000000000E+00 -0.00000000000E+00 -0.10057197768E+03  0.10057197768E+03  0.00000000000E+00 0.  1.
          6    2    1    2  501    0 -0.95609609398E+01  0.10321363849E+03  0.25617702352E+03  0.32527183421E+03  0.17155358232E+03 0.  0.
         24    2    3    3    0    0 -0.18756186298E+02  0.13571521857E+03  0.16545427136E+03  0.22835118297E+03  0.77451480140E+02 0.  0.
         -6    2    1    2    0  502  0.95609609398E+01 -0.10321363849E+03  0.86470298967E+02  0.21851944364E+03  0.17184052928E+03 0.  0.
        -24    2    5    5    0    0  0.59472162168E+02 -0.45896096038E+02  0.92118253718E+01  0.11004184032E+03  0.79880906288E+02 0.  0.
          5    1    3    3  501    0  0.91952253580E+01 -0.32501580086E+02  0.90722752156E+02  0.96920651237E+02  0.47000000000E+01 0. -1.
        -11    1    4    4    0    0 -0.34562910749E+02  0.94582802209E+02  0.15190227582E+03  0.18224928717E+03  0.00000000000E+00 0.  1.
         12    1    4    4    0    0  0.15806724451E+02  0.41132416364E+02  0.13551995545E+02  0.46101895808E+02  0.00000000000E+00 0. -1.
         -5    1    5    5    0  502 -0.49911201229E+02 -0.57317542450E+02  0.77258473596E+02  0.10847760332E+03  0.47000000000E+01 0.  1.
         13    1    6    6    0    0  0.39750099240E+02 -0.39505199367E+02  0.42837214685E+02  0.70539053924E+02  0.00000000000E+00 0. -1.
        -14    1    6    6    0    0  0.19722062929E+02 -0.63908966711E+01 -0.33625389313E+02  0.39502786394E+02  0.00000000000E+00 0.  1.
</event>
<event>
12    1  0.8451514E-002  0.2365032E+03  0.7818608E-02  0.1122553E+00
         21   -1    0    0  501  502  0.00000000000E+00  0.00000000000E+00  0.10783411158E+04  0.10783411158E+04  0.00000000000E+00 0.  1.
         21   -1    0    0  502  503 -0.00000000000E+00 -0.00000000000E+00 -0.63859369783E+02  0.63859369783E+02  0.00000000000E+00 0.  1.
         -6    2    1    2    0  503  0.19294311857E+00 -0.15860584857E+03  0.25651375299E+03  0.34890263655E+03  0.17543629012E+03 0.  0.
        -24    2    3    3    0    0 -0.24751155297E+02 -0.93345009984E+02  0.57312719164E+02  0.13775262595E+03  0.79781749799E+02 0.  0.
          6    2    1    2  501    0 -0.19294311857E+00  0.15860584857E+03  0.75796799304E+03  0.79329784905E+03  0.17219217869E+03 0.  0.
         24    2    5    5    0    0 -0.43170614625E+02  0.13433785914E+03  0.69198628853E+03  0.71076488055E+03  0.80195570585E+02 0.  0.
          5    1    5    5  501    0  0.42977671506E+02  0.24267989424E+02  0.65981704506E+02  0.82532968493E+02  0.47000000000E+01 0. -1.
        -11    1    6    6    0    0  0.14034568726E+02  0.22569188518E+02  0.24632039536E+03  0.24775002434E+03  0.00000000000E+00 0.  1.
         12    1    6    6    0    0 -0.57205183351E+02  0.11176867063E+03  0.44566589317E+03  0.46301485621E+03  0.00000000000E+00 0. -1.
         -5    1    3    3    0  503  0.24944098415E+02 -0.65260838585E+02  0.19920103382E+03  0.21115001060E+03  0.47000000000E+01 0.  1.
         13    1    4    4    0    0  0.23284512837E+00 -0.56489805898E+02  0.71406756330E+02  0.91049861268E+02  0.00000000000E+00 0. -1.
        -14    1    4    4    0    0 -0.24984000425E+02 -0.36855204086E+02 -0.14094037166E+02  0.46702764683E+02  0.00000000000E+00 0.  1.
</event>
<event>
12    1  0.8451514E-002  0.2198401E+03  0.7818608E-02  0.1134003E+00
         21   -1    0    0  503  502  0.00000000000E+00  0.00000000000E+00  0.13473292149E+03  0.13473292149E+03  0.00000000000E+00 0.  1.
         21   -1    0    0  501  503 -0.00000000000E+00 -0.00000000000E+00 -0.54068070264E+03  0.54068070264E+03  0.00000000000E+00 0. -1.
          6    2    1    2  501    0 -0.51713521056E+02  0.12794567201E+03 -0.39889256310E+03  0.45546031365E+03  0.17112696212E+03 0.  0.
         24    2    3    3    0    0  0.18787252711E+02  0.82200162507E+02 -0.31851402788E+03  0.33907384680E+03  0.80062850593E+02 0.  0.
         -6    2    1    2    0  502  0.51713521056E+02 -0.12794567201E+03 -0.70552180496E+01  0.21995331049E+03  0.17112948153E+03 0.  0.
        -24    2    5    5    0    0 -0.20698031815E+02 -0.61496214284E+02 -0.49369427176E+02  0.11284800850E+03  0.78020124260E+02 0.  0.
          5    1    3    3  501    0 -0.70500773768E+02  0.45745509502E+02 -0.80378535214E+02  0.11638646684E+03  0.47000000000E+01 0. -1.
        -11    1    4    4    0    0 -0.10005384871E+02 -0.10041612225E+02 -0.87859826329E+02  0.88996015557E+02  0.00000000000E+00 0.  1.
         12    1    4    4    0    0  0.28792637582E+02  0.92241774732E+02 -0.23065420155E+03  0.25007783124E+03  0.00000000000E+00 0. -1.
         -5    1    5    5    0  502  0.72411552871E+02 -0.66449457725E+02  0.42314209126E+02  0.10710530199E+03  0.47000000000E+01 0.  1.
         11    1    6    6    0    0 -0.14705615789E+02  0.11244898483E+02 -0.33319214391E+02  0.38116570219E+02  0.00000000000E+00 0. -1.
        -12    1    6    6    0    0 -0.59924160253E+01 -0.72741112767E+02 -0.16050212784E+02  0.74731438276E+02  0.00000000000E+00 0.  1.
</event>
<event>
12    1  0.8451514E-002  0.1996890E+03  0.7818608E-02  0.1150213E+00
         21   -1    0    0  503  502  0.00000000000E+00  0.00000000000E+00  0.57148089883E+03  0.57148089883E+03  0.00000000000E+00 0.  1.
         21   -1    0    0  501  503 -0.00000000000E+00 -0.00000000000E+00 -0.10084179389E+03  0.10084179389E+03  0.00000000000E+00 0.  1.
          6    2    1    2  501    0  0.96077615366E+02 -0.25091647210E+02  0.47293380557E+02  0.20424440347E+03  0.17210059143E+03 0.  0.
         24    2    3    3    0    0  0.69002439855E+02 -0.52977853801E+02 -0.25690772327E+02  0.12142241231E+03  0.80718007467E+02 0.  0.
         -6    2    1    2    0  502 -0.96077615366E+02  0.25091647210E+02  0.42334572438E+03  0.46807828925E+03  0.17324890643E+03 0.  0.
        -24    2    5    5    0    0 -0.13311832564E+03  0.35060275144E+02  0.35558165538E+03  0.39006901539E+03  0.82254553719E+02 0.  0.
          5    1    3    3  501    0  0.27075175511E+02  0.27886206590E+02  0.72984152883E+02  0.82821991156E+02  0.47000000000E+01 0. -1.
        -13    1    4    4    0    0  0.65832347621E+02 -0.46010897801E+02  0.13540965462E+02  0.81450957364E+02  0.00000000000E+00 0.  1.
         14    1    4    4    0    0  0.31700922337E+01 -0.69669559991E+01 -0.39231737789E+02  0.39971454947E+02  0.00000000000E+00 0. -1.
         -5    1    5    5    0  502  0.37040710277E+02 -0.99686279339E+01  0.67764069003E+02  0.78009273862E+02  0.47000000000E+01 0.  1.
         11    1    6    6    0    0  0.10705286184E+02 -0.38331851247E+01  0.25145676343E+02  0.27597128460E+02  0.00000000000E+00 0. -1.
        -12    1    6    6    0    0 -0.14382361183E+03  0.38893460269E+02  0.33043597904E+03  0.36247188693E+03  0.00000000000E+00 0.  1.
</event>
<event>
12    1  0.8451514E-002  0.2474965E+03  0.7818608E-02  0.1116184E+00
         21   -1    0    0  501  502  0.00000000000E+00  0.00000000000E+00  0.15108984952E+03  0.15108984952E+03  0.00000000000E+00 0.  1.
         21   -1    0    0  502  503 -0.00000000000E+00 -0.00000000000E+00 -0.41347363813E+03  0.41347363813E+03  0.00000000000E+00 0.  1.
         -6    2    1    2    0  503  0.25474738119E+02 -0.17739707222E+03 -0.19261912002E+03  0.30742227646E+03  0.15902090162E+03 0.  0.
        -24    2    3    3    0    0 -0.15080302958E+02 -0.42155689955E+02 -0.11034196783E+03  0.14393967003E+03  0.80862605760E+02 0.  0.
          6    2    1    2  501    0 -0.25474738119E+02  0.17739707222E+03 -0.69764668587E+02  0.25714121118E+03  0.17069214975E+03 0.  0.
         24    2    5    5    0    0  0.98188103036E+01  0.48916322250E+02 -0.79289947758E+02  0.12347835689E+03  0.80441240580E+02 0.  0.
          5    1    5    5  501    0 -0.35293548423E+02  0.12848074997E+03  0.95252791702E+01  0.13366285429E+03  0.47000000000E+01 0. -1.
        -11    1    6    6    0    0  0.29782982233E+02  0.51156855271E+02 -0.84078266159E+02  0.10282608965E+03  0.00000000000E+00 0.  1.
         12    1    6    6    0    0 -0.19964171929E+02 -0.22405330205E+01  0.47883184017E+01  0.20652267240E+02  0.00000000000E+00 0. -1.
         -5    1    3    3    0  503  0.40555041077E+02 -0.13524138227E+03 -0.82277152195E+02  0.16348260644E+03  0.47000000000E+01 0.  1.
         13    1    4    4    0    0 -0.13402437896E+02 -0.26007163236E+02  0.30274186835E+01  0.29413655758E+02  0.00000000000E+00 0. -1.
        -14    1    4    4    0    0 -0.16778650623E+01 -0.16148526719E+02 -0.11336938651E+03  0.11452601427E+03  0.00000000000E+00 0.  1.
</event>
<event>
12    1  0.8451514E-002  0.1754704E+03  0.7818608E-02  0.1173730E+00
         21   -1    0    0  503  502  0.00000000000E+00  0.00000000000E+00  0.11329239233E+03  0.11329239233E+03  0.00000000000E+00 0. -1.
         21   -1    0    0  501  503 -0.00000000000E+00 -0.00000000000E+00 -0.31509061942E+03  0.31509061942E+03  0.00000000000E+00 0. -1.
          6    2    1    2  501    0  0.25402609789E+02  0.10066089933E+02 -0.15151510357E+02  0.17612331689E+03  0.17332984664E+03 0.  0.
         24    2    3    3    0    0  0.42711067148E+02  0.52453665986E+02 -0.33060224268E+02  0.12673605807E+03  0.10194816160E+03 0.  0.
         -6    2    1    2    0  502 -0.25402609789E+02 -0.10066089933E+02 -0.18664671674E+03  0.25225969487E+03  0.16748533678E+03 0.  0.
        -24    2    5    5    0    0 -0.31692379322E+02 -0.62050651250E+02 -0.16324666402E+03  0.19471311996E+03  0.80056452233E+02 0.  0.
          5    1    3    3  501    0 -0.17308457358E+02 -0.42387576054E+02  0.17908713911E+02  0.49387258820E+02  0.47000000000E+01 0. -1.
        -13    1    4    4    0    0 -0.30051923467E+02  0.12344266804E+01 -0.21575793408E+02  0.37015628786E+02  0.00000000000E+00 0.  1.
         14    1    4    4    0    0  0.72762990614E+02  0.51219239306E+02 -0.11484430861E+02  0.89720429281E+02  0.00000000000E+00 0. -1.
         -5    1    5    5    0  502  0.62897695330E+01  0.51984561318E+02 -0.23400052715E+02  0.57546574904E+02  0.47000000000E+01 0.  1.
         13    1    6    6    0    0 -0.53773687992E+02 -0.17833422690E+02 -0.90245680923E+02  0.10655479065E+03  0.00000000000E+00 0. -1.
        -14    1    6    6    0    0  0.22081308670E+02 -0.44217228560E+02 -0.73000983098E+02  0.88158329314E+02  0.00000000000E+00 0.  1.
</event>
<event>
12    1  0.8451514E-002  0.2002114E+03  0.7818608E-02  0.1150353E+00
         21   -1    0    0  501  502  0.00000000000E+00  0.00000000000E+00  0.27044752340E+03  0.27044752340E+03  0.00000000000E+00 0.  1.
         21   -1    0    0  502  503 -0.00000000000E+00 -0.00000000000E+00 -0.12677928766E+04  0.12677928766E+04  0.00000000000E+00 0. -1.
         -6    2    1    2    0  503 -0.33537232104E+02 -0.96494744947E+02 -0.12228552506E+04  0.12391366228E+04  0.17218775880E+03 0.  0.
        -24    2    3    3    0    0 -0.10550553214E+02 -0.80677520105E+02 -0.11933965789E+04  0.11982896481E+04  0.71291721937E+02 0.  0.
          6    2    1    2  501    0  0.33537232104E+02  0.96494744947E+02  0.22550989739E+03  0.29910377721E+03  0.16784628081E+03 0.  0.
         24    2    5    5    0    0  0.28328855706E+02  0.98126866241E+02  0.77402994830E+02  0.15082183094E+03  0.79527323200E+02 0.  0.
          5    1    5    5  501    0  0.52083763976E+01 -0.16321212947E+01  0.14810690256E+03  0.14828194627E+03  0.47000000000E+01 0. -1.
        -11    1    6    6    0    0  0.38575752331E+02  0.15564614494E+02  0.45683359615E+02  0.61784425529E+02  0.00000000000E+00 0.  1.
         12    1    6    6    0    0 -0.10246896625E+02  0.82562251747E+02  0.31719635215E+02  0.89037405410E+02  0.00000000000E+00 0. -1.
         -5    1    3    3    0  503 -0.22986678889E+02 -0.15817224841E+02 -0.29458671660E+02  0.40846974723E+02  0.47000000000E+01 0.  1.
         13    1    4    4    0    0 -0.79939528680E+00 -0.60115933074E+02 -0.39322157852E+03  0.39779111887E+03  0.00000000000E+00 0. -1.
        -14    1    4    4    0    0 -0.97511579276E+01 -0.20561587032E+02 -0.80017500041E+03  0.80049852918E+03  0.00000000000E+00 0.  1.
</event>
<event>
12    1  0.8451514E-002  0.1720673E+03  0.7818608E-02  0.1175984E+00
         21   -1    0    0  501  502  0.00000000000E+00  0.00000000000E+00  0.11178946769E+03  0.11178946769E+03  0.00000000000E+00 0.  1.
         21   -1    0    0  502  503 -0.00000000000E+00 -0.00000000000E+00 -0.53755680425E+03  0.53755680425E+03  0.00000000000E+00 0.  1.
         -6    2    1    2    0  503  0.15123180949E+01  0.66997769140E+01 -0.44450470600E+03  0.47626180348E+03  0.17086163314E+03 0.  0.
        -24    2    3    3    0    0  0.23780227050E+02 -0.59717688147E+02 -0.26342881846E+03  0.28205133393E+03  0.77630606719E+02 0.  0.
          6    2    1    2  501    0 -0.15123180949E+01 -0.66997769140E+01  0.18737369435E+02  0.17308446847E+03  0.17193013143E+03 0.  0.
         24    2    5    5    0    0 -0.94029607432E+01 -0.66605358563E+02  0.35844058747E+02  0.11011090438E+03  0.79466503990E+02 0.  0.
          5    1    5    5  501    0  0.78906426483E+01  0.59905581649E+02 -0.17106689312E+02  0.62973564083E+02  0.47000000000E+01 0. -1.
        -11    1    6    6    0    0 -0.40958138802E+01 -0.56735417818E+02  0.60491456675E+02  0.83035532497E+02  0.00000000000E+00 0.  1.
         12    1    6    6    0    0 -0.53071468630E+01 -0.98699407450E+01 -0.24647397928E+02  0.27075371886E+02  0.00000000000E+00 0. -1.
         -5    1    3    3    0  503 -0.22267908955E+02  0.66417465061E+02 -0.18107588754E+03  0.19421046955E+03  0.47000000000E+01 0.  1.
         13    1    4    4    0    0 -0.20980582873E+02 -0.46249973247E+02 -0.17236938088E+03  0.17969543218E+03  0.00000000000E+00 0. -1.
        -14    1    4    4    0    0  0.44760809922E+02 -0.13467714900E+02 -0.91059437581E+02  0.10235590175E+03  0.00000000000E+00 0.  1.
</event>
<event>
12    1  0.8451514E-002  0.2893935E+03  0.7818608E-02  0.1090727E+00
         21   -1    0    0  503  502  0.00000000000E+00  0.00000000000E+00  0.96146057978E+02  0.96146057978E+02  0.00000000000E+00 0. -1.
         21   -1    0    0  501  503 -0.00000000000E+00 -0.00000000000E+00 -0.96937465544E+03  0.96937465544E+03  0.00000000000E+00 0.  1.
          6    2    1    2  501    0 -0.15709639202E+03 -0.17133908488E+03 -0.60717561627E+03  0.67241411833E+03  0.17158717651E+03 0.  0.
         24    2    3    3    0    0 -0.10766936493E+02 -0.88116151801E+02 -0.27163429649E+03  0.29698312144E+03  0.80829451696E+02 0.  0.
         -6    2    1    2    0  502  0.15709639202E+03  0.17133908488E+03 -0.26605298119E+03  0.39310659509E+03  0.17237241051E+03 0.  0.
        -24    2    5    5    0    0  0.17064576208E+02  0.10007693287E+03 -0.15037514105E+03  0.19793831783E+03  0.79122072544E+02 0.  0.
          5    1    3    3  501    0 -0.14632945553E+03 -0.83222933079E+02 -0.33554131978E+03  0.37543099689E+03  0.47000000000E+01 0. -1.
        -11    1    4    4    0    0 -0.24439401334E+02 -0.30251870327E+02 -0.20066473196E+03  0.20439861704E+03  0.00000000000E+00 0.  1.
         12    1    4    4    0    0  0.13672464841E+02 -0.57864281474E+02 -0.70969564530E+02  0.92584504399E+02  0.00000000000E+00 0. -1.
         -5    1    5    5    0  502  0.14003181581E+03  0.71262152014E+02 -0.11567784014E+03  0.19516827726E+03  0.47000000000E+01 0.  1.
         11    1    6    6    0    0  0.37393308635E+02  0.17492601351E+02 -0.32277324368E+02  0.52403018053E+02  0.00000000000E+00 0. -1.
        -12    1    6    6    0    0 -0.20328732427E+02  0.82584331515E+02 -0.11809781669E+03  0.14553529977E+03  0.00000000000E+00 0.  1.
</event>
<event>
12    1  0.8451514E-002  0.2709688E+03  0.7818608E-02  0.1100823E+00
         21   -1    0    0  501  502  0.00000000000E+00  0.00000000000E+00  0.10710249036E+04  0.10710249036E+04  0.00000000000E+00 0.  1.
         21   -1    0    0  502  503 -0.00000000000E+00 -0.00000000000E+00 -0.68798534385E+02  0.68798534385E+02  0.00000000000E+00 0. -1.
         -6    2    1    2    0  503  0.13975524791E+03  0.15472260791E+03  0.45745036256E+03  0.53168124043E+03  0.17307077311E+03 0.  0.
        -24    2    3    3    0    0  0.63387922632E+02  0.16281329491E+03  0.36567129565E+03  0.41191933201E+03  0.73728162086E+02 0.  0.
          6    2    1    2  501    0 -0.13975524791E+03 -0.15472260791E+03  0.54477600663E+03  0.60814219752E+03  0.17200412872E+03 0.  0.
         24    2    5    5    0    0 -0.16163225027E+02 -0.50917840050E+02  0.12059302486E+03  0.15426588180E+03  0.80008801800E+02 0.  0.
          5    1    5    5  501    0 -0.12359202288E+03 -0.10380476786E+03  0.42418298177E+03  0.45387631572E+03  0.47000000000E+01 0. -1.
        -11    1    6    6    0    0 -0.40658678573E+02 -0.11920110317E+01  0.54469492739E+02  0.67981428882E+02  0.00000000000E+00 0.  1.
         12    1    6    6    0    0  0.24495453547E+02 -0.49725829018E+02  0.66123532118E+02  0.86284452920E+02  0.00000000000E+00 0. -1.
         -5    1    3    3    0  503  0.76367325277E+02 -0.80906869997E+01  0.91779066901E+02  0.11976190842E+03  0.47000000000E+01 0.  1.
         11    1    4    4    0    0  0.78656203073E+02  0.13119210364E+03  0.31616495953E+03  0.35122421325E+03  0.00000000000E+00 0. -1.
        -12    1    4    4    0    0 -0.15268280441E+02  0.31621191271E+02  0.49506336129E+02  0.60695118765E+02  0.00000000000E+00 0.  1.
</event>
<event>
12    1  0.8451514E-002  0.7271745E+03  0.7818608E-02  0.9672261E-01
         21   -1    0    0  503  502  0.00000000000E+00  0.00000000000E+00  0.40042830393E+03  0.40042830393E+03  0.00000000000E+00 0.  1.
         21   -1    0    0  501  503 -0.00000000000E+00 -0.00000000000E+00 -0.14246466668E+04  0.14246466668E+04  0.00000000000E+00 0. -1.
          6    2    1    2  501    0 -0.50353357822E+03  0.49557974655E+03 -0.76058545017E+03  0.10515860356E+04  0.16792145108E+03 0.  0.
         24    2    3    3    0    0 -0.48505795934E+03  0.42183503255E+03 -0.70434980351E+03  0.95690673857E+03  0.79598002561E+02 0.  0.
         -6    2    1    2    0  502  0.50353357822E+03 -0.49557974655E+03 -0.26363291271E+03  0.77348893511E+03  0.17215536729E+03 0.  0.
        -24    2    5    5    0    0  0.47552102481E+03 -0.47747959813E+03 -0.21063465700E+03  0.71069384271E+03  0.81312776730E+02 0.  0.
          5    1    3    3  501    0 -0.18475618875E+02  0.73744714002E+02 -0.56235646666E+02  0.94679297061E+02  0.47000000000E+01 0. -1.
        -11    1    4    4    0    0 -0.26105715549E+02  0.36468154096E+02 -0.78446795179E+02  0.90362239467E+02  0.00000000000E+00 0.  1.
         12    1    4    4    0    0 -0.45895224379E+03  0.38536687845E+03 -0.62590300833E+03  0.86654449910E+03  0.00000000000E+00 0. -1.
         -5    1    5    5    0  502  0.28012553403E+02 -0.18100148418E+02 -0.52998255717E+02  0.62795092404E+02  0.47000000000E+01 0.  1.
         11    1    6    6    0    0  0.27458287044E+03 -0.22073959635E+03 -0.96760856970E+02  0.36535514992E+03  0.00000000000E+00 0. -1.
        -12    1    6    6    0    0  0.20093815437E+03 -0.25674000179E+03 -0.11387380003E+03  0.34533869278E+03  0.00000000000E+00 0.  1.
</event>
<event>
12    1  0.8451514E-002  0.1820894E+03  0.7818608E-02  0.1166086E+00
         21   -1    0    0  501  502  0.00000000000E+00  0.00000000000E+00  0.18351999991E+03  0.18351999991E+03  0.00000000000E+00 0.  1.
         21   -1    0    0  502  503 -0.00000000000E+00 -0.00000000000E+00 -0.91962691316E+03  0.91962691316E+03  0.00000000000E+00 0. -1.
         -6    2    1    2    0  503 -0.41661579395E+02  0.43098434572E+02 -0.86312720821E+03  0.88212534583E+03  0.17194006495E+03 0.  0.
        -24    2    3    3    0    0 -0.34467388101E+02  0.93569906363E+02 -0.53783922672E+03  0.55283294270E+03  0.80061854332E+02 0.  0.
          6    2    1    2  501    0  0.41661579395E+02 -0.43098434572E+02  0.12702029497E+03  0.22102156724E+03  0.17065525363E+03 0.  0.
         24    2    5    5    0    0  0.60958642057E+02  0.21439949380E+02  0.38310478545E+02  0.10953568849E+03  0.79716665866E+02 0.  0.
          5    1    5    5  501    0 -0.19297062661E+02 -0.64538383952E+02  0.88709816422E+02  0.11148587875E+03  0.47000000000E+01 0. -1.
        -13    1    6    6    0    0  0.26635802964E+02 -0.39008909910E+00  0.58385006327E+02  0.64174972792E+02  0.00000000000E+00 0.  1.
         14    1    6    6    0    0  0.34322839093E+02  0.21830038479E+02 -0.20074527782E+02  0.45360715703E+02  0.00000000000E+00 0. -1.
         -5    1    3    3    0  503 -0.71941912940E+01 -0.50471471790E+02 -0.32528798149E+03  0.32929240313E+03  0.47000000000E+01 0.  1.
         11    1    4    4    0    0 -0.43810788410E+02  0.63005212385E+02 -0.48534547087E+03  0.49137487528E+03  0.00000000000E+00 0. -1.
        -12    1    4    4    0    0  0.93434003088E+01  0.30564693978E+02 -0.52493755850E+02  0.61458067416E+02  0.00000000000E+00 0.  1.
</event>
<event>
12    1  0.8451514E-002  0.2017705E+03  0.7818608E-02  0.1148778E+00
         21   -1    0    0  503  502  0.00000000000E+00  0.00000000000E+00  0.61325538257E+03  0.61325538257E+03  0.00000000000E+00 0. -1.
         21   -1    0    0  501  503 -0.00000000000E+00 -0.00000000000E+00 -0.11134972199E+03  0.11134972199E+03  0.00000000000E+00 0.  1.
          6    2    1    2  501    0 -0.10115221720E+03  0.33227425699E+02  0.19558903278E+02  0.20271626290E+03  0.17139282272E+03 0.  0.
         24    2    3    3    0    0 -0.12400625403E+03  0.38269937787E+02 -0.22091419071E+02  0.15471029161E+03  0.81271793105E+02 0.  0.
         -6    2    1    2    0  502  0.10115221720E+03 -0.33227425699E+02  0.48234675730E+03  0.52188884167E+03  0.16844505312E+03 0.  0.
        -24    2    5    5    0    0  0.10011464394E+03 -0.21623390503E+01  0.47222147611E+03  0.48886267801E+03  0.77239742449E+02 0.  0.
          5    1    3    3  501    0  0.22854036830E+02 -0.50425120874E+01  0.41650322349E+02  0.48005971289E+02  0.47000000000E+01 0. -1.
        -11    1    4    4    0    0 -0.91010881325E+02  0.51311183817E+02 -0.43610480745E+02  0.11321524692E+03  0.00000000000E+00 0.  1.
         12    1    4    4    0    0 -0.32995372710E+02 -0.13041246030E+02  0.21519061674E+02  0.41495044687E+02  0.00000000000E+00 0. -1.
         -5    1    5    5    0  502  0.10375732653E+01 -0.31065086649E+02  0.10125281190E+02  0.33026163658E+02  0.47000000000E+01 0.  1.
         13    1    6    6    0    0  0.63197817124E+02 -0.59424773387E+00  0.12891707725E+03  0.14357552029E+03  0.00000000000E+00 0. -1.
        -14    1    6    6    0    0  0.36916826815E+02 -0.15680913165E+01  0.34330439886E+03  0.34528715773E+03  0.00000000000E+00 0.  1.
</event>
<event>
12    1  0.8451514E-002  0.2301191E+03  0.7818608E-02  0.1126667E+00
         21   -1    0    0  503  502  0.00000000000E+00  0.00000000000E+00  0.15960582501E+03  0.15960582501E+03  0.00000000000E+00 0. -1.
         21   -1    0    0  501  503 -0.00000000000E+00 -0.00000000000E+00 -0.41896322570E+03  0.41896322570E+03  0.00000000000E+00 0. -1.
          6    2    1    2  501    0 -0.12009552949E+03  0.94214359474E+02 -0.26246346802E+03  0.34905852805E+03  0.17220772986E+03 0.  0.
         24    2    3    3    0    0 -0.19066101043E-01  0.29188212271E+02 -0.13407880035E+03  0.16157127575E+03  0.85300646810E+02 0.  0.
         -6    2    1    2    0  502  0.12009552949E+03 -0.94214359474E+02  0.31060673254E+01  0.22951052266E+03  0.17136554677E+03 0.  0.
        -24    2    5    5    0    0  0.13733882246E+03 -0.95348769998E+02  0.39415222123E+02  0.18902518257E+03  0.78889922159E+02 0.  0.
          5    1    3    3  501    0 -0.12007646339E+03  0.65026147202E+02 -0.12838466767E+03  0.18748725230E+03  0.47000000000E+01 0. -1.
        -11    1    4    4    0    0  0.57351601011E+01 -0.26906065389E+02 -0.19043053625E+02  0.33458426554E+02  0.00000000000E+00 0.  1.
         12    1    4    4    0    0 -0.57542262021E+01  0.56094277660E+02 -0.11503574672E+03  0.12811284920E+03  0.00000000000E+00 0. -1.
         -5    1    5    5    0  502 -0.17243292963E+02  0.11344105242E+01 -0.36309154797E+02  0.40485340082E+02  0.47000000000E+01 0.  1.
         13    1    6    6    0    0  0.71089799646E+02 -0.56590013886E+01  0.29175170149E+02  0.77051764831E+02  0.00000000000E+00 0. -1.
        -14    1    6    6    0    0  0.66249022811E+02 -0.89689768609E+02  0.10240051974E+02  0.11197341774E+03  0.00000000000E+00 0.  1.
</event>
<event>
12    1  0.8451514E-002  0.1728656E+03  0.7818608E-02  0.1174954E+00
         21   -1    0    0  501  502  0.00000000000E+00  0.00000000000E+00  0.16224069343E+03  0.16224069343E+03  0.00000000000E+00 0.  1.
         21   -1    0    0  502  503 -0.00000000000E+00 -0.00000000000E+00 -0.62386445566E+03  0.62386445566E+03  0.00000000000E+00 0.  1.
         -6    2    1    2    0  503  0.10379742043E+02 -0.11861745438E+02 -0.56092536277E+03  0.58695808340E+03  0.17214554602E+03 0.  0.
        -24    2    3    3    0    0 -0.13251397475E+02 -0.65647329033E+01 -0.55579499301E+03  0.56176086548E+03  0.80302555846E+02 0.  0.
          6    2    1    2  501    0 -0.10379742043E+02  0.11861745438E+02  0.99301600538E+02  0.19914706569E+03  0.17190202400E+03 0.  0.
         24    2    5    5    0    0 -0.40352625711E+02  0.20100654355E+02  0.13123499784E+03  0.15433540160E+03  0.67560497478E+02 0.  0.
          5    1    5    5  501    0  0.29972883668E+02 -0.82389089173E+01 -0.31933397304E+02  0.44811664095E+02  0.47000000000E+01 0. -1.
        -11    1    6    6    0    0 -0.41223597140E+02  0.21693641421E+02  0.35462268776E+02  0.58545465632E+02  0.00000000000E+00 0.  1.
         12    1    6    6    0    0  0.87097142934E+00 -0.15929870657E+01  0.95772729067E+02  0.95789935964E+02  0.00000000000E+00 0. -1.
         -5    1    3    3    0  503  0.23631139518E+02 -0.52970125347E+01 -0.51303697578E+01  0.25197217913E+02  0.47000000000E+01 0.  1.
         11    1    4    4    0    0 -0.35543387157E+02 -0.29431024234E+02 -0.24323919576E+03  0.24757791483E+03  0.00000000000E+00 0. -1.
        -12    1    4    4    0    0  0.22291989682E+02  0.22866291331E+02 -0.31255579726E+03  0.31418295065E+03  0.00000000000E+00 0.  1.
</event>
<event>
12    1  0.8451514E-002  0.3417802E+03  0.7818608E-02  0.1066106E+00
         21   -1    0    0  503  502  0.00000000000E+00  0.00000000000E+00  0.12871512934E+03  0.12871512934E+03  0.00000000000E+00 0. -1.
         21   -1    0    0  501  503 -0.00000000000E+00 -0.00000000000E+00 -0.23624270191E+04  0.23624270191E+04  0.00000000000E+00 0.  1.
          6    2    1    2  501    0 -0.22719855768E+03 -0.18841849697E+03 -0.20944919202E+04  0.21220948411E+04  0.17108301003E+03 0.  0.
         24    2    3    3    0    0 -0.19734620876E+03 -0.91027937131E+02 -0.12230045462E+04  0.12446619850E+04  0.78814500803E+02 0.  0.
         -6    2    1    2    0  502  0.22719855768E+03  0.18841849697E+03 -0.13921996951E+03  0.36904730727E+03  0.17231657053E+03 0.  0.
        -24    2    5    5    0    0  0.14911349384E+03  0.19899249981E+03 -0.91102546683E+02  0.27660022451E+03  0.79844606355E+02 0.  0.
          5    1    3    3  501    0 -0.29852348917E+02 -0.97390559844E+02 -0.87148737405E+03  0.87743285613E+03  0.47000000000E+01 0. -1.
        -11    1    4    4    0    0 -0.10462314054E+02 -0.34320578772E+02 -0.18908369898E+03  0.19245780670E+03  0.00000000000E+00 0.  1.
         12    1    4    4    0    0 -0.18688389471E+03 -0.56707358359E+02 -0.10339208472E+04  0.10522041783E+04  0.00000000000E+00 0. -1.
         -5    1    5    5    0  502  0.78085063845E+02 -0.10574002833E+02 -0.48117422830E+02  0.92447082763E+02  0.47000000000E+01 0.  1.
         11    1    6    6    0    0  0.15042712796E+03  0.17806215590E+03 -0.10022417140E+03  0.25373083518E+03  0.00000000000E+00 0. -1.
        -12    1    6    6    0    0 -0.13136341200E+01  0.20930343907E+02  0.91216247217E+01  0.22869389328E+02  0.00000000000E+00 0.  1.
</event>
<event>
12    1  0.8451514E-002  0.1921540E+03  0.7818608E-02  0.1157008E+00
         21   -1    0    0  503  502  0.00000000000E+00  0.00000000000E+00  0.13167891825E+03  0.13167891825E+03  0.00000000000E+00 0.  1.
         21   -1    0    0  501  503 -0.00000000000E+00 -0.00000000000E+00 -0.44370267686E+03  0.44370267686E+03  0.00000000000E+00 0.  1.
          6    2    1    2  501    0 -0.58906008592E+01 -0.82355072598E+02 -0.33272961011E+03  0.38422931719E+03  0.17351114541E+03 0.  0.
         24    2    3    3    0    0 -0.70299048992E+01  0.34237311372E+00 -0.26575943495E+03  0.27770579912E+03  0.80267657366E+02 0.  0.
         -6    2    1    2    0  502  0.58906008592E+01  0.82355072598E+02  0.20705851503E+02  0.19115227791E+03  0.17115315920E+03 0.  0.
        -24    2    5    5    0    0  0.69238458752E+00 -0.22307775075E+02 -0.33242644833E+01  0.83537829025E+02  0.80432592391E+02 0.  0.
          5    1    3    3  501    0  0.11393040401E+01 -0.82697445712E+02 -0.66970175167E+02  0.10652351807E+03  0.47000000000E+01 0. -1.
        -13    1    4    4    0    0  0.16647234251E+02 -0.29392964564E+02 -0.18962494089E+03  0.19261021516E+03  0.00000000000E+00 0.  1.
         14    1    4    4    0    0 -0.23677139150E+02  0.29735337677E+02 -0.76134494054E+02  0.85095583963E+02  0.00000000000E+00 0. -1.
         -5    1    5    5    0  502  0.51982162717E+01  0.10466284767E+03  0.24030115986E+02  0.10761444889E+03  0.47000000000E+01 0.  1.
         11    1    6    6    0    0 -0.14463470168E+02  0.16659653974E+02  0.24765504372E+02  0.33167246594E+02  0.00000000000E+00 0. -1.
        -12    1    6    6    0    0  0.15155854755E+02 -0.38967429049E+02 -0.28089768855E+02  0.50370582431E+02  0.00000000000E+00 0.  1.
</event>
<event>
12    1  0.8451514E-002  0.2025163E+03  0.7818608E-02  0.1151670E+00
         21   -1    0    0  501  502  0.00000000000E+00  0.00000000000E+00  0.84334707982E+03  0.84334707982E+03  0.00000000000E+00 0.  1.
         21   -1    0    0  502  503 -0.00000000000E+00 -0.00000000000E+00 -0.52807898795E+02  0.52807898795E+02  0.00000000000E+00 0.  1.
         -6    2    1    2    0  503  0.87399076860E+02  0.30592236837E+02  0.23137971768E+03  0.30748889003E+03  0.18010652443E+03 0.  0.
        -24    2    3    3    0    0 -0.99003997879E+01  0.41494719592E+02  0.60751434927E+02  0.11070943693E+03  0.82134115377E+02 0.  0.
          6    2    1    2  501    0 -0.87399076860E+02 -0.30592236837E+02  0.55915946334E+03  0.58866608859E+03  0.15904079609E+03 0.  0.
         24    2    5    5    0    0 -0.11964653422E+03 -0.41232450942E+02  0.45293826862E+03  0.47705002850E+03  0.80051523065E+02 0.  0.
          5    1    5    5  501    0  0.32247457364E+02  0.10640214105E+02  0.10622119472E+03  0.11161606009E+03  0.47000000000E+01 0. -1.
        -13    1    6    6    0    0 -0.83060272939E+02 -0.97896667973E+01  0.16381582271E+03  0.18393061270E+03  0.00000000000E+00 0.  1.
         14    1    6    6    0    0 -0.36586261284E+02 -0.31442784145E+02  0.28912244591E+03  0.29311941580E+03  0.00000000000E+00 0. -1.
         -5    1    3    3    0  503  0.97299476648E+02 -0.10902482755E+02  0.17062828276E+03  0.19677945310E+03  0.47000000000E+01 0.  1.
         13    1    4    4    0    0  0.27227677858E+01  0.43375145214E+02  0.77977359814E+02  0.89270853756E+02  0.00000000000E+00 0. -1.
        -14    1    4    4    0    0 -0.12623167574E+02 -0.18804256224E+01 -0.17225924887E+02  0.21438583170E+02  0.00000000000E+00 0.  1.
</event>
<event>
12    1  0.8451514E-002  0.1833878E+03  0.7818608E-02  0.1165349E+00
         21   -1    0    0  501  502  0.00000000000E+00  0.00000000000E+00  0.11793730531E+04  0.11793730531E+04  0.00000000000E+00 0.  1.
         21   -1    0    0  502  503 -0.00000000000E+00 -0.00000000000E+00 -0.41687892441E+02  0.41687892441E+02  0.00000000000E+00 0.  1.
         -6    2    1    2    0  503 -0.28109269873E+02 -0.45505141600E+02  0.22255523915E+03  0.28837809065E+03  0.17541447983E+03 0.  0.
        -24    2    3    3    0    0 -0.41467107392E+02  0.13734773677E+02  0.20713101257E+03  0.22554660053E+03  0.77845023221E+02 0.  0.
          6    2    1    2  501    0  0.28109269873E+02  0.45505141600E+02  0.91512992154E+03  0.93268285492E+03  0.17197001363E+03 0.  0.
         24    2    5    5    0    0  0.52709812906E+02  0.45403464518E+02  0.32965616514E+03  0.34667363443E+03  0.81667757586E+02 0.  0.
          5    1    5    5  501    0 -0.24600543033E+02  0.10167708269E+00  0.58547375641E+03  0.58600922049E+03  0.47000000000E+01 0. -1.
        -13    1    6    6    0    0  0.61307467680E+02  0.47679790639E+02  0.32867411197E+03  0.33772568737E+03  0.00000000000E+00 0.  1.
         14    1    6    6    0    0 -0.85976547741E+01 -0.22763261212E+01  0.98205316829E+00  0.89479470634E+01  0.00000000000E+00 0. -1.
         -5    1    3    3    0  503  0.13357837520E+02 -0.59239915277E+02  0.15424226576E+02  0.62831490120E+02  0.47000000000E+01 0.  1.
         11    1    4    4    0    0 -0.14093860939E+02  0.45267915426E+02  0.10490877128E+03  0.11512459066E+03  0.00000000000E+00 0. -1.
        -12    1    4    4    0    0 -0.27373246453E+02 -0.31533141749E+02  0.10222224129E+03  0.11042200987E+03  0.00000000000E+00 0.  1.
</event>
<event>
12    1  0.8451514E-002  0.1828018E+03  0.7818608E-02  0.1165642E+00
         21   -1    0    0  501  502  0.00000000000E+00  0.00000000000E+00  0.19000468140E+03  0.19000468140E+03  0.00000000000E+00 0. -1.
         21   -1    0    0  502  503 -0.00000000000E+00 -0.00000000000E+00 -0.25954167940E+03  0.25954167940E+03  0.00000000000E+00 0. -1.
         -6    2    1    2    0  503  0.20275099094E+02  0.58113795277E+02 -0.16384333071E+03  0.24385199781E+03  0.16979654582E+03 0.  0.
        -24    2    3    3    0    0 -0.31239413413E+02  0.73945375693E+02 -0.62283049222E+02  0.12878260695E+03  0.79132560271E+02 0.  0.
          6    2    1    2  501    0 -0.20275099094E+02 -0.58113795277E+02  0.94306332714E+02  0.20569436299E+03  0.17212842220E+03 0.  0.
         24    2    5    5    0    0  0.51839418421E+02 -0.55614850150E+02  0.51766657976E+02  0.12179881907E+03  0.79842523688E+02 0.  0.
          5    1    5    5  501    0 -0.72114517515E+02 -0.24989451277E+01  0.42539674738E+02  0.83895543922E+02  0.47000000000E+01 0. -1.
        -13    1    6    6    0    0  0.37971537732E+02  0.45518873535E+00 -0.78649401250E+01  0.38780177381E+02  0.00000000000E+00 0.  1.
         14    1    6    6    0    0  0.13867880688E+02 -0.56070038885E+02  0.59631598101E+02  0.83018641686E+02  0.00000000000E+00 0. -1.
         -5    1    3    3    0  503  0.51514512507E+02 -0.15831580416E+02 -0.10156028149E+03  0.11506939086E+03  0.47000000000E+01 0.  1.
         11    1    4    4    0    0 -0.10298197080E+02 -0.10370515073E+02 -0.34666458520E+02  0.37621320980E+02  0.00000000000E+00 0. -1.
        -12    1    4    4    0    0 -0.20941216332E+02  0.84315890767E+02 -0.27616590702E+02  0.91161285968E+02  0.00000000000E+00 0.  1.
</event>
<event>
12    1  0.8451514E-002  0.1953237E+03  0.7818608E-02  0.1154874E+00
         21   -1    0    0  501  502  0.00000000000E+00  0.00000000000E+00  0.66765120547E+03  0.66765120547E+03  0.00000000000E+00 0. -1.
         21   -1    0    0  502  503 -0.00000000000E+00 -0.00000000000E+00 -0.93969946038E+02  0.93969946038E+02  0.00000000000E+00 0. -1.
         -6    2    1    2    0  503 -0.81337317328E+02 -0.31510425966E+02  0.45947366285E+02  0.20065515782E+03  0.17476460098E+03 0.  0.
        -24    2    3    3    0    0 -0.85327425710E+01  0.13440310582E+02 -0.25268347471E+02  0.89233244772E+02  0.84087055747E+02 0.  0.
          6    2    1    2  501    0  0.81337317328E+02  0.31510425966E+02  0.52773389315E+03  0.56096599369E+03  0.16902993215E+03 0.  0.
         24    2    5    5    0    0  0.19131093770E+02  0.76647467534E+01  0.45602211043E+03  0.46297160381E+03  0.77212652098E+02 0.  0.
          5    1    5    5  501    0  0.62206223558E+02  0.23845679213E+02  0.71711782721E+02  0.97994389877E+02  0.47000000000E+01 0. -1.
        -11    1    6    6    0    0 -0.55408582060E+01 -0.44012105929E+01  0.10292635953E+01  0.71506047220E+01  0.00000000000E+00 0.  1.
         12    1    6    6    0    0  0.24671951976E+02  0.12065957346E+02  0.45499284684E+03  0.45582099909E+03  0.00000000000E+00 0. -1.
         -5    1    3    3    0  503 -0.72804574757E+02 -0.44950736548E+02  0.71215713756E+02  0.11142191305E+03  0.47000000000E+01 0.  1.
         13    1    4    4    0    0 -0.27940680041E+02  0.37197960641E+02 -0.33667349772E+02  0.57426999901E+02  0.00000000000E+00 0. -1.
        -14    1    4    4    0    0  0.19407937470E+02 -0.23757650059E+02  0.83990023001E+01  0.31806244871E+02  0.00000000000E+00 0.  1.
</event>
<event>
12    1  0.8451514E-002  0.2949946E+03  0.7818608E-02  0.1087845E+00
         21   -1    0    0  501  502  0.00000000000E+00  0.00000000000E+00  0.34079800860E+03  0.34079800860E+03  0.00000000000E+00 0.  1.
         21   -1    0    0  502  503 -0.00000000000E+00 -0.00000000000E+00 -0.30574063993E+03  0.30574063993E+03  0.00000000000E+00 0.  1.
         -6    2    1    2    0  503  0.23260358773E+03 -0.55879653116E+02 -0.11438825897E+03  0.31584877730E+03  0.17160656070E+03 0.  0.
        -24    2    3    3    0    0  0.11334749051E+03 -0.94277351988E+02 -0.80555714010E+02  0.18599065818E+03  0.79796172642E+02 0.  0.
          6    2    1    2  501    0 -0.23260358773E+03  0.55879653116E+02  0.14944562764E+03  0.33068987124E+03  0.17261179178E+03 0.  0.
         24    2    5    5    0    0 -0.11612416195E+03  0.58830239617E+02  0.14892981656E+03  0.21407718474E+03  0.81872661399E+02 0.  0.
          5    1    5    5  501    0 -0.11647942578E+03 -0.29505865008E+01  0.51581107638E+00  0.11661268649E+03  0.47000000000E+01 0. -1.
        -13    1    6    6    0    0 -0.92125610019E+02  0.26817871885E+02  0.51820794748E+02  0.10904916800E+03  0.00000000000E+00 0.  1.
         14    1    6    6    0    0 -0.23998551928E+02  0.32012367732E+02  0.97109021815E+02  0.10502801674E+03  0.00000000000E+00 0. -1.
         -5    1    3    3    0  503  0.11925609722E+03  0.38397698872E+02 -0.33832544962E+02  0.12985811912E+03  0.47000000000E+01 0.  1.
         13    1    4    4    0    0  0.10969868039E+03 -0.61077813734E+02 -0.36593015344E+02  0.13077977130E+03  0.00000000000E+00 0. -1.
        -14    1    4    4    0    0  0.36488101135E+01 -0.33199538254E+02 -0.43962698666E+02  0.55210886875E+02  0.00000000000E+00 0.  1.
</event>
<event>
12    1  0.8451514E-002  0.1892943E+03  0.7818608E-02  0.1160301E+00
         21   -1    0    0  501  502  0.00000000000E+00  0.00000000000E+00  0.36803255993E+02  0.36803255993E+02  0.00000000000E+00 0.  1.
         21   -1    0    0  502  503 -0.00000000000E+00 -0.00000000000E+00 -0.10741778096E+04  0.10741778096E+04  0.00000000000E+00 0.  1.
         -6    2    1    2    0  503  0.39906984827E+02  0.50888094743E+02 -0.71626430687E+03  0.74085550930E+03  0.17790492613E+03 0.  0.
        -24    2    3    3    0    0 -0.25584960242E+02 -0.80125595260E+00 -0.53044390129E+03  0.53710984192E+03  0.80380455817E+02 0.  0.
          6    2    1    2  501    0 -0.39906984827E+02 -0.50888094743E+02 -0.32111024673E+03  0.37012555628E+03  0.17233389462E+03 0.  0.
         24    2    5    5    0    0 -0.91154615818E+02 -0.27686561296E+02 -0.19480293448E+03  0.23177723514E+03  0.81833940299E+02 0.  0.
          5    1    5    5  501    0  0.51247630991E+02 -0.23201533447E+02 -0.12630731225E+03  0.13834832115E+03  0.47000000000E+01 0. -1.
        -11    1    6    6    0    0 -0.36875039725E+02 -0.35652231141E+02 -0.33157769702E+02  0.61076082321E+02  0.00000000000E+00 0.  1.
         12    1    6    6    0    0 -0.54279576093E+02  0.79656698458E+01 -0.16164516478E+03  0.17070115282E+03  0.00000000000E+00 0. -1.
         -5    1    3    3    0  503  0.65491945068E+02  0.51689350695E+02 -0.18582040559E+03  0.20374566738E+03  0.47000000000E+01 0.  1.
         11    1    4    4    0    0  0.92913169769E+01 -0.33556163852E+02 -0.17219299700E+03  0.17567803767E+03  0.00000000000E+00 0. -1.
        -12    1    4    4    0    0 -0.34876277218E+02  0.32754907899E+02 -0.35825090428E+03  0.36143180425E+03  0.00000000000E+00 0.  1.
</event>
<event>
12    1  0.8451514E-002  0.2071406E+03  0.7818608E-02  0.1144008E+00
         21   -1    0    0  503  502  0.00000000000E+00  0.00000000000E+00  0.38914951667E+03  0.38914951667E+03  0.00000000000E+00 0.  1.
         21   -1    0    0  501  503 -0.00000000000E+00 -0.00000000000E+00 -0.13360717530E+03  0.13360717530E+03  0.00000000000E+00 0.  1.
          6    2    1    2  501    0  0.56775843101E+02 -0.10020668504E+03  0.17340959138E+02  0.20708736608E+03  0.17122964767E+03 0.  0.
         24    2    3    3    0    0  0.64891931835E+02 -0.10508148851E+02  0.44486284326E+02  0.11290320091E+03  0.80291464507E+02 0.  0.
         -6    2    1    2    0  502 -0.56775843101E+02  0.10020668504E+03  0.23820138223E+03  0.31566932588E+03  0.17216953482E+03 0.  0.
        -24    2    5    5    0    0 -0.71496897849E+02  0.23467767198E+01  0.12833112261E+03  0.16772732692E+03  0.80908994566E+02 0.  0.
          5    1    3    3  501    0 -0.81160887336E+01 -0.89698536185E+02 -0.27145325189E+02  0.94184165175E+02  0.47000000000E+01 0. -1.
        -13    1    4    4    0    0  0.31429965796E+02 -0.44681885030E+02  0.14752261121E+02  0.56585712047E+02  0.00000000000E+00 0.  1.
         14    1    4    4    0    0  0.33461966039E+02  0.34173736179E+02  0.29734023206E+02  0.56317488861E+02  0.00000000000E+00 0. -1.
         -5    1    5    5    0  502  0.14721054748E+02  0.97859908316E+02  0.10987025962E+03  0.14794199897E+03  0.47000000000E+01 0.  1.
         11    1    6    6    0    0 -0.39141169179E+02 -0.24791403620E+02  0.18202079405E+02  0.49779117236E+02  0.00000000000E+00 0. -1.
        -12    1    6    6    0    0 -0.32355728671E+02  0.27138180340E+02  0.11012904320E+03  0.11794820968E+03  0.00000000000E+00 0.  1.
</event>
<event>
12    1  0.8451514E-002  0.1762307E+03  0.7818608E-02  0.1171575E+00
         21   -1    0    0  501  502  0.00000000000E+00  0.00000000000E+00  0.10513547914E+03  0.10513547914E+03  0.00000000000E+00 0.  1.
         21   -1    0    0  502  503 -0.00000000000E+00 -0.00000000000E+00 -0.97982960626E+03  0.97982960626E+03  0.00000000000E+00 0.  1.
         -6    2    1    2    0  503 -0.19467266005E+02  0.32110390590E+02 -0.89079280560E+03  0.90800062666E+03  0.17188154022E+03 0.  0.
        -24    2    3    3    0    0  0.38100230786E+02  0.44713741759E+02 -0.34976189948E+03  0.36374940477E+03  0.80804064586E+02 0.  0.
          6    2    1    2  501    0  0.19467266005E+02 -0.32110390590E+02  0.16098678480E+02  0.17696445874E+03  0.17218362460E+03 0.  0.
         24    2    5    5    0    0  0.41029979465E+02 -0.50235904552E+00  0.65944543465E+02  0.11395082112E+03  0.83381024472E+02 0.  0.
          5    1    5    5  501    0 -0.21562713460E+02 -0.31608031544E+02 -0.49845864985E+02  0.63013637619E+02  0.47000000000E+01 0. -1.
        -11    1    6    6    0    0 -0.19218536683E+02 -0.21748299881E+02  0.19438826522E+02  0.34931485461E+02  0.00000000000E+00 0.  1.
         12    1    6    6    0    0  0.60248516147E+02  0.21245940835E+02  0.46505716942E+02  0.79019335661E+02  0.00000000000E+00 0. -1.
         -5    1    3    3    0  503 -0.57567496791E+02 -0.12603351169E+02 -0.54103090613E+03  0.54425122189E+03  0.47000000000E+01 0.  1.
         13    1    4    4    0    0  0.36035925473E+02  0.66299288888E+02 -0.30218220643E+03  0.31146150567E+03  0.00000000000E+00 0. -1.
        -14    1    4    4    0    0  0.20643053136E+01 -0.21585547130E+02 -0.47579693045E+02  0.52287899093E+02  0.00000000000E+00 0.  1.
</event>
<event>
12    1  0.8451514E-002  0.2471746E+03  0.7818608E-02  0.1115648E+00
         21   -1    0    0  503  502  0.00000000000E+00  0.00000000000E+00  0.19638468246E+03  0.19638468246E+03  0.00000000000E+00 0. -1.
         21   -1    0    0  501  503 -0.00000000000E+00 -0.00000000000E+00 -0.30817629186E+03  0.30817629186E+03  0.00000000000E+00 0.  1.
          6    2    1    2  501    0 -0.80507471261E+02  0.15581673673E+03 -0.39849960813E+02  0.25036632826E+03  0.17416937324E+03 0.  0.
         24    2    3    3    0    0 -0.73010620750E+02  0.21645201905E+02 -0.27028910006E+02  0.11529348543E+03  0.82237219671E+02 0.  0.
         -6    2    1    2    0  502  0.80507471261E+02 -0.15581673673E+03 -0.71941648589E+02  0.25419464606E+03  0.16934877888E+03 0.  0.
        -24    2    5    5    0    0  0.33029298765E+02 -0.13102547884E+03  0.15017557504E+01  0.16317373103E+03  0.91459283539E+02 0.  0.
          5    1    3    3  501    0 -0.74968505107E+01  0.13417153483E+03 -0.12821050807E+02  0.13507284283E+03  0.47000000000E+01 0. -1.
        -11    1    4    4    0    0 -0.49119986290E+02  0.51223332897E+02 -0.45288392314E+01  0.71113383206E+02  0.00000000000E+00 0.  1.
         12    1    4    4    0    0 -0.23890634459E+02 -0.29578130992E+02 -0.22500070775E+02  0.44180102226E+02  0.00000000000E+00 0. -1.
         -5    1    5    5    0  502  0.47478172495E+02 -0.24791257890E+02 -0.73443404339E+02  0.91020915026E+02  0.47000000000E+01 0.  1.
         13    1    6    6    0    0  0.83412670332E+01 -0.13599518488E+03  0.99438355612E+01  0.13661312862E+03  0.00000000000E+00 0. -1.
        -14    1    6    6    0    0  0.24688031732E+02  0.49697060357E+01 -0.84420798108E+01  0.26560602411E+02  0.00000000000E+00 0.  1.
</event>
<event>
12    1  0.8451514E-002  0.2134816E+03  0.7818608E-02  0.1138937E+00
         21   -1    0    0  501  502  0.00000000000E+00  0.00000000000E+00  0.19347286549E+03  0.19347286549E+03  0.00000000000E+00 0. -1.
         21   -1    0    0  502  503 -0.00000000000E+00 -0.00000000000E+00 -0.47780120236E+03  0.47780120236E+03  0.00000000000E+00 0. -1.
         -6    2    1    2    0  503  0.12425289014E+03 -0.23864324308E+02 -0.38134228872E+03  0.43678294492E+03  0.17131582859E+03 0.  0.
        -24    2    3    3    0    0  0.11350099560E+03  0.36772476803E+02 -0.20948408957E+03  0.25416379066E+03  0.80504395222E+02 0.  0.
          6    2    1    2  501    0 -0.12425289014E+03  0.23864324308E+02  0.97013951852E+02  0.23449112293E+03  0.17194793746E+03 0.  0.
         24    2    5    5    0    0 -0.14237414025E+02  0.14886895819E+02 -0.41995605091E+01  0.84657000344E+02  0.82005169188E+02 0.  0.
          5    1    5    5  501    0 -0.11001547612E+03  0.89774284883E+01  0.10121351236E+03  0.14983412259E+03  0.47000000000E+01 0. -1.
        -13    1    6    6    0    0 -0.91350051144E+01 -0.34080689361E+02 -0.52965858277E+00  0.35287706697E+02  0.00000000000E+00 0.  1.
         14    1    6    6    0    0 -0.51024089102E+01  0.48967585180E+02 -0.36699019263E+01  0.49369293647E+02  0.00000000000E+00 0. -1.
         -5    1    3    3    0  503  0.10751894540E+02 -0.60636801111E+02 -0.17185819916E+03  0.18261915426E+03  0.47000000000E+01 0.  1.
         13    1    4    4    0    0  0.15006523243E+02  0.18376105564E+01 -0.10606186331E+03  0.10713398808E+03  0.00000000000E+00 0. -1.
        -14    1    4    4    0    0  0.98494472358E+02  0.34934866247E+02 -0.10342222626E+03  0.14702980259E+03  0.00000000000E+00 0.  1.
</event>
<event>
12    1  0.8451514E-002  0.1897740E+03  0.7818608E-02  0.1159222E+00
         21   -1    0    0  503  502  0.00000000000E+00  0.00000000000E+00  0.12690883579E+04  0.12690883579E+04  0.00000000000E+00 0.  1.
         21   -1    0    0  501  503 -0.00000000000E+00 -0.00000000000E+00 -0.53567866759E+02  0.53567866759E+02  0.00000000000E+00 0. -1.
          6    2    1    2  501    0 -0.39133630904E+02 -0.65710253137E+02  0.14893260116E+03  0.23931699155E+03  0.17100416463E+03 0.  0.
         24    2    3    3    0    0 -0.62384007039E+02 -0.83368460843E+02  0.16109045807E+03  0.20734363116E+03  0.78734878560E+02 0.  0.
         -6    2    1    2    0  502  0.39133630904E+02  0.65710253137E+02  0.10665878900E+04  0.10833392331E+04  0.17368042062E+03 0.  0.
        -24    2    5    5    0    0  0.13640800727E+02  0.88876225081E+02  0.45519734172E+03  0.47096105000E+03  0.80713294313E+02 0.  0.
          5    1    3    3  501    0  0.23250376135E+02  0.17658207706E+02 -0.12157856914E+02  0.31973360389E+02  0.47000000000E+01 0. -1.
        -13    1    4    4    0    0 -0.48738475791E+02 -0.27541603091E+02  0.13102626054E+03  0.14248459522E+03  0.00000000000E+00 0.  1.
         14    1    4    4    0    0 -0.13645531247E+02 -0.55826857752E+02  0.30064197529E+02  0.64859035936E+02  0.00000000000E+00 0. -1.
         -5    1    5    5    0  502  0.25492830177E+02 -0.23165971944E+02  0.61139054830E+03  0.61237818314E+03  0.47000000000E+01 0.  1.
         13    1    6    6    0    0  0.14661635203E+02  0.45359061455E+02  0.79105019300E+02  0.92358064517E+02  0.00000000000E+00 0. -1.
        -14    1    6    6    0    0 -0.10208344753E+01  0.43517163626E+02  0.37609232242E+03  0.37860298548E+03  0.00000000000E+00 0.  1.
</event>
<event>
12    1  0.8451514E-002  0.2967569E+03  0.7818608E-02  0.1086953E+00
         21   -1    0    0  501  502  0.00000000000E+00  0.00000000000E+00  0.15532546434E+04  0.15532546434E+04  0.00000000000E+00 0. -1.
         21   -1    0    0  502  503 -0.00000000000E+00 -0.00000000000E+00 -0.62692252615E+02  0.62692252615E+02  0.00000000000E+00 0. -1.
         -6    2    1    2    0  503  0.33861788896E+02 -0.23820805176E+03  0.49363863968E+03  0.57597199479E+03  0.17370934206E+03 0.  0.
        -24    2    3    3    0    0  0.90025254280E+02 -0.15515143759E+03  0.33214482334E+03  0.38582710604E+03  0.79786321415E+02 0.  0.
          6    2    1    2  501    0 -0.33861788896E+02  0.23820805176E+03  0.99692375105E+03  0.10399749012E+04  0.17263004661E+03 0.  0.
         24    2    5    5    0    0  0.42931868036E+02  0.67559223654E+02  0.36907123511E+03  0.38481144061E+03  0.73884194853E+02 0.  0.
          5    1    5    5  501    0 -0.76793656932E+02  0.17064882811E+03  0.62785251595E+03  0.65516346057E+03  0.47000000000E+01 0. -1.
        -13    1    6    6    0    0  0.29239895902E+01 -0.10758286032E+02  0.95174685049E+01  0.14658534722E+02  0.00000000000E+00 0.  1.
         14    1    6    6    0    0  0.40007878446E+02  0.78317509686E+02  0.35955376660E+03  0.37015290589E+03  0.00000000000E+00 0. -1.
         -5    1    3    3    0  503 -0.56163465384E+02 -0.83056614174E+02  0.16149381634E+03  0.19014488875E+03  0.47000000000E+01 0.  1.
         11    1    4    4    0    0  0.47894444110E+01 -0.48822051967E+02  0.39407926201E+02  0.62924686598E+02  0.00000000000E+00 0. -1.
        -12    1    4    4    0    0  0.85235809869E+02 -0.10632938562E+03  0.29273689714E+03  0.32290241944E+03  0.00000000000E+00 0.  1.
</event>
<event>
12    1  0.8451514E-002  0.2044838E+03  0.7818608E-02  0.1146218E+00
         21   -1    0    0  503  502  0.00000000000E+00  0.00000000000E+00  0.11593345954E+03  0.11593345954E+03  0.00000000000E+00 0. -1.
         21   -1    0    0  501  503 -0.00000000000E+00 -0.00000000000E+00 -0.37809838069E+03  0.37809838069E+03  0.00000000000E+00 0. -1.
          6    2    1    2  501    0  0.10669071260E+03 -0.21553332886E+02 -0.18707642679E+03  0.27714838305E+03  0.17310743039E+03 0.  0.
         24    2    3    3    0    0  0.54494420598E+01 -0.44342677794E+02 -0.14017839039E+03  0.16317178493E+03  0.70562601791E+02 0.  0.
         -6    2    1    2    0  502 -0.10669071260E+03  0.21553332886E+02 -0.75088494359E+02  0.21688345717E+03  0.17190898085E+03 0.  0.
        -24    2    5    5    0    0 -0.47971362741E+02 -0.45892747260E+02 -0.72225366185E+02  0.12728868457E+03  0.81108013199E+02 0.  0.
          5    1    3    3  501    0  0.10124127054E+03  0.22789344908E+02 -0.46898036398E+02  0.11397659812E+03  0.47000000000E+01 0. -1.
        -13    1    4    4    0    0 -0.99209561867E+01  0.87252429915E+01 -0.81548267029E+02  0.82611591755E+02  0.00000000000E+00 0.  1.
         14    1    4    4    0    0  0.15370398247E+02 -0.53067920785E+02 -0.58630123362E+02  0.80560193173E+02  0.00000000000E+00 0. -1.
         -5    1    5    5    0  502 -0.58719349860E+02  0.67446080146E+02 -0.28631281740E+01  0.89594772604E+02  0.47000000000E+01 0.  1.
         11    1    6    6    0    0 -0.23304155811E+02 -0.42662596801E+02  0.23539121948E+01  0.48669515577E+02  0.00000000000E+00 0. -1.
        -12    1    6    6    0    0 -0.24667206930E+02 -0.32301504582E+01 -0.74579278379E+02  0.78619168994E+02  0.00000000000E+00 0.  1.
</event>
<event>
12    1  0.8451514E-002  0.1831074E+03  0.7818608E-02  0.1165216E+00
         21   -1    0    0  503  502  0.00000000000E+00  0.00000000000E+00  0.76091546261E+02  0.76091546261E+02  0.00000000000E+00 0. -1.
         21   -1    0    0  501  503 -0.00000000000E+00 -0.00000000000E+00 -0.60037247459E+03  0.60037247459E+03  0.00000000000E+00 0. -1.
          6    2    1    2  501    0  0.46396000353E+02 -0.34248743242E+02 -0.43787700681E+03  0.47399435895E+03  0.17207211850E+03 0.  0.
         24    2    3    3    0    0 -0.23058086442E+02 -0.64146430430E+02 -0.24754496825E+03  0.26913802692E+03  0.80686593319E+02 0.  0.
         -6    2    1    2    0  502 -0.46396000353E+02  0.34248743242E+02 -0.86403921518E+02  0.20246966190E+03  0.17378941588E+03 0.  0.
        -24    2    5    5    0    0  0.20082687370E+02 -0.32824405457E+02 -0.54585421652E+02  0.10270629121E+03  0.78027290550E+02 0.  0.
          5    1    3    3  501    0  0.69454086795E+02  0.29897687188E+02 -0.19033203856E+03  0.20485633203E+03  0.47000000000E+01 0. -1.
        -13    1    4    4    0    0 -0.14906618235E+02 -0.43127106772E+02 -0.40933250262E+02  0.61299963970E+02  0.00000000000E+00 0.  1.
         14    1    4    4    0    0 -0.81514682068E+01 -0.21019323659E+02 -0.20661171799E+03  0.20783806295E+03  0.00000000000E+00 0. -1.
         -5    1    5    5    0  502 -0.66478687723E+02  0.67073148699E+02 -0.31818499865E+02  0.99763370690E+02  0.47000000000E+01 0.  1.
         11    1    6    6    0    0 -0.24428716363E+02 -0.24921322210E+02 -0.44209464063E+02  0.56323274023E+02  0.00000000000E+00 0. -1.
        -12    1    6    6    0    0  0.44511403733E+02 -0.79030832465E+01 -0.10375957589E+02  0.46383017183E+02  0.00000000000E+00 0.  1.
</event>
<event>
12    1  0.8451514E-002  0.2118038E+03  0.7818608E-02  0.1140187E+00
         21   -1    0    0  501  502  0.00000000000E+00  0.00000000000E+00  0.22557453673E+03  0.22557453673E+03  0.00000000000E+00 0. -1.
         21   -1    0    0  502  503 -0.00000000000E+00 -0.00000000000E+00 -0.22205006457E+03  0.22205006457E+03  0.00000000000E+00 0.  1.
         -6    2    1    2    0  503  0.41691899445E+02 -0.11625573348E+03 -0.70856773475E+02  0.22334172231E+03  0.17206752317E+03 0.  0.
        -24    2    3    3    0    0  0.90525077232E+02 -0.56151036003E+02 -0.32343352383E+02  0.13672401329E+03  0.79370239476E+02 0.  0.
          6    2    1    2  501    0 -0.41691899445E+02  0.11625573348E+03  0.74381245642E+02  0.22428287899E+03  0.17180404552E+03 0.  0.
         24    2    5    5    0    0  0.13145001864E+02  0.11152331160E+02 -0.46488732283E+01  0.81728816915E+02  0.79754761160E+02 0.  0.
          5    1    5    5  501    0 -0.54836901308E+02  0.10510340232E+03  0.79030118870E+02  0.14255406207E+03  0.47000000000E+01 0. -1.
        -11    1    6    6    0    0  0.16504843077E+02  0.41818251953E+02 -0.17588461432E+02  0.48275563352E+02  0.00000000000E+00 0.  1.
         12    1    6    6    0    0 -0.33598412134E+01 -0.30665920793E+02  0.12939588204E+02  0.33453253563E+02  0.00000000000E+00 0. -1.
         -5    1    3    3    0  503 -0.48833177787E+02 -0.60104697481E+02 -0.38513421092E+02  0.86617709022E+02  0.47000000000E+01 0.  1.
         11    1    4    4    0    0  0.16807046389E+02  0.10782327332E+02 -0.31324254432E+02  0.37147601628E+02  0.00000000000E+00 0. -1.
        -12    1    4    4    0    0  0.73718030842E+02 -0.66933363335E+02 -0.10190979514E+01  0.99576411660E+02  0.00000000000E+00 0.  1.
</event>
<event>
12    1  0.8451514E-002  0.2413874E+03  0.7818608E-02  0.1119012E+00
         21   -1    0    0  503  502  0.00000000000E+00  0.00000000000E+00  0.11409041948E+03  0.11409041948E+03  0.00000000000E+00 0. -1.
         21   -1    0    0  501  503 -0.00000000000E+00 -0.00000000000E+00 -0.52858989564E+03  0.52858989564E+03  0.00000000000E+00 0.  1.
          6    2    1    2  501    0  0.16466524849E+03  0.37579005053E+02 -0.26887606618E+03  0.36076884665E+03  0.17126878310E+03 0.  0.
         24    2    3    3    0    0  0.15213991221E+03  0.67717193553E+02 -0.26587030756E+03  0.32765813781E+03  0.94555082581E+02 0.  0.
         -6    2    1    2    0  502 -0.16466524849E+03 -0.37579005053E+02 -0.14562340998E+03  0.28191146847E+03  0.17245600261E+03 0.  0.
        -24    2    5    5    0    0 -0.16061066396E+03 -0.20189684505E+02 -0.53199663624E+02  0.18766144451E+03  0.78633356849E+02 0.  0.
          5    1    3    3  501    0  0.12525336284E+02 -0.30138188500E+02 -0.30057586272E+01  0.33110708842E+02  0.47000000000E+01 0. -1.
        -13    1    4    4    0    0  0.57557154315E+01 -0.17039473476E+02 -0.51744605007E+02  0.54781165228E+02  0.00000000000E+00 0.  1.
         14    1    4    4    0    0  0.14638419678E+03  0.84756667028E+02 -0.21412570255E+03  0.27287697258E+03  0.00000000000E+00 0. -1.
         -5    1    5    5    0  502 -0.40545845361E+01 -0.17389320549E+02 -0.92423746360E+02  0.94250023958E+02  0.47000000000E+01 0.  1.
         13    1    6    6    0    0 -0.51242467976E+02  0.29787227975E+02 -0.23818818736E+02  0.63878052574E+02  0.00000000000E+00 0. -1.
        -14    1    6    6    0    0 -0.10936819598E+03 -0.49976912480E+02 -0.29380844889E+02  0.12378339194E+03  0.00000000000E+00 0.  1.
</event>
<event>
12    1  0.8451514E-002  0.2344012E+03  0.7818608E-02  0.1123693E+00
         21   -1    0    0  503  502  0.00000000000E+00  0.00000000000E+00  0.41889209735E+03  0.41889209735E+03  0.00000000000E+00 0.  1.
         21   -1    0    0  501  503 -0.00000000000E+00 -0.00000000000E+00 -0.13463644047E+03  0.13463644047E+03  0.00000000000E+00 0.  1.
          6    2    1    2  501    0  0.23512358414E+02 -0.15704700486E+03  0.18907022410E+03  0.30115027244E+03  0.17241619476E+03 0.  0.
         24    2    3    3    0    0 -0.50295285932E+02 -0.59705913015E+02  0.98659502716E+02  0.14910079014E+03  0.80018349829E+02 0.  0.
         -6    2    1    2    0  502 -0.23512358414E+02  0.15704700486E+03  0.95185432781E+02  0.25237826538E+03  0.17151655747E+03 0.  0.
        -24    2    5    5    0    0 -0.25614662908E+02  0.61853374343E+01  0.28000753905E+02  0.87152560779E+02  0.78212257838E+02 0.  0.
          5    1    3    3  501    0  0.73807644347E+02 -0.97341091848E+02  0.90410721380E+02  0.15204948230E+03  0.47000000000E+01 0. -1.
        -13    1    4    4    0    0 -0.44546555486E+02 -0.40168214838E+02  0.11036416995E+03  0.12561103095E+03  0.00000000000E+00 0.  1.
         14    1    4    4    0    0 -0.57487304460E+01 -0.19537698177E+02 -0.11704667232E+02  0.23489759190E+02  0.00000000000E+00 0. -1.
         -5    1    5    5    0  502  0.21023044932E+01  0.15086166743E+03  0.67184678877E+02  0.16522570460E+03  0.47000000000E+01 0.  1.
         13    1    6    6    0    0  0.12894842625E+02 -0.24703773970E+02 -0.42436679733E+01  0.28187978512E+02  0.00000000000E+00 0. -1.
        -14    1    6    6    0    0 -0.38509505532E+02  0.30889111405E+02  0.32244421878E+02  0.58964582267E+02  0.00000000000E+00 0.  1.
</event>
<event>
12    1  0.8451514E-002  0.2360460E+03  0.7818608E-02  0.1122515E+00
         21   -1    0    0  501  502  0.00000000000E+00  0.00000000000E+00  0.49417851300E+03  0.49417851300E+03  0.00000000000E+00 0.  1.
         21   -1    0    0  502  503 -0.00000000000E+00 -0.00000000000E+00 -0.11383232111E+03  0.11383232111E+03  0.00000000000E+00 0.  1.
         -6    2    1    2    0  503  0.15890661871E+03  0.24356178917E+02  0.15844730585E+03  0.28429431118E+03  0.17283856548E+03 0.  0.
        -24    2    3    3    0    0  0.46777884150E+02 -0.44807582331E+02  0.88891720024E+02  0.13524214413E+03  0.78694407547E+02 0.  0.
          6    2    1    2  501    0 -0.15890661871E+03 -0.24356178917E+02  0.22189888604E+03  0.32371652293E+03  0.17236221939E+03 0.  0.
         24    2    5    5    0    0 -0.17956772353E+02 -0.14330354778E+01  0.34931293532E+02  0.88405451494E+02  0.79188568127E+02 0.  0.
          5    1    5    5  501    0 -0.14094984636E+03 -0.22923143439E+02  0.18696759251E+03  0.23531107144E+03  0.47000000000E+01 0. -1.
        -13    1    6    6    0    0 -0.40608264142E+02 -0.20202764414E+02  0.37089406610E+01  0.45507571320E+02  0.00000000000E+00 0.  1.
         14    1    6    6    0    0  0.22651491789E+02  0.18769728936E+02  0.31222352871E+02  0.42897880174E+02  0.00000000000E+00 0. -1.
         -5    1    3    3    0  503  0.11212873456E+03  0.69163761247E+02  0.69555585827E+02  0.14905216706E+03  0.47000000000E+01 0.  1.
         11    1    4    4    0    0 -0.55196940712E+01  0.13875135631E+02  0.39941902806E+02  0.42642021660E+02  0.00000000000E+00 0. -1.
        -12    1    4    4    0    0  0.52297578221E+02 -0.58682717962E+02  0.48949817218E+02  0.92600122466E+02  0.00000000000E+00 0.  1.
</event>
<event>
12    1  0.8451514E-002  0.1923035E+03  0.7818608E-02  0.1156544E+00
         21   -1    0    0  503  502  0.00000000000E+00  0.00000000000E+00  0.10696028389E+03  0.10696028389E+03  0.00000000000E+00 0.  1.
         21   -1    0    0  501  503 -0.00000000000E+00 -0.00000000000E+00 -0.52625375326E+03  0.52625375326E+03  0.00000000000E+00 0.  1.
          6    2    1    2  501    0 -0.17453712683E+02 -0.85765089770E+02 -0.39543878952E+03  0.43943665125E+03  0.17050645589E+03 0.  0.
         24    2    3    3    0    0  0.31257916599E+02 -0.99990419231E+02 -0.31035458546E+03  0.34025704344E+03  0.92085534191E+02 0.  0.
         -6    2    1    2    0  502  0.17453712683E+02  0.85765089770E+02 -0.23854679853E+02  0.19377738591E+03  0.17123185109E+03 0.  0.
        -24    2    5    5    0    0  0.28449403303E+02  0.12642817373E+03 -0.11394519515E+02  0.14959891598E+03  0.73868456906E+02 0.  0.
          5    1    3    3  501    0 -0.48711629282E+02  0.14225329460E+02 -0.85084204052E+02  0.99179607807E+02  0.47000000000E+01 0. -1.
        -11    1    4    4    0    0  0.88762447957E+01 -0.11293771906E+03 -0.26143278958E+03  0.28492247994E+03  0.00000000000E+00 0.  1.
         12    1    4    4    0    0  0.22381671804E+02  0.12947299830E+02 -0.48921795883E+02  0.55334563502E+02  0.00000000000E+00 0. -1.
         -5    1    5    5    0  502 -0.10995690620E+02 -0.40663083962E+02 -0.12460160338E+02  0.44178469928E+02  0.47000000000E+01 0.  1.
         13    1    6    6    0    0  0.13655579438E+02  0.55419591454E+02 -0.42008444212E+02  0.70869706870E+02  0.00000000000E+00 0. -1.
        -14    1    6    6    0    0  0.14793823864E+02  0.71008582279E+02  0.30613924696E+02  0.78729209110E+02  0.00000000000E+00 0.  1.
</event>
<event>
12    1  0.8451514E-002  0.2647899E+03  0.7818608E-02  0.1104338E+00
         21   -1    0    0  501  502  0.00000000000E+00  0.00000000000E+00  0.41377568979E+03  0.41377568979E+03  0.00000000000E+00 0.  1.
         21   -1    0    0  502  503 -0.00000000000E+00 -0.00000000000E+00 -0.22502653678E+03  0.22502653678E+03  0.00000000000E+00 0.  1.
         -6    2    1    2    0  503 -0.17367429885E+03 -0.10105765198E+03 -0.64567744444E+02  0.27254851775E+03  0.17244793359E+03 0.  0.
        -24    2    3    3    0    0 -0.11326517869E+03 -0.49900819495E+01 -0.73766932742E+02  0.15859697157E+03  0.82810249394E+02 0.  0.
          6    2    1    2  501    0  0.17367429885E+03  0.10105765198E+03  0.25331689745E+03  0.36625370883E+03  0.17203754705E+03 0.  0.
         24    2    5    5    0    0  0.14070161161E+03  0.13743294684E+03  0.23346624132E+03  0.31308888279E+03  0.69522689102E+02 0.  0.
          5    1    5    5  501    0  0.32972687239E+02 -0.36375294857E+02  0.19850656127E+02  0.53164826045E+02  0.47000000000E+01 0. -1.
        -11    1    6    6    0    0  0.96544921129E+02  0.12102975171E+03  0.14140855220E+03  0.20967952029E+03  0.00000000000E+00 0.  1.
         12    1    6    6    0    0  0.44156690479E+02  0.16403195128E+02  0.92057689121E+02  0.10340936249E+03  0.00000000000E+00 0. -1.
         -5    1    3    3    0  503 -0.60409120162E+02 -0.96067570030E+02  0.91991882982E+01  0.11395154617E+03  0.47000000000E+01 0.  1.
         13    1    4    4    0    0 -0.31977357650E+02 -0.16534130043E+02  0.13805758005E+02  0.38555515983E+02  0.00000000000E+00 0. -1.
        -14    1    4    4    0    0 -0.81287821036E+02  0.11544048094E+02 -0.87572690747E+02  0.12004145559E+03  0.00000000000E+00 0.  1.
</event>
<event>
12    1  0.8451514E-002  0.1954898E+03  0.7818608E-02  0.1153981E+00
         21   -1    0    0  501  502  0.00000000000E+00  0.00000000000E+00  0.31933681537E+03  0.31933681537E+03  0.00000000000E+00 0.  1.
         21   -1    0    0  502  503 -0.00000000000E+00 -0.00000000000E+00 -0.20100969196E+03  0.20100969196E+03  0.00000000000E+00 0.  1.
         -6    2    1    2    0  503 -0.11820863659E+02  0.91007005715E+02 -0.10725697203E+03  0.22298056054E+03  0.17261015157E+03 0.  0.
        -24    2    3    3    0    0  0.39971643290E+02  0.10078179913E+03 -0.47647257379E+02  0.14327222696E+03  0.80634772767E+02 0.  0.
          6    2    1    2  501    0  0.11820863659E+02 -0.91007005715E+02  0.22558409544E+03  0.29736594679E+03  0.17063503241E+03 0.  0.
         24    2    5    5    0    0 -0.11922586202E+02 -0.89868831657E+02  0.24024148175E+03  0.26904676910E+03  0.80322098111E+02 0.  0.
          5    1    5    5  501    0  0.23743449861E+02 -0.11381740580E+01 -0.14657386310E+02  0.28319177688E+02  0.47000000000E+01 0. -1.
        -11    1    6    6    0    0 -0.33286254487E+01 -0.50429632242E+01  0.12776437320E+03  0.12790717840E+03  0.00000000000E+00 0.  1.
         12    1    6    6    0    0 -0.85939607536E+01 -0.84825868433E+02  0.11247710854E+03  0.14113959070E+03  0.00000000000E+00 0. -1.
         -5    1    3    3    0  503 -0.51792506949E+02 -0.97747934139E+01 -0.59609714646E+02  0.79708333583E+02  0.47000000000E+01 0.  1.
         11    1    4    4    0    0  0.43776575118E+02  0.75598138151E+02 -0.67971919232E+02  0.11068716649E+03  0.00000000000E+00 0. -1.
        -12    1    4    4    0    0 -0.38049318278E+01  0.25183660978E+02  0.20324661854E+02  0.32585060472E+02  0.00000000000E+00 0.  1.
</event>
<event>
12    1  0.8451514E-002  0.1766714E+03  0.7818608E-02  0.1171198E+00
         21   -1    0    0  501  502  0.00000000000E+00  0.00000000000E+00  0.24732353891E+03  0.24732353891E+03  0.00000000000E+00 0. -1.
         21   -1    0    0  502  503 -0.00000000000E+00 -0.00000000000E+00 -0.13439063632E+03  0.13439063632E+03  0.00000000000E+00 0. -1.
         -6    2    1    2    0  503  0.35084674013E+02 -0.12159753395E+02  0.83394367491E+01  0.17686810439E+03  0.17272517532E+03 0.  0.
        -24    2    3    3    0    0  0.60151638814E+02  0.27725784245E+02  0.49088942958E+02  0.11440354569E+03  0.79319027863E+02 0.  0.
          6    2    1    2  501    0 -0.35084674013E+02  0.12159753395E+02  0.10459346584E+03  0.20484607084E+03  0.17217237202E+03 0.  0.
         24    2    5    5    0    0  0.23646091297E+02  0.31730201158E+02  0.91739397633E+02  0.14144557960E+03  0.10012388132E+03 0.  0.
          5    1    5    5  501    0 -0.58730765310E+02 -0.19570447763E+02  0.12854068209E+02  0.63400491237E+02  0.47000000000E+01 0. -1.
        -13    1    6    6    0    0  0.29672435644E+02 -0.30433429676E+02  0.53051222808E+02  0.67978521022E+02  0.00000000000E+00 0.  1.
         14    1    6    6    0    0 -0.60263443469E+01  0.62163630834E+02  0.38688174824E+02  0.73467058577E+02  0.00000000000E+00 0. -1.
         -5    1    3    3    0  503 -0.25066964801E+02 -0.39885537640E+02 -0.40749506209E+02  0.62464558698E+02  0.47000000000E+01 0.  1.
         13    1    4    4    0    0  0.41762584447E+02 -0.11633606081E+02 -0.65162923035E+01  0.43839666006E+02  0.00000000000E+00 0. -1.
        -14    1    4    4    0    0  0.18389054367E+02  0.39359390325E+02  0.55605235261E+02  0.70563879682E+02  0.00000000000E+00 0.  1.
</event>
<event>
12    1  0.8451514E-002  0.1819957E+03  0.7818608E-02  0.1166016E+00
         21   -1    0    0  501  502  0.00000000000E+00  0.00000000000E+00  0.19098196709E+03  0.19098196709E+03  0.00000000000E+00 0. -1.
         21   -1    0    0  502  503 -0.00000000000E+00 -0.00000000000E+00 -0.72742499531E+03  0.72742499531E+03  0.00000000000E+00 0. -1.
         -6    2    1    2    0  503  0.58377257201E+02 -0.88657238364E+01 -0.66924529062E+03  0.69355007107E+03  0.17215091301E+03 0.  0.
        -24    2    3    3    0    0  0.64222220034E+02  0.51397714080E+02 -0.51802032124E+03  0.53058710932E+03  0.80071273233E+02 0.  0.
          6    2    1    2  501    0 -0.58377257201E+02  0.88657238364E+01  0.13280226239E+03  0.22485689133E+03  0.17157411071E+03 0.  0.
         24    2    5    5    0    0 -0.10608099208E+03 -0.79605760233E+00  0.96599751033E+02  0.16401522657E+03  0.79471202691E+02 0.  0.
          5    1    5    5  501    0  0.47703734883E+02  0.96617814388E+01  0.36202511356E+02  0.60841664761E+02  0.47000000000E+01 0. -1.
        -11    1    6    6    0    0  0.13195762722E+02 -0.15615547840E+00  0.80152542928E+01  0.15440104913E+02  0.00000000000E+00 0.  1.
         12    1    6    6    0    0 -0.11927675481E+03 -0.63990212393E+00  0.88584496740E+02  0.14857512165E+03  0.00000000000E+00 0. -1.
         -5    1    3    3    0  503 -0.58449628331E+01 -0.60263437917E+02 -0.15122496937E+03  0.16296296175E+03  0.47000000000E+01 0.  1.
         11    1    4    4    0    0  0.40427129965E+02 -0.12715227153E+02 -0.13454114548E+03  0.14105796562E+03  0.00000000000E+00 0. -1.
        -12    1    4    4    0    0  0.23795090069E+02  0.64112941234E+02 -0.38347917576E+03  0.38952914370E+03  0.00000000000E+00 0.  1.
</event>
<event>
12    1  0.8451514E-002  0.2059842E+03  0.7818608E-02  0.1145033E+00
         21   -1    0    0  501  502  0.00000000000E+00  0.00000000000E+00  0.18081701296E+03  0.18081701296E+03  0.00000000000E+00 0. -1.
         21   -1    0    0  502  503 -0.00000000000E+00 -0.00000000000E+00 -0.36717569250E+03  0.36717569250E+03  0.00000000000E+00 0.  1.
         -6    2    1    2    0  503  0.11283192950E+03  0.86815948042E+00 -0.25846758880E+03  0.32975158941E+03  0.17087661701E+03 0.  0.
        -24    2    3    3    0    0  0.14057904865E+03  0.19902314377E+02 -0.24232502201E+03  0.29213677668E+03  0.80398438792E+02 0.  0.
          6    2    1    2  501    0 -0.11283192950E+03 -0.86815948042E+00  0.72108909259E+02  0.21824111605E+03  0.17233018285E+03 0.  0.
         24    2    5    5    0    0 -0.91927642018E+02  0.64740601913E+02  0.33417572522E+02  0.13911710992E+03  0.74798390467E+02 0.  0.
          5    1    5    5  501    0 -0.20904287484E+02 -0.65608761394E+02  0.38691336737E+02  0.79124006125E+02  0.47000000000E+01 0. -1.
        -13    1    6    6    0    0 -0.24847278192E+02  0.44755286219E+02  0.45016669343E+02  0.68168346003E+02  0.00000000000E+00 0.  1.
         14    1    6    6    0    0 -0.67080363827E+02  0.19985315694E+02 -0.11599096820E+02  0.70948763918E+02  0.00000000000E+00 0. -1.
         -5    1    3    3    0  503 -0.27747119150E+02 -0.19034154897E+02 -0.16142566790E+02  0.37614812725E+02  0.47000000000E+01 0.  1.
         13    1    4    4    0    0  0.13487000803E+03  0.32662630726E+02 -0.17482889199E+03  0.22320821666E+03  0.00000000000E+00 0. -1.
        -14    1    4    4    0    0  0.57090406210E+01 -0.12760316348E+02 -0.67496130026E+02  0.68928560021E+02  0.00000000000E+00 0.  1.
</event>
<event>
12    1  0.8451514E-002  0.1890911E+03  0.7818608E-02  0.1159397E+00
         21   -1    0    0  503  502  0.00000000000E+00  0.00000000000E+00  0.53977124383E+02  0.53977124383E+02  0.00000000000E+00 0.  1.
         21   -1    0    0  501  503 -0.00000000000E+00 -0.00000000000E+00 -0.10906635541E+04  0.10906635541E+04  0.00000000000E+00 0. -1.
          6    2    1    2  501    0  0.43020310406E+00 -0.78395258567E+02 -0.87811491353E+03  0.89824341552E+03  0.17207391005E+03 0.  0.
         24    2    3    3    0    0  0.14322569118E+02 -0.72075818599E+02 -0.27188367587E+03  0.29180187945E+03  0.76338352312E+02 0.  0.
         -6    2    1    2    0  502 -0.43020310406E+00  0.78395258567E+02 -0.15857151623E+03  0.24639726300E+03  0.17152458662E+03 0.  0.
        -24    2    5    5    0    0  0.25205287375E+02 -0.17614263893E+02 -0.44963215962E+02  0.95387519397E+02  0.78304018178E+02 0.  0.
          5    1    3    3  501    0 -0.13892366014E+02 -0.63194399676E+01 -0.60623123765E+03  0.60644153606E+03  0.47000000000E+01 0. -1.
        -11    1    4    4    0    0 -0.79827418426E+00  0.15738853930E+02 -0.27718318504E+02  0.31885011297E+02  0.00000000000E+00 0.  1.
         12    1    4    4    0    0  0.15120843303E+02 -0.87814672529E+02 -0.24416535737E+03  0.25991686816E+03  0.00000000000E+00 0. -1.
         -5    1    5    5    0  502 -0.25635490479E+02  0.96009522460E+02 -0.11360830026E+03  0.15100974361E+03  0.47000000000E+01 0.  1.
         11    1    6    6    0    0  0.23040205344E+02  0.26265214229E+02 -0.36723701756E+02  0.50688685242E+02  0.00000000000E+00 0. -1.
        -12    1    6    6    0    0  0.21650820301E+01 -0.43879478122E+02 -0.82395142059E+01  0.44698834155E+02  0.00000000000E+00 0.  1.
</event>
<event>
12    1  0.8451514E-002  0.1867272E+03  0.7818608E-02  0.1164485E+00
         21   -1    0    0  503  502  0.00000000000E+00  0.00000000000E+00  0.46603442912E+03  0.46603442912E+03  0.00000000000E+00 0.  1.
         21   -1    0    0  501  503 -0.00000000000E+00 -0.00000000000E+00 -0.93001746263E+02  0.93001746263E+02  0.00000000000E+00 0.  1.
          6    2    1    2  501    0  0.19858184656E+02  0.65111204958E+02  0.42106165827E+02  0.17906326163E+03  0.16017773240E+03 0.  0.
         24    2    3    3    0    0  0.46529769614E+02  0.51605396540E+02  0.78790994402E+02  0.13150648553E+03  0.79106248339E+02 0.  0.
         -6    2    1    2    0  502 -0.19858184656E+02 -0.65111204958E+02  0.33092651703E+03  0.37997291375E+03  0.17387708015E+03 0.  0.
        -24    2    5    5    0    0  0.55422112300E+02 -0.32263640306E+02  0.21409877704E+03  0.23708520803E+03  0.79111039194E+02 0.  0.
          5    1    3    3  501    0 -0.26671584958E+02  0.13505808418E+02 -0.36684828575E+02  0.47556776097E+02  0.47000000000E+01 0. -1.
        -11    1    4    4    0    0  0.44296489512E+02  0.49375809309E+02  0.15478753610E+02  0.68115646817E+02  0.00000000000E+00 0.  1.
         12    1    4    4    0    0  0.22332801024E+01  0.22295872316E+01  0.63312240792E+02  0.63390838717E+02  0.00000000000E+00 0. -1.
         -5    1    5    5    0  502 -0.75280296956E+02 -0.32847564652E+02  0.11682774000E+03  0.14288770572E+03  0.47000000000E+01 0.  1.
         11    1    6    6    0    0  0.48708446368E+02 -0.52810427994E+02  0.11453901814E+03  0.13520591972E+03  0.00000000000E+00 0. -1.
        -12    1    6    6    0    0  0.67136659315E+01  0.20546787688E+02  0.99559758899E+02  0.10187928831E+03  0.00000000000E+00 0.  1.
</event>
<event>
12    1  0.8451514E-002  0.1860900E+03  0.7818608E-02  0.1162091E+00
         21   -1    0    0  501  502  0.00000000000E+00  0.00000000000E+00  0.22621841400E+03  0.22621841400E+03  0.00000000000E+00 0.  1.
         21   -1    0    0  502  503 -0.00000000000E+00 -0.00000000000E+00 -0.15677771299E+03  0.15677771299E+03  0.00000000000E+00 0.  1.
         -6    2    1    2    0  503  0.36505334612E+02 -0.60033719767E+02  0.45172237659E+01  0.18590590638E+03  0.17205787908E+03 0.  0.
        -24    2    3    3    0    0 -0.21178324305E+02  0.11788147033E+02  0.32942577053E+02  0.89387121859E+02  0.79481836545E+02 0.  0.
          6    2    1    2  501    0 -0.36505334612E+02  0.60033719767E+02  0.64923477250E+02  0.19709022060E+03  0.17231601839E+03 0.  0.
         24    2    5    5    0    0  0.36758179353E+02  0.34909719405E+02  0.78555773025E+02  0.11830768852E+03  0.72497223603E+02 0.  0.
          5    1    5    5  501    0 -0.73263513965E+02  0.25124000362E+02 -0.13632295775E+02  0.78782532079E+02  0.47000000000E+01 0. -1.
        -13    1    6    6    0    0  0.28340931177E+00  0.27645895828E+02 -0.38347793828E+01  0.27912029842E+02  0.00000000000E+00 0.  1.
         14    1    6    6    0    0  0.36474770041E+02  0.72638235765E+01  0.82390552408E+02  0.90395658682E+02  0.00000000000E+00 0. -1.
         -5    1    3    3    0  503  0.57683658918E+02 -0.71821866800E+02 -0.28425353287E+02  0.96518784525E+02  0.47000000000E+01 0.  1.
         11    1    4    4    0    0  0.12626507694E+01  0.56697754523E+01  0.56196994881E+02  0.56496397002E+02  0.00000000000E+00 0. -1.
        -12    1    4    4    0    0 -0.22440975075E+02  0.61183715802E+01 -0.23254417828E+02  0.32890724857E+02  0.00000000000E+00 0.  1.
</event>
<event>
12    1  0.8451514E-002  0.1792330E+03  0.7818608E-02  0.1169385E+00
         21   -1    0    0  501  502  0.00000000000E+00  0.00000000000E+00  0.33988691540E+02  0.33988691540E+02  0.00000000000E+00 0.  1.
         21   -1    0    0  502  503 -0.00000000000E+00 -0.00000000000E+00 -0.10066920488E+04  0.10066920488E+04  0.00000000000E+00 0.  1.
         -6    2    1    2    0  503 -0.47873913836E+02  0.14163415491E+02 -0.63680345338E+03  0.66154599467E+03  0.17213933561E+03 0.  0.
        -24    2    3    3    0    0 -0.44642214902E+02 -0.34575712436E+02 -0.57183109140E+03  0.58012459521E+03  0.79783091157E+02 0.  0.
          6    2    1    2  501    0  0.47873913836E+02 -0.14163415491E+02 -0.33589990386E+03  0.37913474565E+03  0.16858794731E+03 0.  0.
         24    2    5    5    0    0 -0.29661307285E+02 -0.27740014396E+02 -0.23180558461E+03  0.24854473128E+03  0.79945936996E+02 0.  0.
          5    1    5    5  501    0  0.77535221121E+02  0.13576598905E+02 -0.10409431925E+03  0.13059001437E+03  0.47000000000E+01 0. -1.
        -11    1    6    6    0    0  0.15588430366E+02 -0.24156069492E+02 -0.29432265041E+02  0.41143323638E+02  0.00000000000E+00 0.  1.
         12    1    6    6    0    0 -0.45249737651E+02 -0.35839449042E+01 -0.20237331957E+03  0.20740140764E+03  0.00000000000E+00 0. -1.
         -5    1    3    3    0  503 -0.32316989346E+01  0.48739127927E+02 -0.64972361982E+02  0.81421399464E+02  0.47000000000E+01 0.  1.
         11    1    4    4    0    0  0.14977179025E+01  0.18655445003E+02 -0.47036640660E+02  0.50623259000E+02  0.00000000000E+00 0. -1.
        -12    1    4    4    0    0 -0.46139932804E+02 -0.53231157439E+02 -0.52479445074E+03  0.52950133621E+03  0.00000000000E+00 0.  1.
</event>
<event>
12    1  0.8451514E-002  0.2516474E+03  0.7818608E-02  0.1112649E+00
         21   -1    0    0  501  502  0.00000000000E+00  0.00000000000E+00  0.17720806489E+03  0.17720806489E+03  0.00000000000E+00 0. -1.
         21   -1    0    0  502  503 -0.00000000000E+00 -0.00000000000E+00 -0.35685081618E+03  0.35685081618E+03  0.00000000000E+00 0. -1.
         -6    2    1    2    0  503 -0.50202544392E+01  0.18368834206E+03 -0.11440380969E+03  0.27643195756E+03  0.17192959467E+03 0.  0.
        -24    2    3    3    0    0 -0.18526586033E+02  0.20072553783E+03 -0.12564124611E+03  0.25151094213E+03  0.82692535113E+02 0.  0.
          6    2    1    2  501    0  0.50202544392E+01 -0.18368834206E+03 -0.65238941607E+02  0.25762692351E+03  0.16837132253E+03 0.  0.
         24    2    5    5    0    0 -0.26975907815E+02 -0.31136509425E+02 -0.54503391098E+02  0.10131582958E+03  0.74813741127E+02 0.  0.
          5    1    5    5  501    0  0.31996162255E+02 -0.15255183264E+03 -0.10735550509E+02  0.15631109393E+03  0.47000000000E+01 0. -1.
        -13    1    6    6    0    0 -0.23826660629E+02 -0.43777562613E+02 -0.66837862025E+02  0.83375563237E+02  0.00000000000E+00 0.  1.
         14    1    6    6    0    0 -0.31492471864E+01  0.12641053188E+02  0.12334470927E+02  0.17940266346E+02  0.00000000000E+00 0. -1.
         -5    1    3    3    0  503  0.13506331594E+02 -0.17037195767E+02  0.11237436414E+02  0.24921015426E+02  0.47000000000E+01 0.  1.
         11    1    4    4    0    0 -0.36750960329E+01  0.14873014049E+02 -0.46510204536E+02  0.48968479696E+02  0.00000000000E+00 0. -1.
        -12    1    4    4    0    0 -0.14851490000E+02  0.18585252378E+03 -0.79131041569E+02  0.20254246244E+03  0.00000000000E+00 0.  1.
</event>
<event>
12    1  0.8451514E-002  0.2793485E+03  0.7818608E-02  0.1096085E+00
         21   -1    0    0  501  502  0.00000000000E+00  0.00000000000E+00  0.29342183387E+03  0.29342183387E+03  0.00000000000E+00 0.  1.
         21   -1    0    0  502  503 -0.00000000000E+00 -0.00000000000E+00 -0.27003469563E+03  0.27003469563E+03  0.00000000000E+00 0.  1.
         -6    2    1    2    0  503 -0.21653265094E+03 -0.30409550563E+02 -0.24107709149E+02  0.28009922612E+03  0.17338761531E+03 0.  0.
        -24    2    3    3    0    0 -0.53770527780E+02 -0.60633362918E+02 -0.39974618849E+01  0.11327147179E+03  0.79036524875E+02 0.  0.
          6    2    1    2  501    0  0.21653265094E+03  0.30409550563E+02  0.47494847394E+02  0.28335730338E+03  0.17385186557E+03 0.  0.
         24    2    5    5    0    0  0.48949193680E+02  0.50662617581E+01 -0.14968095770E+02  0.10266362141E+03  0.88848661784E+02 0.  0.
          5    1    5    5  501    0  0.16758345726E+03  0.25343288804E+02  0.62462943164E+02  0.18069368197E+03  0.47000000000E+01 0. -1.
        -13    1    6    6    0    0  0.54130395413E+02  0.35975673434E+02 -0.25178712866E+02  0.69701623856E+02  0.00000000000E+00 0.  1.
         14    1    6    6    0    0 -0.51812017327E+01 -0.30909411676E+02  0.10210617096E+02  0.32961997558E+02  0.00000000000E+00 0. -1.
         -5    1    3    3    0  503 -0.16276212316E+03  0.30223812355E+02 -0.20110247264E+02  0.16682775433E+03  0.47000000000E+01 0.  1.
         11    1    4    4    0    0 -0.29956397068E+02 -0.38596293282E+02  0.36784647111E+02  0.61156928010E+02  0.00000000000E+00 0. -1.
        -12    1    4    4    0    0 -0.23814130712E+02 -0.22037069635E+02 -0.40782108996E+02  0.52114543784E+02  0.00000000000E+00 0.  1.
</event>
<event>
12    1  0.8451514E-002  0.2427233E+03  0.7818608E-02  0.1118007E+00
         21   -1    0    0  503  502  0.00000000000E+00  0.00000000000E+00  0.11327805153E+04  0.11327805153E+04  0.00000000000E+00 0.  1.
         21   -1    0    0  501  503 -0.00000000000E+00 -0.00000000000E+00 -0.68323137912E+02  0.68323137912E+02  0.00000000000E+00 0.  1.
          6    2    1    2  501    0 -0.16134361805E+03 -0.55831635421E+02  0.23866892834E+03  0.34040778009E+03  0.17252728709E+03 0.  0.
         24    2    3    3    0    0 -0.14200012156E+03  0.12401709242E+02  0.20414270582E+03  0.26138809759E+03  0.79571705451E+02 0.  0.
         -6    2    1    2    0  502  0.16134361805E+03  0.55831635421E+02  0.82578844903E+03  0.86069587310E+03  0.17240037364E+03 0.  0.
        -24    2    5    5    0    0  0.53707395015E+02 -0.16870883886E+02  0.22592979778E+03  0.24691765233E+03  0.82188457243E+02 0.  0.
          5    1    3    3  501    0 -0.19343496486E+02 -0.68233344663E+02  0.34526222525E+02  0.79019682497E+02  0.47000000000E+01 0. -1.
        -13    1    4    4    0    0 -0.87024227825E+02  0.13579572976E+01  0.18078293413E+03  0.20064279092E+03  0.00000000000E+00 0.  1.
         14    1    4    4    0    0 -0.54975893738E+02  0.11043751944E+02  0.23359771691E+02  0.60745306673E+02  0.00000000000E+00 0. -1.
         -5    1    5    5    0  502  0.10763622303E+03  0.72702519307E+02  0.59985865125E+03  0.61377822078E+03  0.47000000000E+01 0.  1.
         13    1    6    6    0    0  0.25649951345E+02 -0.86451256328E+01  0.97508757549E+01  0.28770432378E+02  0.00000000000E+00 0. -1.
        -14    1    6    6    0    0  0.28057443670E+02 -0.82257582536E+01  0.21617892203E+03  0.21814721995E+03  0.00000000000E+00 0.  1.
</event>
<event>
12    1  0.8451514E-002  0.1740783E+03  0.7818608E-02  0.1173788E+00
         21   -1    0    0  503  502  0.00000000000E+00  0.00000000000E+00  0.36110109815E+02  0.36110109815E+02  0.00000000000E+00 0. -1.
         21   -1    0    0  501  503 -0.00000000000E+00 -0.00000000000E+00 -0.10973375001E+04  0.10973375001E+04  0.00000000000E+00 0. -1.
          6    2    1    2  501    0 -0.11726353342E+02 -0.28165056581E+02 -0.80619205264E+03  0.82466568206E+03  0.17087154137E+03 0.  0.
         24    2    3    3    0    0  0.50870242795E+02  0.32847429827E+01 -0.58531827952E+03  0.59290128145E+03  0.79598178725E+02 0.  0.
         -6    2    1    2    0  502  0.11726353342E+02  0.28165056581E+02 -0.25503533766E+03  0.30878192788E+03  0.17138400670E+03 0.  0.
        -24    2    5    5    0    0  0.15524907278E+02  0.71625413837E+02 -0.92556042465E+02  0.14048206741E+03  0.76140446636E+02 0.  0.
          5    1    3    3  501    0 -0.62596596137E+02 -0.31449799564E+02 -0.22087377312E+03  0.23176440061E+03  0.47000000000E+01 0. -1.
        -13    1    4    4    0    0 -0.15667426146E+02  0.20126174745E+02 -0.13600516282E+03  0.13837606536E+03  0.00000000000E+00 0.  1.
         14    1    4    4    0    0  0.66537668940E+02 -0.16841431762E+02 -0.44931311671E+03  0.45452521609E+03  0.00000000000E+00 0. -1.
         -5    1    5    5    0  502 -0.37985539352E+01 -0.43460357256E+02 -0.16247929520E+03  0.16829986047E+03  0.47000000000E+01 0.  1.
         11    1    6    6    0    0 -0.21078445995E+02  0.63992358741E+02 -0.68144358061E+02  0.95827847718E+02  0.00000000000E+00 0. -1.
        -12    1    6    6    0    0  0.36603353272E+02  0.76330550954E+01 -0.24411684404E+02  0.44654219692E+02  0.00000000000E+00 0.  1.
</event>
<event>
12    1  0.8451514E-002  0.1775765E+03  0.7818608E-02  0.1170592E+00
         21   -1    0    0  503  502  0.00000000000E+00  0.00000000000E+00  0.10691555523E+03  0.10691555523E+03  0.00000000000E+00 0.  1.
         21   -1    0    0  501  503 -0.00000000000E+00 -0.00000000000E+00 -0.50450416072E+03  0.50450416072E+03  0.00000000000E+00 0.  1.
          6    2    1    2  501    0  0.26228168018E+02  0.34743532584E+02 -0.39659478817E+03  0.43384047369E+03  0.17039689185E+03 0.  0.
         24    2    3    3    0    0 -0.46526737138E+02  0.44342214342E+02 -0.24494406372E+03  0.26530132945E+03  0.79096345123E+02 0.  0.
         -6    2    1    2    0  502 -0.26228168018E+02 -0.34743532584E+02 -0.99381731628E+00  0.17757924226E+03  0.17215797906E+03 0.  0.
        -24    2    5    5    0    0 -0.49639573756E+02 -0.55734404335E+02 -0.43611106642E+02  0.12440938271E+03  0.89472648186E+02 0.  0.
          5    1    3    3  501    0  0.72754905156E+02 -0.95986817574E+01 -0.15165072445E+03  0.16853914424E+03  0.47000000000E+01 0. -1.
        -11    1    4    4    0    0 -0.53105561764E+01  0.15146909347E+02 -0.18997000406E+03  0.19064688120E+03  0.00000000000E+00 0.  1.
         12    1    4    4    0    0 -0.41216180961E+02  0.29195304994E+02 -0.54974059659E+02  0.74654448241E+02  0.00000000000E+00 0. -1.
         -5    1    5    5    0  502  0.23411405738E+02  0.20990871750E+02  0.42617289326E+02  0.53169859553E+02  0.47000000000E+01 0.  1.
         13    1    6    6    0    0  0.23077621839E+02 -0.19627741940E+02 -0.28958780408E+02  0.41909853807E+02  0.00000000000E+00 0. -1.
        -14    1    6    6    0    0 -0.72717195595E+02 -0.36106662394E+02 -0.14652326233E+02  0.82499528899E+02  0.00000000000E+00 0.  1.
</event>
<event>
12    1  0.8451514E-002  0.2306510E+03  0.7818608E-02  0.1126306E+00
         21   -1    0    0  501  502  0.00000000000E+00  0.00000000000E+00  0.55822396596E+03  0.55822396596E+03  0.00000000000E+00 0. -1.
         21   -1    0    0  502  503 -0.00000000000E+00 -0.00000000000E+00 -0.10338191486E+03  0.10338191486E+03  0.00000000000E+00 0.  1.
         -6    2    1    2    0  503  0.92784643247E+02  0.12326703632E+03  0.13297585795E+03  0.26562896993E+03  0.17050635943E+03 0.  0.
        -24    2    3    3    0    0  0.54029489484E+00  0.10472649150E+03  0.46541294053E+02  0.13777829359E+03  0.76477684277E+02 0.  0.
          6    2    1    2  501    0 -0.92784643247E+02 -0.12326703632E+03  0.32186619315E+03  0.39597691088E+03  0.17145295388E+03 0.  0.
         24    2    5    5    0    0 -0.93674729891E+02 -0.32092414971E+02  0.12243636964E+03  0.17664166899E+03  0.80042092008E+02 0.  0.
          5    1    5    5  501    0  0.89008664443E+00 -0.91174621348E+02  0.19942982351E+03  0.21933524190E+03  0.47000000000E+01 0. -1.
        -11    1    6    6    0    0 -0.45075461510E+01  0.15351840759E+02 -0.22730584946E+01  0.16160562549E+02  0.00000000000E+00 0.  1.
         12    1    6    6    0    0 -0.89167183740E+02 -0.47444255729E+02  0.12470942813E+03  0.16048110644E+03  0.00000000000E+00 0. -1.
         -5    1    3    3    0  503  0.92244348352E+02  0.18540544821E+02  0.86434563897E+02  0.12785067634E+03  0.47000000000E+01 0.  1.
         11    1    4    4    0    0  0.23726500057E+02  0.75414482834E+02  0.58709235583E+02  0.98473678558E+02  0.00000000000E+00 0. -1.
        -12    1    4    4    0    0 -0.23186205162E+02  0.29312008664E+02 -0.12167941530E+02  0.39304615031E+02  0.00000000000E+00 0.  1.
</event>
<event>
12    1  0.8451514E-002  0.2266744E+03  0.7818608E-02  0.1129618E+00
         21   -1    0    0  501  502  0.00000000000E+00  0.00000000000E+00  0.49989212286E+02  0.49989212286E+02  0.00000000000E+00 0.  1.
         21   -1    0    0  502  503 -0.00000000000E+00 -0.00000000000E+00 -0.11789092325E+04  0.11789092325E+04  0.00000000000E+00 0.  1.
         -6    2    1    2    0  503 -0.12396275020E+03  0.69960206827E+02 -0.79899404827E+03  0.83052560043E+03  0.17640887119E+03 0.  0.
        -24    2    3    3    0    0  0.66566504615E+01  0.47100288416E+01 -0.20079825966E+03  0.21475023144E+03  0.75704857523E+02 0.  0.
          6    2    1    2  501    0  0.12396275020E+03 -0.69960206827E+02 -0.32992597191E+03  0.39837284431E+03  0.17201331974E+03 0.  0.
         24    2    5    5    0    0  0.60595381195E+02 -0.53022001259E+02 -0.77108833984E+02  0.13714321067E+03  0.79870865250E+02 0.  0.
          5    1    5    5  501    0  0.63367369008E+02 -0.16938205568E+02 -0.25281713792E+03  0.26122963364E+03  0.47000000000E+01 0. -1.
        -11    1    6    6    0    0  0.78021763881E+02 -0.28061270401E+02 -0.54468475719E+02  0.99205067324E+02  0.00000000000E+00 0.  1.
         12    1    6    6    0    0 -0.17426382685E+02 -0.24960730859E+02 -0.22640358265E+02  0.37938143350E+02  0.00000000000E+00 0. -1.
         -5    1    3    3    0  503 -0.13061940067E+03  0.65250177985E+02 -0.59819578861E+03  0.61577536900E+03  0.47000000000E+01 0.  1.
         13    1    4    4    0    0 -0.18868190420E+02  0.31691199905E+02 -0.74916222245E+02  0.83503180278E+02  0.00000000000E+00 0. -1.
        -14    1    4    4    0    0  0.25524840881E+02 -0.26981171063E+02 -0.12588203742E+03  0.13124705116E+03  0.00000000000E+00 0.  1.
</event>
<event>
12    1  0.8451514E-002  0.2532604E+03  0.7818608E-02  0.1111309E+00
         21   -1    0    0  503  502  0.00000000000E+00  0.00000000000E+00  0.12329431411E+03  0.12329431411E+03  0.00000000000E+00 0.  1.
         21   -1    0    0  501  503 -0.00000000000E+00 -0.00000000000E+00 -0.54586227891E+03  0.54586227891E+03  0.00000000000E+00 0. -1.
          6    2    1    2  501    0 -0.18528171586E+03 -0.15250080218E+02 -0.28479317665E+03  0.38111414921E+03  0.17198535428E+03 0.  0.
         24    2    3    3    0    0 -0.18563165736E+03 -0.47365436071E+02 -0.27958216855E+03  0.34823918692E+03  0.80010909158E+02 0.  0.
         -6    2    1    2    0  502  0.18528171586E+03  0.15250080218E+02 -0.13777478815E+03  0.28804244380E+03  0.17153622942E+03 0.  0.
        -24    2    5    5    0    0  0.12815147030E+03  0.68449591030E+02 -0.12738182152E+03  0.20914911922E+03  0.80056728412E+02 0.  0.
          5    1    3    3  501    0  0.34994150559E+00  0.32115355854E+02 -0.52110081028E+01  0.32874962298E+02  0.47000000000E+01 0. -1.
        -13    1    4    4    0    0 -0.11804653833E+03 -0.67566309373E+02 -0.20033466203E+03  0.24214493219E+03  0.00000000000E+00 0.  1.
         14    1    4    4    0    0 -0.67585119030E+02  0.20200873302E+02 -0.79247506520E+02  0.10609425473E+03  0.00000000000E+00 0. -1.
         -5    1    5    5    0  502  0.57130245557E+02 -0.53199510813E+02 -0.10392966629E+02  0.78893324581E+02  0.47000000000E+01 0.  1.
         11    1    6    6    0    0  0.86191070312E+02  0.96499190052E+00 -0.71659646117E+02  0.11209342841E+03  0.00000000000E+00 0. -1.
        -12    1    6    6    0    0  0.41960399986E+02  0.67484599130E+02 -0.55722175401E+02  0.97055690807E+02  0.00000000000E+00 0.  1.
</event>
<event>
12    1  0.8451514E-002  0.2031086E+03  0.7818608E-02  0.1148202E+00
         21   -1    0    0  503  502  0.00000000000E+00  0.00000000000E+00  0.15480633317E+03  0.15480633317E+03  0.00000000000E+00 0.  1.
         21   -1    0    0  501  503 -0.00000000000E+00 -0.00000000000E+00 -0.38219485801E+03  0.38219485801E+03  0.00000000000E+00 0. -1.
          6    2    1    2  501    0  0.38633929984E+02 -0.10064336647E+03 -0.26655107949E+03  0.33511576955E+03  0.17213783216E+03 0.  0.
         24    2    3    3    0    0 -0.37232349474E+01 -0.11918601556E+03 -0.23820650652E+03  0.28067806135E+03  0.88423218647E+02 0.  0.
         -6    2    1    2    0  502 -0.38633929984E+02  0.10064336647E+03  0.39162554662E+02  0.20188542163E+03  0.16613954984E+03 0.  0.
        -24    2    5    5    0    0 -0.56513230275E+02  0.11193630927E+03 -0.90421471990E+01  0.14903673936E+03  0.80041906052E+02 0.  0.
          5    1    3    3  501    0  0.42357164932E+02  0.18542649090E+02 -0.28344572979E+02  0.54437708197E+02  0.47000000000E+01 0. -1.
        -13    1    4    4    0    0  0.27157153865E+02 -0.50141462309E+02 -0.43268473317E+02  0.71580989318E+02  0.00000000000E+00 0.  1.
         14    1    4    4    0    0 -0.30880388812E+02 -0.69044553247E+02 -0.19493803320E+03  0.20909707203E+03  0.00000000000E+00 0. -1.
         -5    1    5    5    0  502  0.17879300291E+02 -0.11292942804E+02  0.48204701861E+02  0.52848682269E+02  0.47000000000E+01 0.  1.
         11    1    6    6    0    0  0.11380106943E+01  0.70024322657E+02  0.18804313017E+02  0.72514157376E+02  0.00000000000E+00 0. -1.
        -12    1    6    6    0    0 -0.57651240969E+02  0.41911986614E+02 -0.27846460216E+02  0.76522581986E+02  0.00000000000E+00 0.  1.
</event>
<event>
12    1  0.8451514E-002  0.2060538E+03  0.7818608E-02  0.1144800E+00
         21   -1    0    0  501  502  0.00000000000E+00  0.00000000000E+00  0.53530625886E+02  0.53530625886E+02  0.00000000000E+00 0. -1.
         21   -1    0    0  502  503 -0.00000000000E+00 -0.00000000000E+00 -0.95297299172E+03  0.95297299172E+03  0.00000000000E+00 0.  1.
         -6    2    1    2    0  503 -0.97798170426E+02  0.58777256886E+02 -0.65698439813E+03  0.68853951710E+03  0.17157773504E+03 0.  0.
        -24    2    3    3    0    0 -0.78016737085E+02  0.47414903493E+02 -0.65376421196E+03  0.66502637655E+03  0.80731978396E+02 0.  0.
          6    2    1    2  501    0  0.97798170426E+02 -0.58777256886E+02 -0.24245796770E+03  0.31796410050E+03  0.17116090395E+03 0.  0.
         24    2    5    5    0    0  0.13557008351E+03 -0.48676826662E+02 -0.20817153636E+03  0.26574929913E+03  0.80861736562E+02 0.  0.
          5    1    5    5  501    0 -0.37771913081E+02 -0.10100430224E+02 -0.34286431342E+02  0.52214801375E+02  0.47000000000E+01 0. -1.
        -13    1    6    6    0    0  0.11909604638E+03 -0.50056852631E+02 -0.12093437270E+03  0.17695954131E+03  0.00000000000E+00 0.  1.
         14    1    6    6    0    0  0.16474037130E+02  0.13800259690E+01 -0.87237163659E+02  0.88789757823E+02  0.00000000000E+00 0. -1.
         -5    1    3    3    0  503 -0.19781433341E+02  0.11362353393E+02 -0.32201861746E+01  0.23513140553E+02  0.47000000000E+01 0.  1.
         13    1    4    4    0    0 -0.28263029635E+02  0.54150484559E+02 -0.21854321299E+03  0.22691894978E+03  0.00000000000E+00 0. -1.
        -14    1    4    4    0    0 -0.49753707450E+02 -0.67355810655E+01 -0.43522099896E+03  0.43810742678E+03  0.00000000000E+00 0.  1.
</event>
<event>
12    1  0.8451514E-002  0.2024760E+03  0.7818608E-02  0.1149407E+00
         21   -1    0    0  503  502  0.00000000000E+00  0.00000000000E+00  0.15056321642E+04  0.15056321642E+04  0.00000000000E+00 0. -1.
         21   -1    0    0  501  503 -0.00000000000E+00 -0.00000000000E+00 -0.26376659687E+02  0.26376659687E+02  0.00000000000E+00 0. -1.
          6    2    1    2  501    0  0.42967101263E+02  0.10202026119E+03  0.65150768521E+03  0.67985685787E+03  0.15965205234E+03 0.  0.
         24    2    3    3    0    0  0.13049153001E+02 -0.32264389468E+01  0.35798241540E+03  0.36656605759E+03  0.77708265603E+02 0.  0.
         -6    2    1    2    0  502 -0.42967101263E+02 -0.10202026119E+03  0.82774781931E+03  0.85215196602E+03  0.16953529234E+03 0.  0.
        -24    2    5    5    0    0  0.30283361027E+02 -0.55611346161E+02  0.28633024898E+03  0.30381402909E+03  0.79424486250E+02 0.  0.
          5    1    3    3  501    0  0.29917948262E+02  0.10524670013E+03  0.29352526982E+03  0.31329080028E+03  0.47000000000E+01 0. -1.
        -13    1    4    4    0    0  0.39986206750E+02  0.10493679038E+02  0.27808403115E+03  0.28114007614E+03  0.00000000000E+00 0.  1.
         14    1    4    4    0    0 -0.26937053749E+02 -0.13720117985E+02  0.79898384242E+02  0.85425981450E+02  0.00000000000E+00 0. -1.
         -5    1    5    5    0  502 -0.73250462290E+02 -0.46408915027E+02  0.54141757033E+03  0.54833793694E+03  0.47000000000E+01 0.  1.
         13    1    6    6    0    0 -0.14180610889E+02 -0.39914193904E+01  0.15651592656E+03  0.15720768563E+03  0.00000000000E+00 0. -1.
        -14    1    6    6    0    0  0.44463971917E+02 -0.51619926770E+02  0.12981432241E+03  0.14660634346E+03  0.00000000000E+00 0.  1.
</event>
<event>
12    1  0.8451514E-002  0.2041142E+03  0.7818608E-02  0.1146346E+00
         21   -1    0    0  501  502  0.00000000000E+00  0.00000000000E+00  0.73570457975E+02  0.73570457975E+02  0.00000000000E+00 0. -1.
         21   -1    0    0  502  503 -0.00000000000E+00 -0.00000000000E+00 -0.58239357991E+03  0.58239357991E+03  0.00000000000E+00 0.  1.
         -6    2    1    2    0  503  0.49439039896E+02  0.98517942783E+02 -0.30977823504E+03  0.37097865135E+03  0.17179231979E+03 0.  0.
        -24    2    3    3    0    0 -0.25849275134E+02  0.97469491377E+02 -0.19836797413E+03  0.23642841588E+03  0.79875252104E+02 0.  0.
          6    2    1    2  501    0 -0.49439039896E+02 -0.98517942783E+02 -0.19904488689E+03  0.28498538653E+03  0.17160361250E+03 0.  0.
         24    2    5    5    0    0 -0.24544198339E+02 -0.10327583368E+03 -0.62544806677E+02  0.14607263492E+03  0.78466848642E+02 0.  0.
          5    1    5    5  501    0 -0.24894841557E+02  0.47578908959E+01 -0.13650008022E+03  0.13891275161E+03  0.47000000000E+01 0. -1.
        -13    1    6    6    0    0 -0.38043320688E+01 -0.72110570294E+02 -0.77348118268E+02  0.10581653316E+03  0.00000000000E+00 0.  1.
         14    1    6    6    0    0 -0.20739866271E+02 -0.31165263384E+02  0.14803311590E+02  0.40256101758E+02  0.00000000000E+00 0. -1.
         -5    1    3    3    0  503  0.75288315030E+02  0.10484514055E+01 -0.11141026091E+03  0.13455023547E+03  0.47000000000E+01 0.  1.
         13    1    4    4    0    0  0.22214895770E+02  0.52944841626E+02 -0.12796435726E+03  0.14025524796E+03  0.00000000000E+00 0. -1.
        -14    1    4    4    0    0 -0.48064170904E+02  0.44524649752E+02 -0.70403616869E+02  0.96173167924E+02  0.00000000000E+00 0.  1.
</event>
<event>
12    1  0.8451514E-002  0.1827355E+03  0.7818608E-02  0.1165854E+00
         21   -1    0    0  503  502  0.00000000000E+00  0.00000000000E+00  0.15743029391E+04  0.15743029391E+04  0.00000000000E+00 0.  1.
         21   -1    0    0  501  503 -0.00000000000E+00 -0.00000000000E+00 -0.47491779946E+02  0.47491779946E+02  0.00000000000E+00 0.  1.
          6    2    1    2  501    0  0.36707719393E+02 -0.43042265517E+02  0.15387069379E+03  0.23674677883E+03  0.17080033254E+03 0.  0.
         24    2    3    3    0    0  0.63446193123E+02  0.18342503707E+02  0.12830482488E+03  0.16492241302E+03  0.79846148094E+02 0.  0.
         -6    2    1    2    0  502 -0.36707719393E+02  0.43042265517E+02  0.13729404654E+04  0.13850479403E+04  0.17375897669E+03 0.  0.
        -24    2    5    5    0    0  0.36806006671E+02  0.66605366912E+02  0.77966732030E+03  0.78675486628E+03  0.72877515341E+02 0.  0.
          5    1    3    3  501    0 -0.26738473730E+02 -0.61384769224E+02  0.25565868903E+02  0.71824365802E+02  0.47000000000E+01 0. -1.
        -11    1    4    4    0    0  0.33720657578E+02  0.99491842292E+01  0.12932403571E+03  0.13401781683E+03  0.00000000000E+00 0.  1.
         12    1    4    4    0    0  0.29725535545E+02  0.83933194774E+01 -0.10192108303E+01  0.30904596196E+02  0.00000000000E+00 0. -1.
         -5    1    5    5    0  502 -0.73513726064E+02 -0.23563101395E+02  0.59327314511E+03  0.59829307398E+03  0.47000000000E+01 0.  1.
         13    1    6    6    0    0  0.30403276601E+02  0.11453569677E+02  0.52970542278E+03  0.53070083702E+03  0.00000000000E+00 0. -1.
        -14    1    6    6    0    0  0.64027300696E+01  0.55151797235E+02  0.24996189752E+03  0.25605402926E+03  0.00000000000E+00 0.  1.
</event>
<event>
12    1  0.8451514E-002  0.1714576E+03  0.7818608E-02  0.1176355E+00
         21   -1    0    0  503  502  0.00000000000E+00  0.00000000000E+00  0.42103796975E+03  0.42103796975E+03  0.00000000000E+00 0. -1.
         21   -1    0    0  501  503 -0.00000000000E+00 -0.00000000000E+00 -0.71099951482E+02  0.71099951482E+02  0.00000000000E+00 0. -1.
          6    2    1    2  501    0 -0.57014627676E+01 -0.12120964347E+01  0.20829371648E+03  0.26974007764E+03  0.17128765660E+03 0.  0.
         24    2    3    3    0    0 -0.43552160749E+02  0.47735476229E+02  0.16290531916E+03  0.19285876119E+03  0.80503989713E+02 0.  0.
         -6    2    1    2    0  502  0.57014627676E+01  0.12120964347E+01  0.14164430178E+03  0.22239784359E+03  0.17135844523E+03 0.  0.
        -24    2    5    5    0    0 -0.39669733959E+02  0.35867538976E+02  0.37561352572E+02  0.10359171788E+03  0.80375497897E+02 0.  0.
          5    1    3    3  501    0  0.37850697981E+02 -0.48947572664E+02  0.45388397322E+02  0.76881316448E+02  0.47000000000E+01 0. -1.
        -11    1    4    4    0    0 -0.60933127830E+02  0.11321966851E+02  0.85912805626E+02  0.10593414544E+03  0.00000000000E+00 0.  1.
         12    1    4    4    0    0  0.17380967081E+02  0.36413509378E+02  0.76992513537E+02  0.86924615746E+02  0.00000000000E+00 0. -1.
         -5    1    5    5    0  502  0.45371196726E+02 -0.34655442541E+02  0.10408294921E+03  0.11880612571E+03  0.47000000000E+01 0.  1.
         13    1    6    6    0    0 -0.47309999092E+02  0.22665955739E+02  0.57924891292E+02  0.78149053704E+02  0.00000000000E+00 0. -1.
        -14    1    6    6    0    0  0.76402651336E+01  0.13201583237E+02 -0.20363538720E+02  0.25442664178E+02  0.00000000000E+00 0.  1.
</event>
<event>
12    1  0.8451514E-002  0.1963361E+03  0.7818608E-02  0.1153259E+00
         21   -1    0    0  501  502  0.00000000000E+00  0.00000000000E+00  0.47474944562E+02  0.47474944562E+02  0.00000000000E+00 0. -1.
         21   -1    0    0  502  503 -0.00000000000E+00 -0.00000000000E+00 -0.10793882357E+04  0.10793882357E+04  0.00000000000E+00 0. -1.
         -6    2    1    2    0  503  0.71901030020E+02 -0.56307577258E+02 -0.23341002940E+03  0.30500512248E+03  0.17380328403E+03 0.  0.
        -24    2    3    3    0    0  0.23471856655E+01 -0.44631426934E+02 -0.43045969058E+02  0.10194199136E+03  0.80881027439E+02 0.  0.
          6    2    1    2  501    0 -0.71901030020E+02  0.56307577258E+02 -0.79850326169E+03  0.82185805773E+03  0.17176410206E+03 0.  0.
         24    2    5    5    0    0 -0.72377698284E-01  0.51405472413E+02 -0.22756000346E+03  0.24637419172E+03  0.79209591191E+02 0.  0.
          5    1    5    5  501    0 -0.71828652321E+02  0.49021048445E+01 -0.57094325823E+03  0.57548386602E+03  0.47000000000E+01 0. -1.
        -13    1    6    6    0    0  0.89841763154E+01 -0.20105243533E+02 -0.45008886767E+02  0.50107246278E+02  0.00000000000E+00 0.  1.
         14    1    6    6    0    0 -0.90565540137E+01  0.71510715946E+02 -0.18255111669E+03  0.19626694544E+03  0.00000000000E+00 0. -1.
         -5    1    3    3    0  503  0.69553844354E+02 -0.11676150324E+02 -0.19036406035E+03  0.20306313112E+03  0.47000000000E+01 0.  1.
         13    1    4    4    0    0 -0.18338986600E+02 -0.50103731379E+02 -0.55660675459E+02  0.77102614224E+02  0.00000000000E+00 0. -1.
        -14    1    4    4    0    0  0.20686172265E+02  0.54723044449E+01  0.12614706402E+02  0.24839377136E+02  0.00000000000E+00 0.  1.
</event>
<event>
12    1  0.8451514E-002  0.2121718E+03  0.7818608E-02  0.1140522E+00
         21   -1    0    0  501  502  0.00000000000E+00  0.00000000000E+00  0.84622266369E+02  0.84622266369E+02  0.00000000000E+00 0.  1.
         21   -1    0    0  502  503 -0.00000000000E+00 -0.00000000000E+00 -0.52570317908E+03  0.52570317908E+03  0.00000000000E+00 0.  1.
         -6    2    1    2    0  503 -0.30900654487E+02  0.11539408775E+03 -0.23830388120E+03  0.31683715332E+03  0.17124951385E+03 0.  0.
        -24    2    3    3    0    0 -0.33037941545E+02  0.14936229776E+03 -0.18817899664E+03  0.25606708388E+03  0.82209580341E+02 0.  0.
          6    2    1    2  501    0  0.30900654487E+02 -0.11539408775E+03 -0.20277703151E+03  0.29348829212E+03  0.17534596423E+03 0.  0.
         24    2    5    5    0    0  0.84178563191E+02 -0.49344142552E+02 -0.13789177847E+03  0.18656160285E+03  0.79184684027E+02 0.  0.
          5    1    5    5  501    0 -0.53277908704E+02 -0.66049945201E+02 -0.64885253038E+02  0.10692668927E+03  0.47000000000E+01 0. -1.
        -13    1    6    6    0    0  0.68226677217E+02  0.45962435580E+01 -0.63675183115E+02  0.93437325965E+02  0.00000000000E+00 0.  1.
         14    1    6    6    0    0  0.15951885974E+02 -0.53940386110E+02 -0.74216595353E+02  0.93124276887E+02  0.00000000000E+00 0. -1.
         -5    1    3    3    0  503  0.21372870577E+01 -0.33968210006E+02 -0.50124884566E+02  0.60770069440E+02  0.47000000000E+01 0.  1.
         13    1    4    4    0    0  0.68419744436E+01  0.91185989360E+01 -0.62626760408E+02  0.63655891951E+02  0.00000000000E+00 0. -1.
        -14    1    4    4    0    0 -0.39879915988E+02  0.14024369882E+03 -0.12555223623E+03  0.19241119193E+03  0.00000000000E+00 0.  1.
</event>
<event>
12    1  0.8451514E-002  0.2256307E+03  0.7818608E-02  0.1130347E+00
         21   -1    0    0  501  502  0.00000000000E+00  0.00000000000E+00  0.23913013978E+03  0.23913013978E+03  0.00000000000E+00 0. -1.
         21   -1    0    0  502  503 -0.00000000000E+00 -0.00000000000E+00 -0.21225718471E+03  0.21225718471E+03  0.00000000000E+00 0. -1.
         -6    2    1    2    0  503 -0.90791781163E+02 -0.11323949070E+03  0.37696622956E+02  0.22875806785E+03  0.17275094338E+03 0.  0.
        -24    2    3    3    0    0 -0.11768885982E+01  0.39164275229E+01  0.11074429297E+02  0.78800842810E+02  0.77911529134E+02 0.  0.
          6    2    1    2  501    0  0.90791781163E+02  0.11323949070E+03 -0.10823667896E+02  0.22262925664E+03  0.16846454923E+03 0.  0.
         24    2    5    5    0    0 -0.19090727527E+02  0.38597360988E+02  0.36022110753E+01  0.88928810764E+02  0.77724804963E+02 0.  0.
          5    1    5    5  501    0  0.10988250869E+03  0.74642129717E+02 -0.14425878971E+02  0.13370044588E+03  0.47000000000E+01 0. -1.
        -11    1    6    6    0    0  0.17988045370E+02 -0.37984296688E+01  0.22922752078E+02  0.29384526659E+02  0.00000000000E+00 0.  1.
         12    1    6    6    0    0 -0.37078772897E+02  0.42395790656E+02 -0.19320541002E+02  0.59544284105E+02  0.00000000000E+00 0. -1.
         -5    1    3    3    0  503 -0.89614892564E+02 -0.11715591823E+03  0.26622193659E+02  0.14995722504E+03  0.47000000000E+01 0.  1.
         11    1    4    4    0    0 -0.35721367799E+02  0.18169398166E+02  0.96556075867E+00  0.40088345622E+02  0.00000000000E+00 0. -1.
        -12    1    4    4    0    0  0.34544479201E+02 -0.14252970643E+02  0.10108868538E+02  0.38712497188E+02  0.00000000000E+00 0.  1.
</event>
<event>
12    1  0.8451514E-002  0.1892475E+03  0.7818608E-02  0.1160394E+00
         21   -1    0    0  501  502  0.00000000000E+00  0.00000000000E+00  0.35469027573E+02  0.35469027573E+02  0.00000000000E+00 0.  1.
         21   -1    0    0  502  503 -0.00000000000E+00 -0.00000000000E+00 -0.98437785874E+03  0.98437785874E+03  0.00000000000E+00 0.  1.
         -6    2    1    2    0  503  0.50177743987E+02 -0.43077806683E+02 -0.45116346557E+03  0.48924747347E+03  0.17731642398E+03 0.  0.
        -24    2    3    3    0    0  0.52317992066E+02 -0.34671590859E+02 -0.46301690637E+03  0.47382543777E+03  0.78654932394E+02 0.  0.
          6    2    1    2  501    0 -0.50177743987E+02  0.43077806683E+02 -0.49774536559E+03  0.53059941284E+03  0.17149864289E+03 0.  0.
         24    2    5    5    0    0 -0.97307807694E+02  0.50960927629E+01 -0.33012523163E+03  0.35232307451E+03  0.75193754223E+02 0.  0.
          5    1    5    5  501    0  0.47130063707E+02  0.37981713920E+02 -0.16762013396E+03  0.17827633832E+03  0.47000000000E+01 0. -1.
        -13    1    6    6    0    0 -0.66064646013E+02 -0.12398033205E+02 -0.29351266985E+03  0.30111116891E+03  0.00000000000E+00 0.  1.
         14    1    6    6    0    0 -0.31243161681E+02  0.17494125968E+02 -0.36612561785E+02  0.51211905605E+02  0.00000000000E+00 0. -1.
         -5    1    3    3    0  503 -0.21402480786E+01 -0.84062158235E+01  0.11853440800E+02  0.15422035699E+02  0.47000000000E+01 0.  1.
         11    1    4    4    0    0  0.30699086267E+02 -0.53551483769E+02 -0.39795411274E+03  0.40271288924E+03  0.00000000000E+00 0. -1.
        -12    1    4    4    0    0  0.21618905799E+02  0.18879892910E+02 -0.65062793627E+02  0.71112548532E+02  0.00000000000E+00 0.  1.
</event>
<event>
12    1  0.8451514E-002  0.3159366E+03  0.7818608E-02  0.1077561E+00
         21   -1    0    0  503  502  0.00000000000E+00  0.00000000000E+00  0.80402610215E+03  0.80402610215E+03  0.00000000000E+00 0.  1.
         21   -1    0    0  501  503 -0.00000000000E+00 -0.00000000000E+00 -0.13431390506E+03  0.13431390506E+03  0.00000000000E+00 0.  1.
          6    2    1    2  501    0  0.13368119745E+03  0.22862882182E+03  0.20532002143E+03  0.37679203154E+03  0.17226178658E+03 0.  0.
         24    2    3    3    0    0  0.90086560860E+02  0.23099168751E+03  0.13666665556E+03  0.29529693894E+03  0.83962844529E+02 0.  0.
         -6    2    1    2    0  502 -0.13368119745E+03 -0.22862882182E+03  0.46439217567E+03  0.56154797567E+03  0.17185527470E+03 0.  0.
        -24    2    5    5    0    0 -0.10733562111E+02 -0.15215513195E+03  0.23980209376E+03  0.29428940955E+03  0.76385986046E+02 0.  0.
          5    1    3    3  501    0  0.43594636591E+02 -0.23628656846E+01  0.68653365862E+02  0.81495092601E+02  0.47000000000E+01 0. -1.
        -13    1    4    4    0    0  0.37642496068E+01  0.12481270917E+03  0.68296678758E+02  0.14232644967E+03  0.00000000000E+00 0.  1.
         14    1    4    4    0    0  0.86322311253E+02  0.10617897833E+03  0.68369976806E+02  0.15297048927E+03  0.00000000000E+00 0. -1.
         -5    1    5    5    0  502 -0.12294763534E+03 -0.76473689875E+02  0.22459008190E+03  0.26725856613E+03  0.47000000000E+01 0.  1.
         13    1    6    6    0    0 -0.91122548991E+01 -0.10498413307E+03  0.94610226765E+02  0.14161848889E+03  0.00000000000E+00 0. -1.
        -14    1    6    6    0    0 -0.16213072119E+01 -0.47170998873E+02  0.14519186700E+03  0.15267092066E+03  0.00000000000E+00 0.  1.
</event>
<event>
12    1  0.8451514E-002  0.1908441E+03  0.7818608E-02  0.1157738E+00
         21   -1    0    0  503  502  0.00000000000E+00  0.00000000000E+00  0.33263191481E+03  0.33263191481E+03  0.00000000000E+00 0.  1.
         21   -1    0    0  501  503 -0.00000000000E+00 -0.00000000000E+00 -0.11491987408E+03  0.11491987408E+03  0.00000000000E+00 0.  1.
          6    2    1    2  501    0 -0.38115538690E+02 -0.70225011251E+02  0.59782899653E+02  0.19983601982E+03  0.17313605411E+03 0.  0.
         24    2    3    3    0    0 -0.70883761108E+02 -0.32466894743E+02 -0.13209051770E+02  0.11123948075E+03  0.78237690313E+02 0.  0.
         -6    2    1    2    0  502  0.38115538690E+02  0.70225011251E+02  0.15792914107E+03  0.24771576907E+03  0.17331226775E+03 0.  0.
        -24    2    5    5    0    0  0.17871281995E+02  0.90479884520E+02  0.17545755084E+03  0.21381259858E+03  0.80152872309E+02 0.  0.
          5    1    3    3  501    0  0.32768222418E+02 -0.37758116508E+02  0.72991951423E+02  0.88596539070E+02  0.47000000000E+01 0. -1.
        -13    1    4    4    0    0 -0.28550399609E+02 -0.39841259901E+02  0.23837351776E+02  0.54503859020E+02  0.00000000000E+00 0.  1.
         14    1    4    4    0    0 -0.42333361499E+02  0.73743651582E+01 -0.37046403546E+02  0.56735621729E+02  0.00000000000E+00 0. -1.
         -5    1    5    5    0  502  0.20244256695E+02 -0.20254873269E+02 -0.17528409774E+02  0.33903170493E+02  0.47000000000E+01 0.  1.
         11    1    6    6    0    0 -0.61341027630E+01 -0.87825892171E+01 -0.98998294238E-01  0.10713117694E+02  0.00000000000E+00 0. -1.
        -12    1    6    6    0    0  0.24005384758E+02  0.99262473737E+02  0.17555654914E+03  0.20309948088E+03  0.00000000000E+00 0.  1.
</event>
<event>
12    1  0.8451514E-002  0.2175694E+03  0.7818608E-02  0.1135792E+00
         21   -1    0    0  503  502  0.00000000000E+00  0.00000000000E+00  0.23806073087E+03  0.23806073087E+03  0.00000000000E+00 0. -1.
         21   -1    0    0  501  503 -0.00000000000E+00 -0.00000000000E+00 -0.30528875148E+03  0.30528875148E+03  0.00000000000E+00 0. -1.
          6    2    1    2  501    0 -0.11946893801E+03 -0.57850637956E+02 -0.19431512442E+03  0.29138211435E+03  0.17183028117E+03 0.  0.
         24    2    3    3    0    0 -0.24934425599E+02  0.26882677799E+02 -0.54202382292E+02  0.10225205502E+03  0.78569590588E+02 0.  0.
         -6    2    1    2    0  502  0.11946893801E+03  0.57850637956E+02  0.12708710380E+03  0.25196736800E+03  0.17238590175E+03 0.  0.
        -24    2    5    5    0    0  0.13345058668E+03  0.49698665275E+02  0.46165403655E+02  0.16930932113E+03  0.79090993872E+02 0.  0.
          5    1    3    3  501    0 -0.94534512410E+02 -0.84733315755E+02 -0.14011274212E+03  0.18913005933E+03  0.47000000000E+01 0. -1.
        -11    1    4    4    0    0 -0.17923686267E+02 -0.15373833053E+02  0.95287495393E+01  0.25463902685E+02  0.00000000000E+00 0.  1.
         12    1    4    4    0    0 -0.70107393321E+01  0.42256510852E+02 -0.63731131831E+02  0.76788152340E+02  0.00000000000E+00 0. -1.
         -5    1    5    5    0  502 -0.13981648669E+02  0.81519726812E+01  0.80921700144E+02  0.82658046870E+02  0.47000000000E+01 0.  1.
         11    1    6    6    0    0  0.11326070418E+03  0.26392850526E+02  0.64950055985E+02  0.13320315103E+03  0.00000000000E+00 0. -1.
        -12    1    6    6    0    0  0.20189882495E+02  0.23305814749E+02 -0.18784652330E+02  0.36106170102E+02  0.00000000000E+00 0.  1.
</event>
<event>
12    1  0.8451514E-002  0.1816878E+03  0.7818608E-02  0.1166241E+00
         21   -1    0    0  503  502  0.00000000000E+00  0.00000000000E+00  0.37902270081E+02  0.37902270081E+02  0.00000000000E+00 0.  1.
         21   -1    0    0  501  503 -0.00000000000E+00 -0.00000000000E+00 -0.11946997765E+04  0.11946997765E+04  0.00000000000E+00 0.  1.
          6    2    1    2  501    0  0.31731338198E+02  0.49723360810E+02 -0.89954000403E+03  0.91765460526E+03  0.17157641234E+03 0.  0.
         24    2    3    3    0    0  0.68088825249E+02 -0.11765042964E+02 -0.63457523030E+03  0.64318946725E+03  0.78945953137E+02 0.  0.
         -6    2    1    2    0  502 -0.31731338198E+02 -0.49723360810E+02 -0.25725750238E+03  0.31494744131E+03  0.17184637856E+03 0.  0.
        -24    2    5    5    0    0  0.45643036536E+02 -0.76319084998E+01 -0.12996399620E+03  0.16007907483E+03  0.81198134685E+02 0.  0.
          5    1    3    3  501    0 -0.36357487051E+02  0.61488403774E+02 -0.26496477374E+03  0.27446513801E+03  0.47000000000E+01 0. -1.
        -13    1    4    4    0    0  0.25565315489E+02 -0.39100457437E+02 -0.18609426246E+03  0.19186845923E+03  0.00000000000E+00 0.  1.
         14    1    4    4    0    0  0.42523509760E+02  0.27335414473E+02 -0.44848096784E+03  0.45132100802E+03  0.00000000000E+00 0. -1.
         -5    1    5    5    0  502 -0.77374374734E+02 -0.42091452310E+02 -0.12729350617E+03  0.15486836648E+03  0.47000000000E+01 0.  1.
         11    1    6    6    0    0 -0.93200763918E+01  0.26742510272E+02 -0.33664689317E+02  0.43992465110E+02  0.00000000000E+00 0. -1.
        -12    1    6    6    0    0  0.54963112928E+02 -0.34374418772E+02 -0.96299306886E+02  0.11608660972E+03  0.00000000000E+00 0.  1.
</event>
<event>
12    1  0.8451514E-002  0.2027570E+03  0.7818608E-02  0.1148746E+00
         21   -1    0    0  501  502  0.00000000000E+00  0.00000000000E+00  0.25892406025E+03  0.25892406025E+03  0.00000000000E+00 0.  1.
         21   -1    0    0  502  503 -0.00000000000E+00 -0.00000000000E+00 -0.18980906588E+03  0.18980906588E+03  0.00000000000E+00 0. -1.
         -6    2    1    2    0  503  0.95688538364E+02  0.13084000842E+02 -0.63414852995E+02  0.20650481824E+03  0.17115872436E+03 0.  0.
        -24    2    3    3    0    0  0.96887846300E+02 -0.47449176525E+02 -0.30149796405E+02  0.13726351632E+03  0.79332109361E+02 0.  0.
          6    2    1    2  501    0 -0.95688538364E+02 -0.13084000842E+02  0.13252984736E+03  0.24222830789E+03  0.17827760725E+03 0.  0.
         24    2    5    5    0    0 -0.10169527005E+03 -0.59696434419E+02  0.57266570708E+02  0.15337195976E+03  0.79610964623E+02 0.  0.
          5    1    5    5  501    0  0.60067316828E+01  0.46612433577E+02  0.75263276653E+02  0.88856348124E+02  0.47000000000E+01 0. -1.
        -13    1    6    6    0    0 -0.25740952408E+02  0.19590817468E+02  0.15851993813E+02  0.36023360029E+02  0.00000000000E+00 0.  1.
         14    1    6    6    0    0 -0.75954317638E+02 -0.79287251887E+02  0.41414576895E+02  0.11734859973E+03  0.00000000000E+00 0. -1.
         -5    1    3    3    0  503 -0.11993079361E+01  0.60533177367E+02 -0.33265056591E+02  0.69241301921E+02  0.47000000000E+01 0.  1.
         13    1    4    4    0    0  0.39054865948E+02  0.16888593985E+02 -0.27596690172E+02  0.50715722113E+02  0.00000000000E+00 0. -1.
        -14    1    4    4    0    0  0.57832980353E+02 -0.64337770510E+02 -0.25531062325E+01  0.86547794207E+02  0.00000000000E+00 0.  1.
</event>
<event>
12    1  0.8451514E-002  0.3009859E+03  0.7818608E-02  0.1084886E+00
         21   -1    0    0  501  502  0.00000000000E+00  0.00000000000E+00  0.46210393583E+03  0.46210393583E+03  0.00000000000E+00 0.  1.
         21   -1    0    0  502  503 -0.00000000000E+00 -0.00000000000E+00 -0.24589697739E+03  0.24589697739E+03  0.00000000000E+00 0.  1.
         -6    2    1    2    0  503 -0.22274558701E+03  0.10401507071E+03 -0.52275608981E+02  0.30549181959E+03  0.17365995817E+03 0.  0.
        -24    2    3    3    0    0 -0.92626452294E+02  0.86655282913E+01  0.27840697680E+02  0.12531624673E+03  0.79210518257E+02 0.  0.
          6    2    1    2  501    0  0.22274558701E+03 -0.10401507071E+03  0.26848256743E+03  0.40250909364E+03  0.17174384990E+03 0.  0.
         24    2    5    5    0    0  0.20530931579E+03 -0.45550149047E+02  0.25540735108E+03  0.33993735958E+03  0.78088169587E+02 0.  0.
          5    1    5    5  501    0  0.17436271225E+02 -0.58464921666E+02  0.13075216349E+02  0.62571734052E+02  0.47000000000E+01 0. -1.
        -11    1    6    6    0    0  0.11597996731E+03 -0.60101726810E+02  0.17834856141E+03  0.22106962645E+03  0.00000000000E+00 0.  1.
         12    1    6    6    0    0  0.89329348479E+02  0.14551577763E+02  0.77058789665E+02  0.11886773313E+03  0.00000000000E+00 0. -1.
         -5    1    3    3    0  503 -0.13011913472E+03  0.95349542422E+02 -0.80116306661E+02  0.18017557285E+03  0.47000000000E+01 0.  1.
         11    1    4    4    0    0 -0.10357193859E+03  0.20981868973E+02  0.25052911409E+02  0.10860494306E+03  0.00000000000E+00 0. -1.
        -12    1    4    4    0    0  0.10945486292E+02 -0.12316340682E+02  0.27877862710E+01  0.16711303667E+02  0.00000000000E+00 0.  1.
</event>
<event>
12    1  0.8451514E-002  0.2441371E+03  0.7818608E-02  0.1117242E+00
         21   -1    0    0  503  502  0.00000000000E+00  0.00000000000E+00  0.12189480807E+04  0.12189480807E+04  0.00000000000E+00 0. -1.
         21   -1    0    0  501  503 -0.00000000000E+00 -0.00000000000E+00 -0.12245464004E+03  0.12245464004E+03  0.00000000000E+00 0.  1.
          6    2    1    2  501    0  0.77386563395E+01 -0.17190194896E+03  0.27191016830E+02  0.24458431646E+03  0.17167402134E+03 0.  0.
         24    2    3    3    0    0 -0.42869816047E+02 -0.81458774371E+02  0.60277203415E+02  0.13569000508E+03  0.79404553889E+02 0.  0.
         -6    2    1    2    0  502 -0.77386563395E+01  0.17190194896E+03  0.10693024238E+04  0.10968184042E+04  0.17318421258E+03 0.  0.
        -24    2    5    5    0    0  0.14518262550E+02  0.19492615473E+03  0.94055104413E+03  0.96406113605E+03  0.81059371411E+02 0.  0.
          5    1    3    3  501    0  0.50608472387E+02 -0.90443174590E+02 -0.33086186585E+02  0.10889431138E+03  0.47000000000E+01 0. -1.
        -11    1    4    4    0    0  0.34527339668E+01 -0.63154890915E+02  0.84535623028E+01  0.63811631650E+02  0.00000000000E+00 0.  1.
         12    1    4    4    0    0 -0.46322550014E+02 -0.18303883457E+02  0.51823641112E+02  0.71878373434E+02  0.00000000000E+00 0. -1.
         -5    1    5    5    0  502 -0.22256918890E+02 -0.23024205771E+02  0.12875137967E+03  0.13275726818E+03  0.47000000000E+01 0.  1.
         11    1    6    6    0    0 -0.27559575783E+02  0.12741322124E+03  0.52317193130E+03  0.53916836783E+03  0.00000000000E+00 0. -1.
        -12    1    6    6    0    0  0.42077838333E+02  0.67512933495E+02  0.41737911282E+03  0.42489276823E+03  0.00000000000E+00 0.  1.
</event>
<event>
12    1  0.8451514E-002  0.1957591E+03  0.7818608E-02  0.1153855E+00
         21   -1    0    0  501  502  0.00000000000E+00  0.00000000000E+00  0.12515863345E+04  0.12515863345E+04  0.00000000000E+00 0.  1.
         21   -1    0    0  502  503 -0.00000000000E+00 -0.00000000000E+00 -0.10535333030E+03  0.10535333030E+03  0.00000000000E+00 0.  1.
         -6    2    1    2    0  503 -0.88489218600E+02  0.10998802712E+02  0.12965574878E+01  0.19576335586E+03  0.17427075190E+03 0.  0.
        -24    2    3    3    0    0  0.12626144659E+02 -0.30124398187E+02  0.21866608228E+01  0.86500751903E+02  0.80066845193E+02 0.  0.
          6    2    1    2  501    0  0.88489218600E+02 -0.10998802712E+02  0.11449364467E+04  0.11611763089E+04  0.17175458639E+03 0.  0.
         24    2    5    5    0    0  0.81240750531E+02  0.88014346975E+01  0.11269678871E+04  0.11330773975E+04  0.84440779667E+02 0.  0.
          5    1    5    5  501    0  0.72484680695E+01 -0.19800237410E+02  0.17968559572E+02  0.28098911437E+02  0.47000000000E+01 0. -1.
        -11    1    6    6    0    0  0.81807498528E+02 -0.85873991793E+00  0.55215634740E+03  0.55818441059E+03  0.00000000000E+00 0.  1.
         12    1    6    6    0    0 -0.56674799745E+00  0.96601746154E+01  0.57481153972E+03  0.57489298689E+03  0.00000000000E+00 0. -1.
         -5    1    3    3    0  503 -0.10111536326E+03  0.41123200900E+02 -0.89010333497E+00  0.10926260396E+03  0.47000000000E+01 0.  1.
         11    1    4    4    0    0 -0.17093357542E+02 -0.36612846682E+02 -0.23450744881E+02  0.46718527906E+02  0.00000000000E+00 0. -1.
        -12    1    4    4    0    0  0.29719502201E+02  0.64884484945E+01  0.25637405704E+02  0.39782223997E+02  0.00000000000E+00 0.  1.
</event>
<event>
12    1  0.8451514E-002  0.2577271E+03  0.7818608E-02  0.1108795E+00
         21   -1    0    0  503  502  0.00000000000E+00  0.00000000000E+00  0.16812843360E+04  0.16812843360E+04  0.00000000000E+00 0.  1.
         21   -1    0    0  501  503 -0.00000000000E+00 -0.00000000000E+00 -0.87607201131E+02  0.87607201131E+02  0.00000000000E+00 0. -1.
          6    2    1    2  501    0  0.10990356238E+03 -0.15514673835E+03  0.13831798242E+03  0.29088831698E+03  0.17127418151E+03 0.  0.
         24    2    3    3    0    0  0.51590136257E+02 -0.17072996444E+02  0.17356525316E+02  0.98226494155E+02  0.79963528038E+02 0.  0.
         -6    2    1    2    0  502 -0.10990356238E+03  0.15514673835E+03  0.14553591525E+04  0.14780032202E+04  0.17399411683E+03 0.  0.
        -24    2    5    5    0    0 -0.12271667218E+03  0.10458152596E+03  0.78374320010E+03  0.80434819423E+03  0.82011808043E+02 0.  0.
          5    1    3    3  501    0  0.58313426126E+02 -0.13807374191E+03  0.12096145710E+03  0.19266182283E+03  0.47000000000E+01 0. -1.
        -13    1    4    4    0    0  0.31694986510E+02 -0.32871892799E+01  0.48961613845E+02  0.58417612186E+02  0.00000000000E+00 0.  1.
         14    1    4    4    0    0  0.19895149748E+02 -0.13785807164E+02 -0.31605088529E+02  0.39808881969E+02  0.00000000000E+00 0. -1.
         -5    1    5    5    0  502  0.12813109792E+02  0.50565212393E+02  0.67161595239E+03  0.67365502595E+03  0.47000000000E+01 0.  1.
         11    1    6    6    0    0 -0.58175575544E+02  0.21812103888E+00  0.24815956297E+03  0.25488745332E+03  0.00000000000E+00 0. -1.
        -12    1    6    6    0    0 -0.64541096631E+02  0.10436340492E+03  0.53558363713E+03  0.54946074091E+03  0.00000000000E+00 0.  1.
</event>
<event>
12    1  0.8451514E-002  0.1756997E+03  0.7818608E-02  0.1172167E+00
         21   -1    0    0  501  502  0.00000000000E+00  0.00000000000E+00  0.82044653953E+02  0.82044653953E+02  0.00000000000E+00 0. -1.
         21   -1    0    0  502  503 -0.00000000000E+00 -0.00000000000E+00 -0.37557186784E+03  0.37557186784E+03  0.00000000000E+00 0. -1.
         -6    2    1    2    0  503 -0.90285430318E+00  0.37339191381E+02 -0.13891156980E+03  0.22397949850E+03  0.17168389897E+03 0.  0.
        -24    2    3    3    0    0 -0.68500343221E+01  0.14167719937E+02 -0.16791870813E+03  0.18608767730E+03  0.78640217730E+02 0.  0.
          6    2    1    2  501    0  0.90285430318E+00 -0.37339191381E+02 -0.15461564409E+03  0.23363702329E+03  0.17112928124E+03 0.  0.
         24    2    5    5    0    0  0.63498017336E+02 -0.39281455903E+02 -0.82659235703E+02  0.13812921453E+03  0.81682921570E+02 0.  0.
          5    1    5    5  501    0 -0.62595163033E+02  0.19422645224E+01 -0.71956408388E+02  0.95507808763E+02  0.47000000000E+01 0. -1.
        -13    1    6    6    0    0  0.53075012338E+02 -0.19576214386E+02 -0.96522214957E+02  0.11187816179E+03  0.00000000000E+00 0.  1.
         14    1    6    6    0    0  0.10423004998E+02 -0.19705241517E+02  0.13862979254E+02  0.26251052745E+02  0.00000000000E+00 0. -1.
         -5    1    3    3    0  503  0.59471800189E+01  0.23171471443E+02  0.29007138338E+02  0.37891821196E+02  0.47000000000E+01 0.  1.
         13    1    4    4    0    0  0.11178694461E+02 -0.10980136340E+01  0.44689682254E+01  0.12088859367E+02  0.00000000000E+00 0. -1.
        -14    1    4    4    0    0 -0.18028728783E+02  0.15265733571E+02 -0.17238767636E+03  0.17399881794E+03  0.00000000000E+00 0.  1.
</event>
<event>
12    1  0.8451514E-002  0.2437466E+03  0.7818608E-02  0.1117363E+00
         21   -1    0    0  503  502  0.00000000000E+00  0.00000000000E+00  0.92458086118E+03  0.92458086118E+03  0.00000000000E+00 0. -1.
         21   -1    0    0  501  503 -0.00000000000E+00 -0.00000000000E+00 -0.99482274533E+02  0.99482274533E+02  0.00000000000E+00 0. -1.
          6    2    1    2  501    0  0.14825687326E+03  0.87119252358E+02  0.10745152990E+03  0.26615173849E+03  0.17239794670E+03 0.  0.
         24    2    3    3    0    0  0.17384667672E+03  0.81375987573E+02  0.11575429436E+03  0.23824387170E+03  0.80724019859E+02 0.  0.
         -6    2    1    2    0  502 -0.14825687326E+03 -0.87119252358E+02  0.71764705675E+03  0.75791139722E+03  0.17274988675E+03 0.  0.
        -24    2    5    5    0    0 -0.13426484281E+03 -0.18005882283E+02  0.60355613497E+03  0.62370534939E+03  0.79856715411E+02 0.  0.
          5    1    3    3  501    0 -0.25589803452E+02  0.57432647847E+01 -0.83027644641E+01  0.27907866792E+02  0.47000000000E+01 0. -1.
        -13    1    4    4    0    0  0.73292571376E+02  0.43472763041E+01  0.75549972592E+02  0.10534941001E+03  0.00000000000E+00 0.  1.
         14    1    4    4    0    0  0.10055410534E+03  0.77028711269E+02  0.40204321769E+02  0.13289446170E+03  0.00000000000E+00 0. -1.
         -5    1    5    5    0  502 -0.13992030454E+02 -0.69113370075E+02  0.11409092179E+03  0.13420604783E+03  0.47000000000E+01 0.  1.
         13    1    6    6    0    0 -0.45595074991E+02  0.21272071894E+02  0.11359485528E+03  0.12423849264E+03  0.00000000000E+00 0. -1.
        -14    1    6    6    0    0 -0.88669767818E+02 -0.39277954177E+02  0.48996127969E+03  0.49946685676E+03  0.00000000000E+00 0.  1.
</event>
<event>
12    1  0.8451514E-002  0.1792146E+03  0.7818608E-02  0.1168665E+00
         21   -1    0    0  503  502  0.00000000000E+00  0.00000000000E+00  0.12638740959E+04  0.12638740959E+04  0.00000000000E+00 0. -1.
         21   -1    0    0  501  503 -0.00000000000E+00 -0.00000000000E+00 -0.26067654705E+02  0.26067654705E+02  0.00000000000E+00 0. -1.
          6    2    1    2  501    0 -0.26747450714E+02  0.39109372452E+02  0.72630455636E+03  0.74808835303E+03  0.17283780318E+03 0.  0.
         24    2    3    3    0    0  0.31576901064E+02  0.56350936220E+02  0.58880402196E+03  0.59766399166E+03  0.79621240611E+02 0.  0.
         -6    2    1    2    0  502  0.26747450714E+02 -0.39109372452E+02  0.51150188483E+03  0.54185339758E+03  0.17241217227E+03 0.  0.
        -24    2    5    5    0    0  0.81102596660E+02 -0.37597615697E+02  0.37051699393E+03  0.39067272169E+03  0.85738677332E+02 0.  0.
          5    1    3    3  501    0 -0.58324351778E+02 -0.17241563768E+02  0.13750053440E+03  0.15042436136E+03  0.47000000000E+01 0. -1.
        -11    1    4    4    0    0  0.15241279029E+02  0.42308247264E+01  0.41885175781E+03  0.41915032087E+03  0.00000000000E+00 0.  1.
         12    1    4    4    0    0  0.16335622035E+02  0.52120111493E+02  0.16995226416E+03  0.17851367080E+03  0.00000000000E+00 0. -1.
         -5    1    5    5    0  502 -0.54355145946E+02 -0.15117567542E+01  0.14098489090E+03  0.15118067589E+03  0.47000000000E+01 0.  1.
         13    1    6    6    0    0  0.72248892362E+02 -0.56119475814E+02  0.34957211540E+03  0.36134465802E+03  0.00000000000E+00 0. -1.
        -14    1    6    6    0    0  0.88537042984E+01  0.18521860117E+02  0.20944878522E+02  0.29328063664E+02  0.00000000000E+00 0.  1.
</event>
<event>
12    1  0.8451514E-002  0.1981310E+03  0.7818608E-02  0.1151576E+00
         21   -1    0    0  501  502  0.00000000000E+00  0.00000000000E+00  0.17844183556E+03  0.17844183556E+03  0.00000000000E+00 0. -1.
         21   -1    0    0  502  503 -0.00000000000E+00 -0.00000000000E+00 -0.22215059138E+03  0.22215059138E+03  0.00000000000E+00 0. -1.
         -6    2    1    2    0  503 -0.32733811009E+02 -0.94050613792E+02 -0.46762934474E+02  0.20243793412E+03  0.16993329512E+03 0.  0.
        -24    2    3    3    0    0 -0.34023254127E+02 -0.11141846135E+03  0.11975804845E+02  0.14099174393E+03  0.78508576621E+02 0.  0.
          6    2    1    2  501    0  0.32733811009E+02  0.94050613792E+02  0.30541786478E+01  0.19815449282E+03  0.17128588582E+03 0.  0.
         24    2    5    5    0    0 -0.36098960509E+01  0.84149893129E+02 -0.54891312264E+02  0.12888213737E+03  0.80643123131E+02 0.  0.
          5    1    5    5  501    0  0.36343707060E+02  0.99007206636E+01  0.57945490911E+02  0.69272355449E+02  0.47000000000E+01 0. -1.
        -13    1    6    6    0    0  0.19786801846E+01 -0.44795918206E+01 -0.38211186065E+02  0.38523715535E+02  0.00000000000E+00 0.  1.
         14    1    6    6    0    0 -0.55885762354E+01  0.88629484949E+02 -0.16680126199E+02  0.90358421836E+02  0.00000000000E+00 0. -1.
         -5    1    3    3    0  503  0.12894431177E+01  0.17367847555E+02 -0.58738739319E+02  0.61446190191E+02  0.47000000000E+01 0.  1.
         13    1    4    4    0    0  0.80154824013E+01 -0.85509411993E+02 -0.10892298200E+02  0.86572222205E+02  0.00000000000E+00 0. -1.
        -14    1    4    4    0    0 -0.42038736528E+02 -0.25909049354E+02  0.22868103046E+02  0.54419521720E+02  0.00000000000E+00 0.  1.
</event>
<event>
12    1  0.8451514E-002  0.2185305E+03  0.7818608E-02  0.1134997E+00
         21   -1    0    0  501  502  0.00000000000E+00  0.00000000000E+00  0.34967698866E+03  0.34967698866E+03  0.00000000000E+00 0. -1.
         21   -1    0    0  502  503 -0.00000000000E+00 -0.00000000000E+00 -0.14058391899E+03  0.14058391899E+03  0.00000000000E+00 0.  1.
         -6    2    1    2    0  503  0.84849781200E+02 -0.10366990919E+03  0.14621149856E+03  0.26293225673E+03  0.17265177056E+03 0.  0.
        -24    2    3    3    0    0  0.10798834107E+03 -0.25583238711E+02  0.97575901057E+02  0.16795629975E+03  0.79826551033E+02 0.  0.
          6    2    1    2  501    0 -0.84849781200E+02  0.10366990919E+03  0.62881571110E+02  0.22732865091E+03  0.17256096922E+03 0.  0.
         24    2    5    5    0    0 -0.73269628194E+02  0.12798824905E+03  0.87177179318E+02  0.19075204397E+03  0.83887134737E+02 0.  0.
          5    1    5    5  501    0 -0.11580153006E+02 -0.24318339857E+02 -0.24295608208E+02  0.36576606940E+02  0.47000000000E+01 0. -1.
        -13    1    6    6    0    0  0.95461844830E+01  0.64156575986E+02  0.38357256511E+02  0.75355656772E+02  0.00000000000E+00 0.  1.
         14    1    6    6    0    0 -0.82815812677E+02  0.63831673061E+02  0.48819922807E+02  0.11539638720E+03  0.00000000000E+00 0. -1.
         -5    1    3    3    0  503 -0.23138559872E+02 -0.78086670479E+02  0.48635597505E+02  0.94975956980E+02  0.47000000000E+01 0.  1.
         13    1    4    4    0    0  0.10460075070E+03 -0.25142683760E+02  0.47223965584E+02  0.11748861442E+03  0.00000000000E+00 0. -1.
        -14    1    4    4    0    0  0.33875903767E+01 -0.44055495114E+00  0.50351935473E+02  0.50467685335E+02  0.00000000000E+00 0.  1.
</event>
<event>
12    1  0.8451514E-002  0.1981302E+03  0.7818608E-02  0.1153199E+00
         21   -1    0    0  503  502  0.00000000000E+00  0.00000000000E+00  0.12468740095E+03  0.12468740095E+03  0.00000000000E+00 0. -1.
         21   -1    0    0  501  503 -0.00000000000E+00 -0.00000000000E+00 -0.69581375067E+03  0.69581375067E+03  0.00000000000E+00 0. -1.
          6    2    1    2  501    0  0.77868932683E+02 -0.15308361004E+02 -0.59714731790E+03  0.62915857300E+03  0.18154248566E+03 0.  0.
         24    2    3    3    0    0  0.45864524162E+02  0.52746410190E+02 -0.46673950532E+03  0.47854641668E+03  0.79215962577E+02 0.  0.
         -6    2    1    2    0  502 -0.77868932683E+02  0.15308361004E+02  0.26020968184E+02  0.19134257862E+03  0.17215392826E+03 0.  0.
        -24    2    5    5    0    0  0.42093725310E+01 -0.36763407801E+02  0.33291652570E+02  0.93755334863E+02  0.79451001971E+02 0.  0.
          5    1    3    3  501    0  0.32004408521E+02 -0.68054771194E+02 -0.13040781259E+03  0.15061215632E+03  0.47000000000E+01 0. -1.
        -13    1    4    4    0    0  0.28968230183E+02  0.30683526569E+02 -0.43201602137E+03  0.43407197546E+03  0.00000000000E+00 0.  1.
         14    1    4    4    0    0  0.16896293979E+02  0.22062883621E+02 -0.34723483949E+02  0.44474441216E+02  0.00000000000E+00 0. -1.
         -5    1    5    5    0  502 -0.82078305214E+02  0.52071768805E+02 -0.72706843859E+01  0.97587243760E+02  0.47000000000E+01 0.  1.
         11    1    6    6    0    0 -0.37344523273E+02 -0.23004431323E+02  0.15900518608E+02  0.46654515012E+02  0.00000000000E+00 0. -1.
        -12    1    6    6    0    0  0.41553895804E+02 -0.13758976478E+02  0.17391133963E+02  0.47100819852E+02  0.00000000000E+00 0.  1.
</event>
<event>
12    1  0.8451514E-002  0.1827137E+03  0.7818608E-02  0.1165451E+00
         21   -1    0    0  501  502  0.00000000000E+00  0.00000000000E+00  0.28050999871E+03  0.28050999871E+03  0.00000000000E+00 0.  1.
         21   -1    0    0  502  503 -0.00000000000E+00 -0.00000000000E+00 -0.12246688298E+03  0.12246688298E+03  0.00000000000E+00 0.  1.
         -6    2    1    2    0  503  0.57070751720E+02 -0.17645840162E+02  0.41790167697E+02  0.18641501060E+03  0.17156832949E+03 0.  0.
        -24    2    3    3    0    0  0.53715579950E+02  0.53603819025E+02  0.28708328458E+02  0.11374455148E+03  0.79717764170E+02 0.  0.
          6    2    1    2  501    0 -0.57070751720E+02  0.17645840162E+02  0.11625294804E+03  0.21656187108E+03  0.17267266634E+03 0.  0.
         24    2    5    5    0    0 -0.75847041735E+02  0.22810347104E+02  0.14403472151E+03  0.18231076692E+03  0.78855114359E+02 0.  0.
          5    1    5    5  501    0  0.18776290015E+02 -0.51645069421E+01 -0.27781773474E+02  0.34251104158E+02  0.47000000000E+01 0. -1.
        -11    1    6    6    0    0 -0.42237686834E+02 -0.27514492183E+02  0.54450027645E+02  0.74201583405E+02  0.00000000000E+00 0.  1.
         12    1    6    6    0    0 -0.33609354901E+02  0.50324839288E+02  0.89584693865E+02  0.10810918352E+03  0.00000000000E+00 0. -1.
         -5    1    3    3    0  503  0.33551717701E+01 -0.71249659188E+02  0.13081839239E+02  0.72670459128E+02  0.47000000000E+01 0.  1.
         11    1    4    4    0    0  0.62992383124E+02  0.34779135719E+02  0.46966759933E+02  0.85927324824E+02  0.00000000000E+00 0. -1.
        -12    1    4    4    0    0 -0.92768031736E+01  0.18824683307E+02 -0.18258431474E+02  0.27817226652E+02  0.00000000000E+00 0.  1.
</event>
<event>
12    1  0.8451514E-002  0.1746654E+03  0.7818608E-02  0.1173349E+00
         21   -1    0    0  503  502  0.00000000000E+00  0.00000000000E+00  0.29425285087E+02  0.29425285087E+02  0.00000000000E+00 0.  1.
         21   -1    0    0  501  503 -0.00000000000E+00 -0.00000000000E+00 -0.18901886773E+04  0.18901886773E+04  0.00000000000E+00 0.  1.
          6    2    1    2  501    0  0.16337006071E+02  0.18208671497E+02 -0.15761655930E+04  0.15856919759E+04  0.17182145539E+03 0.  0.
         24    2    3    3    0    0  0.55946212345E+02  0.60867590424E+02 -0.10381494979E+04  0.10445154047E+04  0.80144922505E+02 0.  0.
         -6    2    1    2    0  502 -0.16337006071E+02 -0.18208671497E+02 -0.28459779928E+03  0.33392198651E+03  0.17294372563E+03 0.  0.
        -24    2    5    5    0    0  0.48242747032E+02 -0.41473766942E+02 -0.13595231423E+03  0.17012522402E+03  0.80075739880E+02 0.  0.
          5    1    3    3  501    0 -0.39609206274E+02 -0.42658918927E+02 -0.53801609510E+03  0.54117657116E+03  0.47000000000E+01 0. -1.
        -13    1    4    4    0    0  0.76308717357E+02  0.40799490370E+02 -0.77119271020E+03  0.77603209665E+03  0.00000000000E+00 0.  1.
         14    1    4    4    0    0 -0.20362505012E+02  0.20068100054E+02 -0.26695678766E+03  0.26848330810E+03  0.00000000000E+00 0. -1.
         -5    1    5    5    0  502 -0.64579753103E+02  0.23265095445E+02 -0.14864548505E+03  0.16379676249E+03  0.47000000000E+01 0.  1.
         11    1    6    6    0    0 -0.18144278206E+02  0.51805676398E+01 -0.41613822099E+02  0.45692048568E+02  0.00000000000E+00 0. -1.
        -12    1    6    6    0    0  0.66387025237E+02 -0.46654334582E+02 -0.94338492135E+02  0.12443317545E+03  0.00000000000E+00 0.  1.
</event>
<event>
12    1  0.8451514E-002  0.1983173E+03  0.7818608E-02  0.1151227E+00
         21   -1    0    0  501  502  0.00000000000E+00  0.00000000000E+00  0.17675464040E+03  0.17675464040E+03  0.00000000000E+00 0. -1.
         21   -1    0    0  502  503 -0.00000000000E+00 -0.00000000000E+00 -0.31759527839E+03  0.31759527839E+03  0.00000000000E+00 0. -1.
         -6    2    1    2    0  503 -0.64189238275E+02 -0.74710673023E+02 -0.20592569372E+03  0.28589359172E+03  0.17212731183E+03 0.  0.
        -24    2    3    3    0    0 -0.15950719481E+02  0.24953968351E+02 -0.11821624184E+03  0.14456053336E+03  0.77753083430E+02 0.  0.
          6    2    1    2  501    0  0.64189238275E+02  0.74710673023E+02  0.65085055727E+02  0.20845632707E+03  0.17180230744E+03 0.  0.
         24    2    5    5    0    0  0.94031655916E+02  0.97884516069E+02  0.40429813061E+02  0.16309590508E+03  0.80884940925E+02 0.  0.
          5    1    5    5  501    0 -0.29842417641E+02 -0.23173843046E+02  0.24655242666E+02  0.45360421990E+02  0.47000000000E+01 0. -1.
        -13    1    6    6    0    0  0.46273342432E+01  0.34183358618E+02 -0.17815539747E+02  0.38824060647E+02  0.00000000000E+00 0.  1.
         14    1    6    6    0    0  0.89404321673E+02  0.63701157450E+02  0.58245352809E+02  0.12427184443E+03  0.00000000000E+00 0. -1.
         -5    1    3    3    0  503 -0.48238518794E+02 -0.99664641374E+02 -0.87709451876E+02  0.14133305836E+03  0.47000000000E+01 0.  1.
         11    1    4    4    0    0 -0.41571289823E+02  0.20263197657E+02 -0.10628661676E+03  0.11591209695E+03  0.00000000000E+00 0. -1.
        -12    1    4    4    0    0  0.25620570342E+02  0.46907706936E+01 -0.11929625079E+02  0.28648436413E+02  0.00000000000E+00 0.  1.
</event>
<event>
12    1  0.8451514E-002  0.2761169E+03  0.7818608E-02  0.1098058E+00
         21   -1    0    0  501  502  0.00000000000E+00  0.00000000000E+00  0.97465100541E+03  0.97465100541E+03  0.00000000000E+00 0. -1.
         21   -1    0    0  502  503 -0.00000000000E+00 -0.00000000000E+00 -0.12916855161E+03  0.12916855161E+03  0.00000000000E+00 0.  1.
         -6    2    1    2    0  503  0.19145316267E+03 -0.10134305422E+03  0.73793925043E+02  0.28421980509E+03  0.16855451966E+03 0.  0.
        -24    2    3    3    0    0  0.36633005579E+02 -0.71426303673E+02  0.55884047885E+02  0.12545221802E+03  0.78559138512E+02 0.  0.
          6    2    1    2  501    0 -0.19145316267E+03  0.10134305422E+03  0.77168852876E+03  0.81959975193E+03  0.17121869001E+03 0.  0.
         24    2    5    5    0    0 -0.21226923916E+03  0.10735177043E+03  0.66486233211E+03  0.71049732299E+03  0.78625013815E+02 0.  0.
          5    1    5    5  501    0  0.20816076499E+02 -0.60087162134E+01  0.10682619664E+03  0.10910242894E+03  0.47000000000E+01 0. -1.
        -11    1    6    6    0    0 -0.68766804507E+02 -0.31551045113E+01  0.16239650752E+03  0.17638439200E+03  0.00000000000E+00 0.  1.
         12    1    6    6    0    0 -0.14350243466E+03  0.11050687495E+03  0.50246582459E+03  0.53411293099E+03  0.00000000000E+00 0. -1.
         -5    1    3    3    0  503  0.15482015709E+03 -0.29916750547E+02  0.17909877158E+02  0.15876758707E+03  0.47000000000E+01 0.  1.
         13    1    4    4    0    0  0.24328429970E+02  0.79323472734E+01  0.33364892543E+02  0.42047719230E+02  0.00000000000E+00 0. -1.
        -14    1    4    4    0    0  0.12304575609E+02 -0.79358650946E+02  0.22519155342E+02  0.83404498789E+02  0.00000000000E+00 0.  1.
</event>
<event>
12    1  0.8451514E-002  0.1752127E+03  0.7818608E-02  0.1172572E+00
         21   -1    0    0  501  502  0.00000000000E+00  0.00000000000E+00  0.18963070914E+03  0.18963070914E+03  0.00000000000E+00 0. -1.
         21   -1    0    0  502  503 -0.00000000000E+00 -0.00000000000E+00 -0.16224979806E+03  0.16224979806E+03  0.00000000000E+00 0. -1.
         -6    2    1    2    0  503  0.13545193863E+02  0.28942126689E+02  0.24013991484E+02  0.17685072355E+03  0.17227416423E+03 0.  0.
        -24    2    3    3    0    0 -0.15841370829E+02  0.61218970104E+02 -0.31429894339E+02  0.10612958612E+03  0.79227138412E+02 0.  0.
          6    2    1    2  501    0 -0.13545193863E+02 -0.28942126689E+02  0.33669195990E+01  0.17502978364E+03  0.17205513663E+03 0.  0.
         24    2    5    5    0    0 -0.72416176628E+02  0.64310440752E+00 -0.57566804407E+01  0.10834838752E+03  0.80384808818E+02 0.  0.
          5    1    5    5  501    0  0.58870982765E+02 -0.29585231097E+02  0.91236000396E+01  0.66681396119E+02  0.47000000000E+01 0. -1.
        -13    1    6    6    0    0 -0.22625342593E+02  0.46355735731E+01 -0.41109569161E+02  0.47152850883E+02  0.00000000000E+00 0.  1.
         14    1    6    6    0    0 -0.49790834035E+02 -0.39924691656E+01  0.35352888721E+02  0.61195536641E+02  0.00000000000E+00 0. -1.
         -5    1    3    3    0  503  0.29386564692E+02 -0.32276843415E+02  0.55443885823E+02  0.70721137437E+02  0.47000000000E+01 0.  1.
         11    1    4    4    0    0  0.13780746375E+02 -0.82369353407E+01 -0.25830544193E+02  0.30413370214E+02  0.00000000000E+00 0. -1.
        -12    1    4    4    0    0 -0.29622117203E+02  0.69455905445E+02 -0.55993501457E+01  0.75716215904E+02  0.00000000000E+00 0.  1.
</event>
<event>
12    1  0.8451514E-002  0.2833991E+03  0.7818608E-02  0.1094068E+00
         21   -1    0    0  503  502  0.00000000000E+00  0.00000000000E+00  0.31073797812E+03  0.31073797812E+03  0.00000000000E+00 0. -1.
         21   -1    0    0  501  503 -0.00000000000E+00 -0.00000000000E+00 -0.30718300977E+03  0.30718300977E+03  0.00000000000E+00 0.  1.
          6    2    1    2  501    0  0.12887194285E+03  0.18226830358E+03 -0.12312896719E+03  0.30899161033E+03  0.17460057430E+03 0.  0.
         24    2    3    3    0    0  0.10388606415E+03  0.90933645385E+02 -0.14061868778E+03  0.21258469020E+03  0.79733261368E+02 0.  0.
         -6    2    1    2    0  502 -0.12887194285E+03 -0.18226830358E+03  0.12668393554E+03  0.30892937756E+03  0.17192681190E+03 0.  0.
        -24    2    5    5    0    0  0.10604613550E+01 -0.92284300565E+02  0.39219403207E+02  0.12823160536E+03  0.79922877297E+02 0.  0.
          5    1    3    3  501    0  0.24985878702E+02  0.91334658192E+02  0.17489720586E+02  0.96406920124E+02  0.47000000000E+01 0. -1.
        -11    1    4    4    0    0  0.69227482338E+02  0.32441846289E+02 -0.28756425137E+02  0.81681391321E+02  0.00000000000E+00 0.  1.
         12    1    4    4    0    0  0.34658581812E+02  0.58491799096E+02 -0.11186226264E+03  0.13090329888E+03  0.00000000000E+00 0. -1.
         -5    1    5    5    0  502 -0.12993240421E+03 -0.89984003013E+02  0.87464532336E+02  0.18069777220E+03  0.47000000000E+01 0.  1.
         11    1    6    6    0    0 -0.25780936152E+01 -0.54942796573E+02 -0.19662865726E+02  0.58412205493E+02  0.00000000000E+00 0. -1.
        -12    1    6    6    0    0  0.36385549702E+01 -0.37341503991E+02  0.58882268933E+02  0.69819399864E+02  0.00000000000E+00 0.  1.
</event>
<event>
12    1  0.8451514E-002  0.2453838E+03  0.7818608E-02  0.1117051E+00
         21   -1    0    0  501  502  0.00000000000E+00  0.00000000000E+00  0.15481262188E+03  0.15481262188E+03  0.00000000000E+00 0.  1.
         21   -1    0    0  502  503 -0.00000000000E+00 -0.00000000000E+00 -0.40685428547E+03  0.40685428547E+03  0.00000000000E+00 0. -1.
         -6    2    1    2    0  503 -0.11497207691E+03 -0.13190137499E+03 -0.19523153565E+03  0.30979272006E+03  0.16504431435E+03 0.  0.
        -24    2    3    3    0    0 -0.13696321355E+03 -0.12697145828E+03 -0.20021620739E+03  0.28623744206E+03  0.83454601150E+02 0.  0.
          6    2    1    2  501    0  0.11497207691E+03  0.13190137499E+03 -0.56810127938E+02  0.25187418728E+03  0.17203681115E+03 0.  0.
         24    2    5    5    0    0  0.13858234594E+02  0.61356441256E+02 -0.76752827875E+02  0.12689259638E+03  0.79082683818E+02 0.  0.
          5    1    5    5  501    0  0.10111384231E+03  0.70544933736E+02  0.19942699937E+02  0.12498159090E+03  0.47000000000E+01 0. -1.
        -13    1    6    6    0    0  0.26673934775E+02  0.25473649543E+02  0.44924381403E+01  0.37156259471E+02  0.00000000000E+00 0.  1.
         14    1    6    6    0    0 -0.12815700181E+02  0.35882791713E+02 -0.81245266015E+02  0.89736336910E+02  0.00000000000E+00 0. -1.
         -5    1    3    3    0  503  0.21991136638E+02 -0.49299167073E+01  0.49846717402E+01  0.23555278001E+02  0.47000000000E+01 0.  1.
         11    1    4    4    0    0 -0.14504855298E+02  0.91489715731E+01 -0.37705071908E+02  0.41421817387E+02  0.00000000000E+00 0. -1.
        -12    1    4    4    0    0 -0.12245835825E+03 -0.13612042986E+03 -0.16251113548E+03  0.24481562467E+03  0.00000000000E+00 0.  1.
</event>
<event>
12    1  0.8451514E-002  0.2441471E+03  0.7818608E-02  0.1117133E+00
         21   -1    0    0  503  502  0.00000000000E+00  0.00000000000E+00  0.15494725080E+03  0.15494725080E+03  0.00000000000E+00 0.  1.
         21   -1    0    0  501  503 -0.00000000000E+00 -0.00000000000E+00 -0.42127606017E+03  0.42127606017E+03  0.00000000000E+00 0. -1.
          6    2    1    2  501    0 -0.11300662460E+03  0.13050191175E+03 -0.21875516838E+03  0.32748439757E+03  0.17202023366E+03 0.  0.
         24    2    3    3    0    0 -0.13311786072E+03  0.13971279874E+03 -0.22483579313E+03  0.30406717625E+03  0.68305803735E+02 0.  0.
         -6    2    1    2    0  502  0.11300662460E+03 -0.13050191175E+03 -0.47573640989E+02  0.24873891340E+03  0.17264573423E+03 0.  0.
        -24    2    5    5    0    0  0.54354523487E+02  0.45486234595E+01 -0.25773593082E+02  0.99822668099E+02  0.79531017641E+02 0.  0.
          5    1    3    3  501    0  0.20111236112E+02 -0.92108869922E+01  0.60806247567E+01  0.23417221325E+02  0.47000000000E+01 0. -1.
        -13    1    4    4    0    0 -0.13878610403E+02  0.40076944794E+02 -0.19809108166E+02  0.46810021332E+02  0.00000000000E+00 0.  1.
         14    1    4    4    0    0 -0.11923925031E+03  0.99635853948E+02 -0.20502668497E+03  0.25725715492E+03  0.00000000000E+00 0. -1.
         -5    1    5    5    0  502  0.58652101116E+02 -0.13505053521E+03 -0.21800047907E+02  0.14891624530E+03  0.47000000000E+01 0.  1.
         13    1    6    6    0    0  0.14649241606E+02 -0.11873034915E+02 -0.47910830377E+02  0.51488026814E+02  0.00000000000E+00 0. -1.
        -14    1    6    6    0    0  0.39705281882E+02  0.16421658374E+02  0.22137237296E+02  0.48334641285E+02  0.00000000000E+00 0.  1.
</event>
<event>
12    1  0.8451514E-002  0.3136110E+03  0.7818608E-02  0.1078649E+00
         21   -1    0    0  501  502  0.00000000000E+00  0.00000000000E+00  0.41508001869E+03  0.41508001869E+03  0.00000000000E+00 0.  1.
         21   -1    0    0  502  503 -0.00000000000E+00 -0.00000000000E+00 -0.27142798370E+03  0.27142798370E+03  0.00000000000E+00 0. -1.
         -6    2    1    2    0  503  0.17321903338E+03 -0.19649922207E+03 -0.50734201337E+02  0.31768823045E+03  0.17243861163E+03 0.  0.
        -24    2    3    3    0    0  0.10376653506E+03 -0.40384967609E+02  0.10880569637E+02  0.13599128504E+03  0.77309788544E+02 0.  0.
          6    2    1    2  501    0 -0.17321903338E+03  0.19649922207E+03  0.19438623633E+03  0.36881977195E+03  0.17211983472E+03 0.  0.
         24    2    5    5    0    0 -0.13398289727E+03  0.19984810301E+03  0.20728994172E+03  0.32711503608E+03  0.78386515773E+02 0.  0.
          5    1    5    5  501    0 -0.39236136112E+02 -0.33488809398E+01 -0.12903705394E+02  0.41704735863E+02  0.47000000000E+01 0. -1.
        -11    1    6    6    0    0 -0.82901914406E+02  0.70001087578E+02  0.12334528701E+03  0.16427702062E+03  0.00000000000E+00 0.  1.
         12    1    6    6    0    0 -0.51080982862E+02  0.12984701543E+03  0.83944654709E+02  0.16283801547E+03  0.00000000000E+00 0. -1.
         -5    1    3    3    0  503  0.69452498320E+02 -0.15611425446E+03 -0.61614770974E+02  0.18169694541E+03  0.47000000000E+01 0.  1.
         11    1    4    4    0    0  0.13494744254E+02 -0.60076528310E+01 -0.28163960104E+02  0.31802651836E+02  0.00000000000E+00 0. -1.
        -12    1    4    4    0    0  0.90271790806E+02 -0.34377314778E+02  0.39044529742E+02  0.10418863321E+03  0.00000000000E+00 0.  1.
</event>
<event>
12    1  0.8451514E-002  0.2071485E+03  0.7818608E-02  0.1144096E+00
         21   -1    0    0  501  502  0.00000000000E+00  0.00000000000E+00  0.20244853372E+03  0.20244853372E+03  0.00000000000E+00 0.  1.
         21   -1    0    0  502  503 -0.00000000000E+00 -0.00000000000E+00 -0.32565359468E+03  0.32565359468E+03  0.00000000000E+00 0. -1.
         -6    2    1    2    0  503 -0.94398851874E+02 -0.68771828468E+02 -0.21837325008E+03  0.30013833576E+03  0.16957428053E+03 0.  0.
        -24    2    3    3    0    0 -0.13299098549E+03 -0.50718331602E+02 -0.17355599562E+03  0.23812254888E+03  0.79509202525E+02 0.  0.
          6    2    1    2  501    0  0.94398851874E+02  0.68771828468E+02  0.95168189120E+02  0.22796379264E+03  0.17108418661E+03 0.  0.
         24    2    5    5    0    0  0.85747303726E+02  0.10752192796E+03  0.98939832704E+02  0.18780492325E+03  0.81043405729E+02 0.  0.
          5    1    5    5  501    0  0.86515481482E+01 -0.38750099488E+02 -0.37716435846E+01  0.40158869394E+02  0.47000000000E+01 0. -1.
        -13    1    6    6    0    0  0.86781540597E+02  0.46229395264E+02  0.60569905008E+02  0.11548552363E+03  0.00000000000E+00 0.  1.
         14    1    6    6    0    0 -0.10342368713E+01  0.61292532692E+02  0.38369927696E+02  0.72319399618E+02  0.00000000000E+00 0. -1.
         -5    1    3    3    0  503  0.38592133612E+02 -0.18053496866E+02 -0.44817254457E+02  0.62015786885E+02  0.47000000000E+01 0.  1.
         11    1    4    4    0    0 -0.80083800128E+02 -0.38006526310E+02 -0.15859999274E+03  0.18169168606E+03  0.00000000000E+00 0. -1.
        -12    1    4    4    0    0 -0.52907185358E+02 -0.12711805292E+02 -0.14956002880E+02  0.56430862819E+02  0.00000000000E+00 0.  1.
</event>
<event>
12    1  0.8451514E-002  0.1877989E+03  0.7818608E-02  0.1161738E+00
         21   -1    0    0  501  502  0.00000000000E+00  0.00000000000E+00  0.28033140594E+03  0.28033140594E+03  0.00000000000E+00 0.  1.
         21   -1    0    0  502  503 -0.00000000000E+00 -0.00000000000E+00 -0.45445156489E+03  0.45445156489E+03  0.00000000000E+00 0.  1.
         -6    2    1    2    0  503  0.35105308538E+02 -0.45534625154E+02 -0.40085878124E+03  0.44037025793E+03  0.17300987485E+03 0.  0.
        -24    2    3    3    0    0  0.53630221065E+02 -0.66803192528E+02 -0.39391521960E+03  0.41094531289E+03  0.79799641674E+02 0.  0.
          6    2    1    2  501    0 -0.35105308538E+02  0.45534625154E+02  0.22673862229E+03  0.29441271290E+03  0.17878103341E+03 0.  0.
         24    2    5    5    0    0 -0.54493217654E+02  0.47720096164E+02  0.24484161554E+03  0.26738539953E+03  0.79377684755E+02 0.  0.
          5    1    5    5  501    0  0.19387909117E+02 -0.21854710104E+01 -0.18102993250E+02  0.27027313371E+02  0.47000000000E+01 0. -1.
        -11    1    6    6    0    0  0.58389564181E+01  0.46213122707E+02  0.11993703123E+03  0.12866482652E+03  0.00000000000E+00 0.  1.
         12    1    6    6    0    0 -0.60332174072E+02  0.15069734572E+01  0.12490458430E+03  0.13872057301E+03  0.00000000000E+00 0. -1.
         -5    1    3    3    0  503 -0.18524912527E+02  0.21268567375E+02 -0.69435616395E+01  0.29424945039E+02  0.47000000000E+01 0.  1.
         11    1    4    4    0    0 -0.14051562208E+02  0.70181808783E+01 -0.35900930995E+02  0.39186453139E+02  0.00000000000E+00 0. -1.
        -12    1    4    4    0    0  0.67681783273E+02 -0.73821373406E+02 -0.35801428860E+03  0.37175885975E+03  0.00000000000E+00 0.  1.
</event>
<event>
12    1  0.8451514E-002  0.1785804E+03  0.7818608E-02  0.1169391E+00
         21   -1    0    0  503  502  0.00000000000E+00  0.00000000000E+00  0.13163812264E+03  0.13163812264E+03  0.00000000000E+00 0.  1.
         21   -1    0    0  501  503 -0.00000000000E+00 -0.00000000000E+00 -0.24914477721E+03  0.24914477721E+03  0.00000000000E+00 0.  1.
          6    2    1    2  501    0  0.41334969099E+02  0.17800529923E+02 -0.24443524828E+02  0.17940839789E+03  0.17194315569E+03 0.  0.
         24    2    3    3    0    0  0.39275328889E+02  0.27094354709E+02  0.48736307569E+02  0.10546250438E+03  0.80439148664E+02 0.  0.
         -6    2    1    2    0  502 -0.41334969099E+02 -0.17800529923E+02 -0.93063129748E+02  0.20137450196E+03  0.17281639212E+03 0.  0.
        -24    2    5    5    0    0 -0.58490185928E+02  0.43415573952E+01 -0.12399462863E+03  0.15938139398E+03  0.81165324164E+02 0.  0.
          5    1    3    3  501    0  0.20596402098E+01 -0.92938247865E+01 -0.73179832397E+02  0.73945893508E+02  0.47000000000E+01 0. -1.
        -11    1    4    4    0    0 -0.15723434116E+02  0.30499137111E+01 -0.12043218028E+02  0.20039148048E+02  0.00000000000E+00 0.  1.
         12    1    4    4    0    0  0.54998763005E+02  0.24044440998E+02  0.60779525597E+02  0.85423356330E+02  0.00000000000E+00 0. -1.
         -5    1    5    5    0  502  0.17155216829E+02 -0.22142087318E+02  0.30931498882E+02  0.41993107986E+02  0.47000000000E+01 0.  1.
         11    1    6    6    0    0 -0.49563742877E+02  0.27382129819E+02 -0.12211022699E+03  0.13460034612E+03  0.00000000000E+00 0. -1.
        -12    1    6    6    0    0 -0.89264430514E+01 -0.23040572424E+02 -0.18844016408E+01  0.24781047853E+02  0.00000000000E+00 0.  1.
</event>
<event>
12    1  0.8451514E-002  0.1828891E+03  0.7818608E-02  0.1165365E+00
         21   -1    0    0  501  502  0.00000000000E+00  0.00000000000E+00  0.14666967814E+03  0.14666967814E+03  0.00000000000E+00 0.  1.
         21   -1    0    0  502  503 -0.00000000000E+00 -0.00000000000E+00 -0.46762276461E+03  0.46762276461E+03  0.00000000000E+00 0.  1.
         -6    2    1    2    0  503  0.41662761581E+02  0.39963136520E+02 -0.38140169862E+03  0.42298425316E+03  0.17353842436E+03 0.  0.
        -24    2    3    3    0    0  0.41646230103E+02 -0.29953171682E+02 -0.30422829548E+03  0.31874359614E+03  0.80068866163E+02 0.  0.
          6    2    1    2  501    0 -0.41662761581E+02 -0.39963136520E+02  0.60448612149E+02  0.19130818959E+03  0.17208123289E+03 0.  0.
         24    2    5    5    0    0 -0.44916096500E+02  0.31617221764E+02  0.69535485724E+02  0.11892730018E+03  0.79318437436E+02 0.  0.
          5    1    5    5  501    0  0.32533349190E+01 -0.71580358284E+02 -0.90868735755E+01  0.72380889408E+02  0.47000000000E+01 0. -1.
        -13    1    6    6    0    0 -0.65020320585E+02  0.12631815017E+02  0.60848497418E+02  0.89943006830E+02  0.00000000000E+00 0.  1.
         14    1    6    6    0    0  0.20104224085E+02  0.18985406747E+02  0.86869883066E+01  0.28984293354E+02  0.00000000000E+00 0. -1.
         -5    1    3    3    0  503  0.16531477769E-01  0.69916308202E+02 -0.77173403132E+02  0.10424065702E+03  0.47000000000E+01 0.  1.
         13    1    4    4    0    0  0.56392920340E+02 -0.35746740109E+02 -0.15622681094E+03  0.16989646068E+03  0.00000000000E+00 0. -1.
        -14    1    4    4    0    0 -0.14746690237E+02  0.57935684279E+01 -0.14800148454E+03  0.14884713546E+03  0.00000000000E+00 0.  1.
</event>
<event>
12    1  0.8451514E-002  0.2382996E+03  0.7818608E-02  0.1121398E+00
         21   -1    0    0  501  502  0.00000000000E+00  0.00000000000E+00  0.12618101810E+04  0.12618101810E+04  0.00000000000E+00 0.  1.
         21   -1    0    0  502  503 -0.00000000000E+00 -0.00000000000E+00 -0.45620554557E+02  0.45620554557E+02  0.00000000000E+00 0.  1.
         -6    2    1    2    0  503 -0.12809894461E+03  0.97984742663E+02  0.70783017432E+03  0.74598969728E+03  0.17165874102E+03 0.  0.
        -24    2    3    3    0    0 -0.18196237433E+02  0.54369009058E+01  0.36967324004E+03  0.37854458538E+03  0.79227746217E+02 0.  0.
          6    2    1    2  501    0  0.12809894461E+03 -0.97984742663E+02  0.50835945214E+03  0.56144103829E+03  0.17543191698E+03 0.  0.
         24    2    5    5    0    0  0.85175125765E+02 -0.83207175512E+02  0.49252182882E+03  0.51313212578E+03  0.80923362178E+02 0.  0.
          5    1    5    5  501    0  0.42923818845E+02 -0.14777567152E+02  0.15837623325E+02  0.48308912509E+02  0.47000000000E+01 0. -1.
        -11    1    6    6    0    0  0.64686394423E+02 -0.79239629805E+01  0.25090589656E+03  0.25923134020E+03  0.00000000000E+00 0.  1.
         12    1    6    6    0    0  0.20488731342E+02 -0.75283212531E+02  0.24161593225E+03  0.25390078558E+03  0.00000000000E+00 0. -1.
         -5    1    3    3    0  503 -0.10990270718E+03  0.92547841758E+02  0.33815693427E+03  0.36744511189E+03  0.47000000000E+01 0.  1.
         11    1    4    4    0    0  0.31310543201E+01  0.40397303516E+02  0.18496512566E+03  0.18935111128E+03  0.00000000000E+00 0. -1.
        -12    1    4    4    0    0 -0.21327291753E+02 -0.34960402610E+02  0.18470811439E+03  0.18919347411E+03  0.00000000000E+00 0.  1.
</event>
<event>
12    1  0.8451514E-002  0.2667232E+03  0.7818608E-02  0.1103178E+00
         21   -1    0    0  501  502  0.00000000000E+00  0.00000000000E+00  0.43880901517E+03  0.43880901517E+03  0.00000000000E+00 0.  1.
         21   -1    0    0  502  503 -0.00000000000E+00 -0.00000000000E+00 -0.20233178973E+03  0.20233178973E+03  0.00000000000E+00 0. -1.
         -6    2    1    2    0  503 -0.14964222403E+03 -0.13809379599E+03  0.26121764087E+03  0.37333083435E+03  0.17227467679E+03 0.  0.
        -24    2    3    3    0    0 -0.14382515742E+03 -0.40842655899E+02  0.15566237747E+03  0.22961018118E+03  0.78334290666E+02 0.  0.
          6    2    1    2  501    0  0.14964222403E+03  0.13809379599E+03 -0.24740415428E+02  0.26780997056E+03  0.17218420505E+03 0.  0.
         24    2    5    5    0    0  0.26793753648E+02  0.91438910783E+02 -0.50625898679E+02  0.13379290734E+03  0.79111192617E+02 0.  0.
          5    1    5    5  501    0  0.12284847039E+03  0.46654885212E+02  0.25885483251E+02  0.13401706322E+03  0.47000000000E+01 0. -1.
        -11    1    6    6    0    0 -0.43428697172E+01  0.19133539593E+02  0.20010150306E+02  0.28024256815E+02  0.00000000000E+00 0.  1.
         12    1    6    6    0    0  0.31136623366E+02  0.72305371190E+02 -0.70636048984E+02  0.10576865052E+03  0.00000000000E+00 0. -1.
         -5    1    3    3    0  503 -0.58170666150E+01 -0.97251140096E+02  0.10555526341E+03  0.14372065317E+03  0.47000000000E+01 0.  1.
         13    1    4    4    0    0 -0.22897681925E+02  0.22433329342E+02  0.24818682305E+02  0.40540413099E+02  0.00000000000E+00 0. -1.
        -14    1    4    4    0    0 -0.12092747549E+03 -0.63275985241E+02  0.13084369516E+03  0.18906976808E+03  0.00000000000E+00 0.  1.
</event>
<event>
12    1  0.8451514E-002  0.2221995E+03  0.7818608E-02  0.1132357E+00
         21   -1    0    0  501  502  0.00000000000E+00  0.00000000000E+00  0.17847983234E+03  0.17847983234E+03  0.00000000000E+00 0.  1.
         21   -1    0    0  502  503 -0.00000000000E+00 -0.00000000000E+00 -0.28142509931E+03  0.28142509931E+03  0.00000000000E+00 0. -1.
         -6    2    1    2    0  503  0.12323586347E+03 -0.64356862037E+02 -0.19410491646E+02  0.22304570341E+03  0.17333128653E+03 0.  0.
        -24    2    3    3    0    0  0.56886975872E+01 -0.83423777211E+01 -0.32632858683E+02  0.92080518535E+02  0.85510010418E+02 0.  0.
          6    2    1    2  501    0 -0.12323586347E+03  0.64356862037E+02 -0.83534775332E+02  0.23685922824E+03  0.17261330069E+03 0.  0.
         24    2    5    5    0    0 -0.13623477149E+03  0.82111723989E+01 -0.84095939236E+02  0.17903436352E+03  0.79710977973E+02 0.  0.
          5    1    5    5  501    0  0.12998908020E+02  0.56145689638E+02  0.56116390394E+00  0.57824864717E+02  0.47000000000E+01 0. -1.
        -13    1    6    6    0    0 -0.38563166021E+02  0.22828540455E+02  0.61725526271E+01  0.45236715606E+02  0.00000000000E+00 0.  1.
         14    1    6    6    0    0 -0.97671605468E+02 -0.14617368056E+02 -0.90268491863E+02  0.13379764791E+03  0.00000000000E+00 0. -1.
         -5    1    3    3    0  503  0.11754716588E+03 -0.56014484316E+02  0.13222367037E+02  0.13096518488E+03  0.47000000000E+01 0.  1.
         13    1    4    4    0    0 -0.26001298517E+02  0.30367314661E+01  0.17644860638E+02  0.31569453108E+02  0.00000000000E+00 0. -1.
        -14    1    4    4    0    0  0.31689996105E+02 -0.11379109187E+02 -0.50277719321E+02  0.60511065427E+02  0.00000000000E+00 0.  1.
</event>
<event>
12    1  0.8451514E-002  0.2029947E+03  0.7818608E-02  0.1148792E+00
         21   -1    0    0  501  502  0.00000000000E+00  0.00000000000E+00  0.13436706144E+03  0.13436706144E+03  0.00000000000E+00 0. -1.
         21   -1    0    0  502  503 -0.00000000000E+00 -0.00000000000E+00 -0.36209797617E+03  0.36209797617E+03  0.00000000000E+00 0. -1.
         -6    2    1    2    0  503 -0.60555190288E+02 -0.71897686731E+02 -0.22191357022E+03  0.30075319265E+03  0.17991843100E+03 0.  0.
        -24    2    3    3    0    0 -0.92994075097E+02 -0.90986974965E+02 -0.21252552509E+03  0.26167752805E+03  0.79884305438E+02 0.  0.
          6    2    1    2  501    0  0.60555190288E+02  0.71897686731E+02 -0.58173445161E+01  0.19571184496E+03  0.17156070742E+03 0.  0.
         24    2    5    5    0    0  0.67564523883E+02  0.10802053234E+03 -0.16179251178E+02  0.15719626575E+03  0.90639381634E+02 0.  0.
          5    1    5    5  501    0 -0.70093335949E+01 -0.36122845605E+02  0.10361906662E+02  0.38515579208E+02  0.47000000000E+01 0. -1.
        -13    1    6    6    0    0 -0.19711509895E+02  0.26539171145E+02  0.10815583237E+02  0.34782870327E+02  0.00000000000E+00 0.  1.
         14    1    6    6    0    0  0.87276033778E+02  0.81481361190E+02 -0.26994834415E+02  0.12241339542E+03  0.00000000000E+00 0. -1.
         -5    1    3    3    0  503  0.32438884809E+02  0.19089288234E+02 -0.93880451340E+01  0.39075664605E+02  0.47000000000E+01 0.  1.
         11    1    4    4    0    0 -0.44099462439E+02 -0.90467271199E+02 -0.11674798116E+03  0.15414013381E+03  0.00000000000E+00 0. -1.
        -12    1    4    4    0    0 -0.48894612657E+02 -0.51970376587E+00 -0.95777543932E+02  0.10753739424E+03  0.00000000000E+00 0.  1.
</event>
<event>
12    1  0.8451514E-002  0.1904042E+03  0.7818608E-02  0.1158126E+00
         21   -1    0    0  501  502  0.00000000000E+00  0.00000000000E+00  0.17600382521E+02  0.17600382521E+02  0.00000000000E+00 0.  1.
         21   -1    0    0  502  503 -0.00000000000E+00 -0.00000000000E+00 -0.23006082105E+04  0.23006082105E+04  0.00000000000E+00 0. -1.
         -6    2    1    2    0  503 -0.82150216010E+02  0.65352809902E+01 -0.15172262645E+04  0.15291109079E+04  0.17150295410E+03 0.  0.
        -24    2    3    3    0    0 -0.55829206636E+02  0.69898160305E+02 -0.96722935887E+03  0.97483089190E+03  0.82219109696E+02 0.  0.
          6    2    1    2  501    0  0.82150216010E+02 -0.65352809902E+01 -0.76578156348E+03  0.78909768506E+03  0.17164610603E+03 0.  0.
         24    2    5    5    0    0  0.11482082873E+03  0.36620176199E+01 -0.70766098140E+03  0.72148521657E+03  0.80991481322E+02 0.  0.
          5    1    5    5  501    0 -0.32670612721E+02 -0.10197298610E+02 -0.58120582076E+02  0.67612468490E+02  0.47000000000E+01 0. -1.
        -13    1    6    6    0    0  0.59512345063E+02 -0.35822888491E+02 -0.28171181677E+03  0.29014917933E+03  0.00000000000E+00 0.  1.
         14    1    6    6    0    0  0.55308483668E+02  0.39484906110E+02 -0.42594916463E+03  0.43133603725E+03  0.00000000000E+00 0. -1.
         -5    1    3    3    0  503 -0.26321009374E+02 -0.63362879315E+02 -0.54999690560E+03  0.55428001604E+03  0.47000000000E+01 0.  1.
         11    1    4    4    0    0 -0.22699044518E+02  0.10275826007E+02 -0.59022810586E+02  0.64066616827E+02  0.00000000000E+00 0. -1.
        -12    1    4    4    0    0 -0.33130162118E+02  0.59622334298E+02 -0.90820654829E+03  0.91076427507E+03  0.00000000000E+00 0.  1.
</event>
<event>
12    1  0.8451514E-002  0.1855438E+03  0.7818608E-02  0.1163205E+00
         21   -1    0    0  503  502  0.00000000000E+00  0.00000000000E+00  0.36189415864E+02  0.36189415864E+02  0.00000000000E+00 0. -1.
         21   -1    0    0  501  503 -0.00000000000E+00 -0.00000000000E+00 -0.10554367888E+04  0.10554367888E+04  0.00000000000E+00 0. -1.
          6    2    1    2  501    0  0.38200456875E+02  0.48716069317E+02 -0.68909794967E+03  0.71291106832E+03  0.17191182850E+03 0.  0.
         24    2    3    3    0    0  0.21071253404E+02 -0.29777146785E+02 -0.22511078008E+03  0.24199623724E+03  0.80973077871E+02 0.  0.
         -6    2    1    2    0  502 -0.38200456875E+02 -0.48716069317E+02 -0.33014942331E+03  0.37871513639E+03  0.17491135613E+03 0.  0.
        -24    2    5    5    0    0  0.16360438044E+01  0.19953308602E+02 -0.73145502629E+02  0.10968812010E+03  0.79249025053E+02 0.  0.
          5    1    3    3  501    0  0.17129203471E+02  0.78493216102E+02 -0.46398716959E+03  0.47091483108E+03  0.47000000000E+01 0. -1.
        -13    1    4    4    0    0  0.25468796556E+02  0.21773564240E+02 -0.57161862943E+02  0.66258782609E+02  0.00000000000E+00 0.  1.
         14    1    4    4    0    0 -0.43975431524E+01 -0.51550711025E+02 -0.16794891714E+03  0.17573745463E+03  0.00000000000E+00 0. -1.
         -5    1    5    5    0  502 -0.39836500680E+02 -0.68669377919E+02 -0.25700392068E+03  0.26902701629E+03  0.47000000000E+01 0.  1.
         13    1    6    6    0    0  0.38809846739E+02  0.73616631351E+01 -0.21987954491E+02  0.45209163128E+02  0.00000000000E+00 0. -1.
        -14    1    6    6    0    0 -0.37173802935E+02  0.12591645467E+02 -0.51157548138E+02  0.64478956968E+02  0.00000000000E+00 0.  1.
</event>
<event>
12    1  0.8451514E-002  0.2099567E+03  0.7818608E-02  0.1141645E+00
         21   -1    0    0  501  502  0.00000000000E+00  0.00000000000E+00  0.18712272140E+02  0.18712272140E+02  0.00000000000E+00 0. -1.
         21   -1    0    0  502  503 -0.00000000000E+00 -0.00000000000E+00 -0.26432089163E+04  0.26432089163E+04  0.00000000000E+00 0. -1.
         -6    2    1    2    0  503  0.41814950381E+02  0.11116908081E+03 -0.17537177816E+04  0.17662411670E+04  0.17313216926E+03 0.  0.
        -24    2    3    3    0    0  0.38122442554E+01  0.12565275038E+03 -0.16012762472E+04  0.16083979101E+04  0.83994466574E+02 0.  0.
          6    2    1    2  501    0 -0.41814950381E+02 -0.11116908081E+03 -0.87077886255E+03  0.89568002139E+03  0.17285779894E+03 0.  0.
         24    2    5    5    0    0  0.44570789871E+02 -0.49892050600E+02 -0.44048665575E+03  0.45251995575E+03  0.79183612149E+02 0.  0.
          5    1    5    5  501    0 -0.86385740252E+02 -0.61277030214E+02 -0.43029220680E+03  0.44316006564E+03  0.47000000000E+01 0. -1.
        -13    1    6    6    0    0  0.53774112861E+02 -0.63872881504E+02 -0.31323230179E+03  0.32416951598E+03  0.00000000000E+00 0.  1.
         14    1    6    6    0    0 -0.92033229899E+01  0.13980830904E+02 -0.12725435396E+03  0.12835043977E+03  0.00000000000E+00 0. -1.
         -5    1    3    3    0  503  0.38002706126E+02 -0.14483669564E+02 -0.15244153438E+03  0.15784325694E+03  0.47000000000E+01 0.  1.
         13    1    4    4    0    0  0.27925797110E+02  0.73642172981E+02 -0.12496041802E+04  0.12520837140E+04  0.00000000000E+00 0. -1.
        -14    1    4    4    0    0 -0.24113552854E+02  0.52010577397E+02 -0.35167206702E+03  0.35631419607E+03  0.00000000000E+00 0.  1.
</event>
<event>
12    1  0.8451514E-002  0.1885506E+03  0.7818608E-02  0.1160581E+00
         21   -1    0    0  503  502  0.00000000000E+00  0.00000000000E+00  0.50135360460E+03  0.50135360460E+03  0.00000000000E+00 0.  1.
         21   -1    0    0  501  503 -0.00000000000E+00 -0.00000000000E+00 -0.88989900963E+02  0.88989900963E+02  0.00000000000E+00 0.  1.
          6    2    1    2  501    0 -0.54604850415E+02 -0.40446107854E+02  0.66893923260E+02  0.19676922287E+03  0.17212133153E+03 0.  0.
         24    2    3    3    0    0 -0.95939101830E+02 -0.60315954908E+02  0.55545477576E+02  0.14929071845E+03  0.79750190348E+02 0.  0.
         -6    2    1    2    0  502  0.54604850415E+02  0.40446107854E+02  0.34546978038E+03  0.39357428270E+03  0.17587998612E+03 0.  0.
        -24    2    5    5    0    0  0.23139741754E+02  0.20994233011E+02  0.62101110586E+02  0.10776259379E+03  0.82340896374E+02 0.  0.
          5    1    3    3  501    0  0.41334251415E+02  0.19869847053E+02  0.11348445685E+02  0.47478504415E+02  0.47000000000E+01 0. -1.
        -11    1    4    4    0    0 -0.72932295819E+02 -0.17124824997E+02 -0.46013977512E+00  0.74917228548E+02  0.00000000000E+00 0.  1.
         12    1    4    4    0    0 -0.23006806011E+02 -0.43191129911E+02  0.56005617351E+02  0.74373489905E+02  0.00000000000E+00 0. -1.
         -5    1    5    5    0  502  0.31465108661E+02  0.19451874843E+02  0.28336866979E+03  0.28581168891E+03  0.47000000000E+01 0.  1.
         11    1    6    6    0    0 -0.28229125639E+02 -0.64034125797E+01  0.28101371852E+02  0.40343206701E+02  0.00000000000E+00 0. -1.
        -12    1    6    6    0    0  0.51368867393E+02  0.27397645591E+02  0.33999738734E+02  0.67419387087E+02  0.00000000000E+00 0.  1.
</event>
<event>
12    1  0.8451514E-002  0.1908252E+03  0.7818608E-02  0.1160482E+00
         21   -1    0    0  501  502  0.00000000000E+00  0.00000000000E+00  0.26741452610E+02  0.26741452610E+02  0.00000000000E+00 0. -1.
         21   -1    0    0  502  503 -0.00000000000E+00 -0.00000000000E+00 -0.18079316077E+04  0.18079316077E+04  0.00000000000E+00 0. -1.
         -6    2    1    2    0  503  0.44996438050E+02  0.68193569994E+02 -0.14072859848E+04  0.14201648160E+04  0.17245062786E+03 0.  0.
        -24    2    3    3    0    0  0.76499572334E+02  0.74579044412E+02 -0.13245111675E+04  0.13312436029E+04  0.80408202354E+02 0.  0.
          6    2    1    2  501    0 -0.44996438050E+02 -0.68193569994E+02 -0.37390417021E+03  0.41450824427E+03  0.15917824488E+03 0.  0.
         24    2    5    5    0    0  0.55193106021E+01 -0.91044204774E+02 -0.23082709279E+03  0.26099234134E+03  0.80723884051E+02 0.  0.
          5    1    5    5  501    0 -0.50515748653E+02  0.22850634780E+02 -0.14307707741E+03  0.15351590293E+03  0.47000000000E+01 0. -1.
        -11    1    6    6    0    0 -0.21776815241E+02  0.12978464166E+01 -0.72225903699E+02  0.75448626578E+02  0.00000000000E+00 0.  1.
         12    1    6    6    0    0  0.27296125843E+02 -0.92342051190E+02 -0.15860118909E+03  0.18554371476E+03  0.00000000000E+00 0. -1.
         -5    1    3    3    0  503 -0.31503134283E+02 -0.63854744183E+01 -0.82774817379E+02  0.88921213135E+02  0.47000000000E+01 0.  1.
         11    1    4    4    0    0  0.54843728364E+02  0.76817507472E+02 -0.69781610331E+03  0.70417048933E+03  0.00000000000E+00 0. -1.
        -12    1    4    4    0    0  0.21655843969E+02 -0.22384630596E+01 -0.62669506415E+03  0.62707311354E+03  0.00000000000E+00 0.  1.
</event>
<event>
12    1  0.8451514E-002  0.1816285E+03  0.7818608E-02  0.1166343E+00
         21   -1    0    0  503  502  0.00000000000E+00  0.00000000000E+00  0.20618004435E+03  0.20618004435E+03  0.00000000000E+00 0. -1.
         21   -1    0    0  501  503 -0.00000000000E+00 -0.00000000000E+00 -0.26161765359E+03  0.26161765359E+03  0.00000000000E+00 0. -1.
          6    2    1    2  501    0 -0.35823092807E+02 -0.47442267484E+02 -0.17379431003E+03  0.25138295439E+03  0.17162419654E+03 0.  0.
         24    2    3    3    0    0 -0.78011603688E+02 -0.28853713767E+02 -0.65527427892E+02  0.13361533343E+03  0.81491511297E+02 0.  0.
         -6    2    1    2    0  502  0.35823092807E+02  0.47442267484E+02  0.11835670078E+03  0.21641474355E+03  0.17115189126E+03 0.  0.
        -24    2    5    5    0    0 -0.93287490700E+01 -0.45025268073E+01  0.12355223854E+03  0.14723357493E+03  0.79405740542E+02 0.  0.
          5    1    3    3  501    0  0.42188510881E+02 -0.18588553716E+02 -0.10826688214E+03  0.11776762096E+03  0.47000000000E+01 0. -1.
        -11    1    4    4    0    0 -0.23280086870E+02  0.22892566300E+02  0.16467759797E+01  0.32691648897E+02  0.00000000000E+00 0.  1.
         12    1    4    4    0    0 -0.54731516818E+02 -0.51746280068E+02 -0.67174203871E+02  0.10092368453E+03  0.00000000000E+00 0. -1.
         -5    1    5    5    0  502  0.45151841877E+02  0.51944794291E+02 -0.51955377561E+01  0.69181168618E+02  0.47000000000E+01 0.  1.
         13    1    6    6    0    0  0.28509167929E+01 -0.40659383533E+02  0.51246122926E+02  0.65478838649E+02  0.00000000000E+00 0. -1.
        -14    1    6    6    0    0 -0.12179665863E+02  0.36156856726E+02  0.72306115615E+02  0.81754736280E+02  0.00000000000E+00 0.  1.
</event>
<event>
12    1  0.8451514E-002  0.2161885E+03  0.7818608E-02  0.1139097E+00
         21   -1    0    0  501  502  0.00000000000E+00  0.00000000000E+00  0.77282484970E+03  0.77282484970E+03  0.00000000000E+00 0. -1.
         21   -1    0    0  502  503 -0.00000000000E+00 -0.00000000000E+00 -0.22835695258E+03  0.22835695258E+03  0.00000000000E+00 0.  1.
         -6    2    1    2    0  503  0.12893464363E+03  0.20318031354E+02 -0.15918768269E+03  0.26847377840E+03  0.17233829129E+03 0.  0.
        -24    2    3    3    0    0  0.68747366277E+01 -0.18982542885E+02 -0.37634786212E+02  0.91724371969E+02  0.81175022894E+02 0.  0.
          6    2    1    2  501    0 -0.12893464363E+03 -0.20318031354E+02  0.70365557981E+03  0.73270802387E+03  0.15713977384E+03 0.  0.
         24    2    5    5    0    0 -0.83130813347E+02 -0.40496079424E+02  0.64010861246E+03  0.65168054981E+03  0.79986490650E+02 0.  0.
          5    1    5    5  501    0 -0.45803830284E+02  0.20178048069E+02  0.63546967353E+02  0.81027474059E+02  0.47000000000E+01 0. -1.
        -13    1    6    6    0    0 -0.30693566988E+01  0.20778766906E+02  0.13281964376E+03  0.13447020441E+03  0.00000000000E+00 0.  1.
         14    1    6    6    0    0 -0.80061456649E+02 -0.61274846330E+02  0.50728896870E+03  0.51721034540E+03  0.00000000000E+00 0. -1.
         -5    1    3    3    0  503  0.12205990700E+03  0.39300574240E+02 -0.12155289648E+03  0.17674940644E+03  0.47000000000E+01 0.  1.
         13    1    4    4    0    0  0.25811738009E+02  0.62312647335E+01  0.14903249250E+02  0.30449652172E+02  0.00000000000E+00 0. -1.
        -14    1    4    4    0    0 -0.18937001381E+02 -0.25213807619E+02 -0.52538035462E+02  0.61274719796E+02  0.00000000000E+00 0.  1.
</event>
<event>
12    1  0.8451514E-002  0.3386089E+03  0.7818608E-02  0.1067401E+00
         21   -1    0    0  501  502  0.00000000000E+00  0.00000000000E+00  0.35896621802E+03  0.35896621802E+03  0.00000000000E+00 0.  1.
         21   -1    0    0  502  503 -0.00000000000E+00 -0.00000000000E+00 -0.31956758097E+03  0.31956758097E+03  0.00000000000E+00 0. -1.
         -6    2    1    2    0  503 -0.86628858047E+02 -0.27840658340E+03  0.29317114187E+02  0.33987566451E+03  0.17216616804E+03 0.  0.
        -24    2    3    3    0    0 -0.27710664010E+01 -0.81693992349E+02 -0.30868868967E+02  0.11767662027E+03  0.78824569082E+02 0.  0.
          6    2    1    2  501    0  0.86628858047E+02  0.27840658340E+03  0.10081522868E+02  0.33865813448E+03  0.17196775925E+03 0.  0.
         24    2    5    5    0    0 -0.49771481426E+01  0.62743392183E+02 -0.17155941622E+02  0.10272118975E+03  0.79346148144E+02 0.  0.
          5    1    5    5  501    0  0.91606006190E+02  0.21566319121E+03  0.27237464490E+02  0.23593694472E+03  0.47000000000E+01 0. -1.
        -13    1    6    6    0    0 -0.21409213214E+02  0.50846078155E+01 -0.33951283209E+02  0.40458587205E+02  0.00000000000E+00 0.  1.
         14    1    6    6    0    0  0.16432065071E+02  0.57658784368E+02  0.16795341587E+02  0.62262602550E+02  0.00000000000E+00 0. -1.
         -5    1    3    3    0  503 -0.83857791646E+02 -0.19671259105E+03  0.60185983153E+02  0.22219904425E+03  0.47000000000E+01 0.  1.
         13    1    4    4    0    0 -0.94879135555E+01 -0.15728077437E+01 -0.35852553113E+02  0.37120072636E+02  0.00000000000E+00 0. -1.
        -14    1    4    4    0    0  0.67168471544E+01 -0.80121184605E+02  0.49836841459E+01  0.80556547629E+02  0.00000000000E+00 0.  1.
</event>
<event>
12    1  0.8451514E-002  0.2075004E+03  0.7818608E-02  0.1144051E+00
         21   -1    0    0  501  502  0.00000000000E+00  0.00000000000E+00  0.14100031110E+04  0.14100031110E+04  0.00000000000E+00 0. -1.
         21   -1    0    0  502  503 -0.00000000000E+00 -0.00000000000E+00 -0.35430994879E+02  0.35430994879E+02  0.00000000000E+00 0. -1.
         -6    2    1    2    0  503  0.80387795190E+02 -0.79562566099E+02  0.40565076149E+03  0.45454309080E+03  0.17106864574E+03 0.  0.
        -24    2    3    3    0    0  0.11779531537E+03 -0.49269410840E+02  0.24581135282E+03  0.28754691005E+03  0.77180263905E+02 0.  0.
          6    2    1    2  501    0 -0.80387795190E+02  0.79562566099E+02  0.96892135463E+03  0.99089101508E+03  0.17396555051E+03 0.  0.
         24    2    5    5    0    0 -0.42209330352E+02 -0.26037688575E+02  0.48077525603E+03  0.48997414319E+03  0.80437711228E+02 0.  0.
          5    1    5    5  501    0 -0.38178464838E+02  0.10560025467E+03  0.48814609860E+03  0.50091687189E+03  0.47000000000E+01 0. -1.
        -11    1    6    6    0    0 -0.36576871516E+02 -0.34052057476E+02  0.13328285601E+03  0.14234370325E+03  0.00000000000E+00 0.  1.
         12    1    6    6    0    0 -0.56324588356E+01  0.80143689007E+01  0.34749240002E+03  0.34763043994E+03  0.00000000000E+00 0. -1.
         -5    1    3    3    0  503 -0.37407520178E+02 -0.30293155258E+02  0.15983940867E+03  0.16699618075E+03  0.47000000000E+01 0.  1.
         13    1    4    4    0    0  0.52481595328E+02 -0.54224819014E+02  0.83662985754E+02  0.11266829204E+03  0.00000000000E+00 0. -1.
        -14    1    4    4    0    0  0.65313720039E+02  0.49554081738E+01  0.16214836707E+03  0.17487861801E+03  0.00000000000E+00 0.  1.
</event>
<event>
12    1  0.8451514E-002  0.2192422E+03  0.7818608E-02  0.1134719E+00
         21   -1    0    0  503  502  0.00000000000E+00  0.00000000000E+00  0.14866902571E+03  0.14866902571E+03  0.00000000000E+00 0. -1.
         21   -1    0    0  501  503 -0.00000000000E+00 -0.00000000000E+00 -0.33129767347E+03  0.33129767347E+03  0.00000000000E+00 0. -1.
          6    2    1    2  501    0 -0.20899912162E+02 -0.13414001973E+03 -0.49124489301E+02  0.22327525447E+03  0.17031815108E+03 0.  0.
         24    2    3    3    0    0 -0.29767650616E+02 -0.10332112063E+01 -0.32798556653E+02  0.88795942533E+02  0.76953190598E+02 0.  0.
         -6    2    1    2    0  502  0.20899912162E+02  0.13414001973E+03 -0.13350415846E+03  0.25669144471E+03  0.17215337998E+03 0.  0.
        -24    2    5    5    0    0  0.18842023324E+02  0.16527375072E+03 -0.12791680191E+03  0.22464690283E+03  0.80206534771E+02 0.  0.
          5    1    3    3  501    0  0.88677384547E+01 -0.13310680853E+03 -0.16325932648E+02  0.13447931194E+03  0.47000000000E+01 0. -1.
        -13    1    4    4    0    0  0.12189567943E+02 -0.26446287500E+01  0.18619979495E+02  0.22411676962E+02  0.00000000000E+00 0.  1.
         14    1    4    4    0    0 -0.41957218559E+02  0.16114175436E+01 -0.51418536148E+02  0.66384265571E+02  0.00000000000E+00 0. -1.
         -5    1    5    5    0  502  0.20578888374E+01 -0.31133730982E+02 -0.55873565503E+01  0.32044541884E+02  0.47000000000E+01 0.  1.
         13    1    6    6    0    0 -0.17177593255E+02  0.11404211529E+03 -0.52778728950E+02  0.12683165220E+03  0.00000000000E+00 0. -1.
        -14    1    6    6    0    0  0.36019616579E+02  0.51231635422E+02 -0.75138072961E+02  0.97815250625E+02  0.00000000000E+00 0.  1.
</event>
<event>
12    1  0.8451514E-002  0.1919635E+03  0.7818608E-02  0.1157367E+00
         21   -1    0    0  501  502  0.00000000000E+00  0.00000000000E+00  0.73754953853E+03  0.73754953853E+03  0.00000000000E+00 0. -1.
         21   -1    0    0  502  503 -0.00000000000E+00 -0.00000000000E+00 -0.54734238698E+02  0.54734238698E+02  0.00000000000E+00 0.  1.
         -6    2    1    2    0  503  0.36189700998E+02 -0.79160173311E+02  0.46504664106E+03  0.50198536410E+03  0.16776441791E+03 0.  0.
        -24    2    3    3    0    0  0.49203314905E+02 -0.27568993467E+02  0.42312466427E+03  0.43408436174E+03  0.78827254110E+02 0.  0.
          6    2    1    2  501    0 -0.36189700998E+02  0.79160173311E+02  0.21776865877E+03  0.29029841312E+03  0.17109632498E+03 0.  0.
         24    2    5    5    0    0  0.33840006421E+02  0.41116188411E+01  0.75695559967E+02  0.11496073647E+03  0.79524220758E+02 0.  0.
          5    1    5    5  501    0 -0.70029707419E+02  0.75048554470E+02  0.14207309880E+03  0.17533767665E+03  0.47000000000E+01 0. -1.
        -13    1    6    6    0    0 -0.74908560151E+01  0.13207536598E+02 -0.10823031227E+02  0.18646446090E+02  0.00000000000E+00 0.  1.
         14    1    6    6    0    0  0.41330862436E+02 -0.90959177573E+01  0.86518591193E+02  0.96314290381E+02  0.00000000000E+00 0. -1.
         -5    1    3    3    0  503 -0.13013613908E+02 -0.51591179844E+02  0.41921976782E+02  0.67901002363E+02  0.47000000000E+01 0.  1.
         13    1    4    4    0    0  0.35957629831E+02 -0.55405550613E+02  0.29478934489E+03  0.30209846746E+03  0.00000000000E+00 0. -1.
        -14    1    4    4    0    0  0.13245685074E+02  0.27836557145E+02  0.12833531939E+03  0.13198589428E+03  0.00000000000E+00 0.  1.
</event>
<event>
12    1  0.8451514E-002  0.2625658E+03  0.7818608E-02  0.1105819E+00
         21   -1    0    0  503  502  0.00000000000E+00  0.00000000000E+00  0.89587770784E+03  0.89587770784E+03  0.00000000000E+00 0. -1.
         21   -1    0    0  501  503 -0.00000000000E+00 -0.00000000000E+00 -0.17278412559E+03  0.17278412559E+03  0.00000000000E+00 0.  1.
          6    2    1    2  501    0 -0.19004739889E+03  0.49869903906E+02 -0.36806950081E+02  0.26513309695E+03  0.17417171522E+03 0.  0.
         24    2    3    3    0    0 -0.17574097792E+03  0.92238988405E+02 -0.12467216704E+02  0.21400262049E+03  0.79049147885E+02 0.  0.
         -6    2    1    2    0  502  0.19004739889E+03 -0.49869903906E+02  0.75990053233E+03  0.80352873648E+03  0.17205984476E+03 0.  0.
        -24    2    5    5    0    0  0.73681823808E+02  0.40647980077E+02  0.35552700918E+03  0.37309352579E+03  0.75617823831E+02 0.  0.
          5    1    3    3  501    0 -0.14306420970E+02 -0.42369084499E+02 -0.24339733378E+02  0.51130476461E+02  0.47000000000E+01 0. -1.
        -13    1    4    4    0    0 -0.12809974510E+03  0.33902834800E+02  0.16024916876E+02  0.13347563397E+03  0.00000000000E+00 0.  1.
         14    1    4    4    0    0 -0.47641232818E+02  0.58336153605E+02 -0.28492133580E+02  0.80526986519E+02  0.00000000000E+00 0. -1.
         -5    1    5    5    0  502  0.11636557508E+03 -0.90517883984E+02  0.40437352314E+03  0.43043521069E+03  0.47000000000E+01 0.  1.
         13    1    6    6    0    0  0.86963903903E+02  0.34048801777E+02  0.33496589052E+03  0.34774155532E+03  0.00000000000E+00 0. -1.
        -14    1    6    6    0    0 -0.13282080095E+02  0.65991783000E+01  0.20561118666E+02  0.25351970469E+02  0.00000000000E+00 0.  1.
</event>
<event>
12    1  0.8451514E-002  0.2093342E+03  0.7818608E-02  0.1143391E+00
         21   -1    0    0  501  502  0.00000000000E+00  0.00000000000E+00  0.19606597635E+03  0.19606597635E+03  0.00000000000E+00 0. -1.
         21   -1    0    0  502  503 -0.00000000000E+00 -0.00000000000E+00 -0.31031564483E+03  0.31031564483E+03  0.00000000000E+00 0. -1.
         -6    2    1    2    0  503 -0.45085870680E+02  0.99039994922E+02 -0.19679487570E+03  0.28731346707E+03  0.17882714819E+03 0.  0.
        -24    2    3    3    0    0  0.86298042101E+01  0.56357640033E+02 -0.24454212143E+02  0.10175875422E+03  0.80660885547E+02 0.  0.
          6    2    1    2  501    0  0.45085870680E+02 -0.99039994922E+02  0.82545207218E+02  0.21906815410E+03  0.17127605956E+03 0.  0.
         24    2    5    5    0    0 -0.40250658341E+02 -0.41721726020E+02  0.54531158541E+02  0.11241645905E+03  0.79391404408E+02 0.  0.
          5    1    5    5  501    0  0.85336529021E+02 -0.57318268901E+02  0.28014048677E+02  0.10665169506E+03  0.47000000000E+01 0. -1.
        -11    1    6    6    0    0 -0.36015130527E+02 -0.63952829770E+02  0.30719561206E+02  0.79565982073E+02  0.00000000000E+00 0.  1.
         12    1    6    6    0    0 -0.42355278142E+01  0.22231103750E+02  0.23811597336E+02  0.32850476975E+02  0.00000000000E+00 0. -1.
         -5    1    3    3    0  503 -0.53715674890E+02  0.42682354889E+02 -0.17234066355E+03  0.18555471285E+03  0.47000000000E+01 0.  1.
         13    1    4    4    0    0  0.22380947441E+02  0.54895533219E+02 -0.46766584813E+02  0.75508541443E+02  0.00000000000E+00 0. -1.
        -14    1    4    4    0    0 -0.13751143231E+02  0.14621068143E+01  0.22312372670E+02  0.26250212774E+02  0.00000000000E+00 0.  1.
</event>
<event>
12    1  0.8451514E-002  0.1943213E+03  0.7818608E-02  0.1156898E+00
         21   -1    0    0  501  502  0.00000000000E+00  0.00000000000E+00  0.30378556726E+03  0.30378556726E+03  0.00000000000E+00 0. -1.
         21   -1    0    0  502  503 -0.00000000000E+00 -0.00000000000E+00 -0.11992033102E+03  0.11992033102E+03  0.00000000000E+00 0. -1.
         -6    2    1    2    0  503 -0.11688819809E+02 -0.51731690162E+02  0.66998938009E+02  0.20554711280E+03  0.18694373916E+03 0.  0.
        -24    2    3    3    0    0 -0.25492957766E+02  0.48090442469E+02  0.65989321716E+02  0.10466043522E+03  0.60304515322E+02 0.  0.
          6    2    1    2  501    0  0.11688819809E+02  0.51731690162E+02  0.11686629823E+03  0.21815878548E+03  0.17641634772E+03 0.  0.
         24    2    5    5    0    0 -0.58098364256E+02  0.40718241666E+02  0.40175263234E+02  0.11377894089E+03  0.79361202615E+02 0.  0.
          5    1    5    5  501    0  0.69787184064E+02  0.11013448496E+02  0.76691034995E+02  0.10437984459E+03  0.47000000000E+01 0. -1.
        -13    1    6    6    0    0 -0.12126428636E+02  0.55823806879E+02  0.29216627748E+02  0.64163533436E+02  0.00000000000E+00 0.  1.
         14    1    6    6    0    0 -0.45971935620E+02 -0.15105565214E+02  0.10958635486E+02  0.49615407454E+02  0.00000000000E+00 0. -1.
         -5    1    3    3    0  503  0.13804137957E+02 -0.99822132630E+02  0.10096162933E+01  0.10088667758E+03  0.47000000000E+01 0.  1.
         11    1    4    4    0    0  0.18250760239E+00  0.54462983958E+02  0.39985460610E+02  0.67565427482E+02  0.00000000000E+00 0. -1.
        -12    1    4    4    0    0 -0.25675465368E+02 -0.63725414898E+01  0.26003861106E+02  0.37095007741E+02  0.00000000000E+00 0.  1.
</event>
<event>
12    1  0.8451514E-002  0.2153349E+03  0.7818608E-02  0.1137602E+00
         21   -1    0    0  503  502  0.00000000000E+00  0.00000000000E+00  0.26832070301E+03  0.26832070301E+03  0.00000000000E+00 0.  1.
         21   -1    0    0  501  503 -0.00000000000E+00 -0.00000000000E+00 -0.44921098888E+03  0.44921098888E+03  0.00000000000E+00 0. -1.
          6    2    1    2  501    0  0.61345322291E+02 -0.11529204114E+03 -0.37219239986E+03  0.42949416496E+03  0.16994867435E+03 0.  0.
         24    2    3    3    0    0  0.74903841680E+02 -0.14470381021E+03 -0.32542364597E+03  0.37241271484E+03  0.78999383752E+02 0.  0.
         -6    2    1    2    0  502 -0.61345322291E+02  0.11529204114E+03  0.19130211399E+03  0.28803752692E+03  0.17121219227E+03 0.  0.
        -24    2    5    5    0    0 -0.10764273550E+03  0.97959366440E+02  0.15412766833E+03  0.22600607126E+03  0.78360769029E+02 0.  0.
          5    1    3    3  501    0 -0.13558519389E+02  0.29411769072E+02 -0.46768753889E+02  0.57081450124E+02  0.47000000000E+01 0. -1.
        -13    1    4    4    0    0  0.23594650962E+02  0.58631592583E+00 -0.72553741706E+02  0.76296112325E+02  0.00000000000E+00 0.  1.
         14    1    4    4    0    0  0.51309190718E+02 -0.14529012614E+03 -0.25286990426E+03  0.29611660252E+03  0.00000000000E+00 0. -1.
         -5    1    5    5    0  502  0.46297413206E+02  0.17332674698E+02  0.37174445661E+02  0.62031455666E+02  0.47000000000E+01 0.  1.
         11    1    6    6    0    0 -0.35292989064E+01 -0.76067046256E+01 -0.39549193251E+01  0.92714234560E+01  0.00000000000E+00 0. -1.
        -12    1    6    6    0    0 -0.10411343659E+03  0.10556607107E+03  0.15808258765E+03  0.21673464780E+03  0.00000000000E+00 0.  1.
</event>
<event>
12    1  0.8451514E-002  0.2330008E+03  0.7818608E-02  0.1124616E+00
         21   -1    0    0  503  502  0.00000000000E+00  0.00000000000E+00  0.54515219004E+02  0.54515219004E+02  0.00000000000E+00 0.  1.
         21   -1    0    0  501  503 -0.00000000000E+00 -0.00000000000E+00 -0.12332563575E+04  0.12332563575E+04  0.00000000000E+00 0.  1.
          6    2    1    2  501    0 -0.10692377738E+03  0.11489771215E+03 -0.30624647103E+03  0.38480677098E+03  0.17220676975E+03 0.  0.
         24    2    3    3    0    0 -0.36927848271E+02  0.29021141632E+02 -0.23617737865E+03  0.25363519189E+03  0.79656536048E+02 0.  0.
         -6    2    1    2    0  502  0.10692377738E+03 -0.11489771215E+03 -0.87249466745E+03  0.90296480551E+03  0.17165173122E+03 0.  0.
        -24    2    5    5    0    0  0.89193415328E+02 -0.12895484485E+03 -0.52122259357E+03  0.55093337423E+03  0.85262966440E+02 0.  0.
          5    1    3    3  501    0 -0.69995929104E+02  0.85876570518E+02 -0.70069092372E+02  0.13117157909E+03  0.47000000000E+01 0. -1.
        -13    1    4    4    0    0  0.16919337490E+02  0.33333330814E+02 -0.78157518501E+02  0.86637016468E+02  0.00000000000E+00 0.  1.
         14    1    4    4    0    0 -0.53847185761E+02 -0.43121891815E+01 -0.15801986015E+03  0.16699817542E+03  0.00000000000E+00 0. -1.
         -5    1    5    5    0  502  0.17730362048E+02  0.14057132702E+02 -0.35127207388E+03  0.35203143128E+03  0.47000000000E+01 0.  1.
         13    1    6    6    0    0  0.35432686098E+02 -0.10815033534E+01 -0.16257221031E+03  0.16639221273E+03  0.00000000000E+00 0. -1.
        -14    1    6    6    0    0  0.53760729230E+02 -0.12787334150E+03 -0.35865038326E+03  0.38454116150E+03  0.00000000000E+00 0.  1.
</event>
<event>
12    1  0.8451514E-002  0.2842585E+03  0.7818608E-02  0.1093419E+00
         21   -1    0    0  501  502  0.00000000000E+00  0.00000000000E+00  0.82207881461E+02  0.82207881461E+02  0.00000000000E+00 0.  1.
         21   -1    0    0  502  503 -0.00000000000E+00 -0.00000000000E+00 -0.98205066375E+03  0.98205066375E+03  0.00000000000E+00 0. -1.
         -6    2    1    2    0  503  0.18759300470E+02 -0.22474300599E+03 -0.44894066400E+03  0.53136672913E+03  0.17303627061E+03 0.  0.
        -24    2    3    3    0    0  0.55701647977E+02 -0.11471386627E+03 -0.34224008417E+03  0.37363831583E+03  0.78837625192E+02 0.  0.
          6    2    1    2  501    0 -0.18759300470E+02  0.22474300599E+03 -0.45090211830E+03  0.53289181608E+03  0.17262571439E+03 0.  0.
         24    2    5    5    0    0  0.32630020628E+02  0.73877808513E+02 -0.26761575681E+03  0.28995735900E+03  0.77035238087E+02 0.  0.
          5    1    5    5  501    0 -0.51389321097E+02  0.15086519747E+03 -0.18328636149E+03  0.24293445709E+03  0.47000000000E+01 0. -1.
        -11    1    6    6    0    0  0.34957432587E+02  0.12048322731E+02 -0.41747319904E+02  0.55767579228E+02  0.00000000000E+00 0.  1.
         12    1    6    6    0    0 -0.23274119597E+01  0.61829485782E+02 -0.22586843690E+03  0.23418977977E+03  0.00000000000E+00 0. -1.
         -5    1    3    3    0  503 -0.36942347508E+02 -0.11002913972E+03 -0.10670057983E+03  0.15772841330E+03  0.47000000000E+01 0.  1.
         11    1    4    4    0    0 -0.14663027823E+01 -0.44829902928E+02 -0.20146169659E+03  0.20639448983E+03  0.00000000000E+00 0. -1.
        -12    1    4    4    0    0  0.57167950760E+02 -0.69883963345E+02 -0.14077838758E+03  0.16724382600E+03  0.00000000000E+00 0.  1.
</event>
<event>
12    1  0.8451514E-002  0.1796803E+03  0.7818608E-02  0.1168117E+00
         21   -1    0    0  503  502  0.00000000000E+00  0.00000000000E+00  0.13751000623E+03  0.13751000623E+03  0.00000000000E+00 0. -1.
         21   -1    0    0  501  503 -0.00000000000E+00 -0.00000000000E+00 -0.31952394162E+03  0.31952394162E+03  0.00000000000E+00 0.  1.
          6    2    1    2  501    0  0.40880754815E+02  0.33726714454E+02 -0.20871084283E+03  0.27540009450E+03  0.17168654215E+03 0.  0.
         24    2    3    3    0    0  0.45698278452E+02 -0.35306077320E+02 -0.89865720616E+02  0.13779563256E+03  0.87045602190E+02 0.  0.
         -6    2    1    2    0  502 -0.40880754815E+02 -0.33726714454E+02  0.26696907443E+02  0.18163385335E+03  0.17166655013E+03 0.  0.
        -24    2    5    5    0    0 -0.90226304084E+02 -0.97624801840E+00  0.87430369219E+01  0.11956930831E+03  0.77965632077E+02 0.  0.
          5    1    3    3  501    0 -0.48175236375E+01  0.69032791774E+02 -0.11884512221E+03  0.13760446195E+03  0.47000000000E+01 0. -1.
        -11    1    4    4    0    0  0.50858882729E+01 -0.27864790257E+02 -0.92188502691E+02  0.96441862404E+02  0.00000000000E+00 0.  1.
         12    1    4    4    0    0  0.40612390179E+02 -0.74412870630E+01  0.23227820749E+01  0.41353770152E+02  0.00000000000E+00 0. -1.
         -5    1    5    5    0  502  0.49345549269E+02 -0.32750466436E+02  0.17953870521E+02  0.62064545041E+02  0.47000000000E+01 0.  1.
         11    1    6    6    0    0 -0.18965589643E+02 -0.14081246318E+02  0.35236754202E+02  0.42421738944E+02  0.00000000000E+00 0. -1.
        -12    1    6    6    0    0 -0.71260714442E+02  0.13104998300E+02 -0.26493717280E+02  0.77147569362E+02  0.00000000000E+00 0.  1.
</event>
<event>
12    1  0.8451514E-002  0.1846628E+03  0.7818608E-02  0.1163444E+00
         21   -1    0    0  501  502  0.00000000000E+00  0.00000000000E+00  0.11480283835E+04  0.11480283835E+04  0.00000000000E+00 0. -1.
         21   -1    0    0  502  503 -0.00000000000E+00 -0.00000000000E+00 -0.59397156726E+02  0.59397156726E+02  0.00000000000E+00 0. -1.
         -6    2    1    2    0  503 -0.59518378595E+02  0.31476264424E+02  0.11731985044E+03  0.21877907076E+03  0.17195098686E+03 0.  0.
        -24    2    3    3    0    0  0.22819817907E+02 -0.81042455786E+01  0.74594069829E+02  0.11781483103E+03  0.87918350025E+02 0.  0.
          6    2    1    2  501    0  0.59518378595E+02 -0.31476264424E+02  0.97131137634E+03  0.98864646948E+03  0.17158921639E+03 0.  0.
         24    2    5    5    0    0  0.56414196444E+02 -0.32283144181E+02  0.29540731503E+03  0.31271845770E+03  0.79388847169E+02 0.  0.
          5    1    5    5  501    0  0.31041821510E+01  0.80687975728E+00  0.67590406131E+03  0.67592801178E+03  0.47000000000E+01 0. -1.
        -13    1    6    6    0    0 -0.16240678302E+02  0.32721327957E+01  0.97855826657E+02  0.99248321373E+02  0.00000000000E+00 0.  1.
         14    1    6    6    0    0  0.72654874746E+02 -0.35555276977E+02  0.19755148837E+03  0.21347013633E+03  0.00000000000E+00 0. -1.
         -5    1    3    3    0  503 -0.82338196503E+02  0.39580510002E+02  0.42725780611E+02  0.10096423973E+03  0.47000000000E+01 0.  1.
         13    1    4    4    0    0  0.54197071671E+01 -0.55276973362E+01 -0.20080005882E+02  0.21520578520E+02  0.00000000000E+00 0. -1.
        -14    1    4    4    0    0  0.17400110740E+02 -0.25765482424E+01  0.94674075711E+02  0.96294252510E+02  0.00000000000E+00 0.  1.
</event>
<event>
12    1  0.8451514E-002  0.2205507E+03  0.7818608E-02  0.1133763E+00
         21   -1    0    0  501  502  0.00000000000E+00  0.00000000000E+00  0.63584555323E+02  0.63584555323E+02  0.00000000000E+00 0.  1.
         21   -1    0    0  502  503 -0.00000000000E+00 -0.00000000000E+00 -0.88772738496E+03  0.88772738496E+03  0.00000000000E+00 0.  1.
         -6    2    1    2    0  503 -0.10774652865E+03  0.81366474662E+02 -0.23013862933E+03  0.31768459017E+03  0.17242358449E+03 0.  0.
        -24    2    3    3    0    0 -0.10220209827E+03 -0.63637510048E+01 -0.15659724840E+03  0.20297731964E+03  0.78684991353E+02 0.  0.
          6    2    1    2  501    0  0.10774652865E+03 -0.81366474662E+02 -0.59400420031E+03  0.63362735011E+03  0.17439269248E+03 0.  0.
         24    2    5    5    0    0  0.39914663729E+02 -0.11387423740E+03 -0.36570881788E+03  0.39321356478E+03  0.79457194348E+02 0.  0.
          5    1    5    5  501    0  0.67831864918E+02  0.32507762735E+02 -0.22829538243E+03  0.24041378533E+03  0.47000000000E+01 0. -1.
        -11    1    6    6    0    0  0.40940770893E+01 -0.74541556018E+02 -0.29743213331E+03  0.30665791848E+03  0.00000000000E+00 0.  1.
         12    1    6    6    0    0  0.35820586640E+02 -0.39332681379E+02 -0.68276684566E+02  0.86555646304E+02  0.00000000000E+00 0. -1.
         -5    1    3    3    0  503 -0.55444303766E+01  0.87730225667E+02 -0.73541380927E+02  0.11470727053E+03  0.47000000000E+01 0.  1.
         11    1    4    4    0    0 -0.34108592428E+02 -0.40045090164E+02 -0.54831807965E+02  0.75983764637E+02  0.00000000000E+00 0. -1.
        -12    1    4    4    0    0 -0.68093505842E+02  0.33681339159E+02 -0.10176544044E+03  0.12699355501E+03  0.00000000000E+00 0.  1.
</event>
<event>
12    1  0.8451514E-002  0.1915589E+03  0.7818608E-02  0.1157182E+00
         21   -1    0    0  503  502  0.00000000000E+00  0.00000000000E+00  0.89863298347E+03  0.89863298347E+03  0.00000000000E+00 0.  1.
         21   -1    0    0  501  503 -0.00000000000E+00 -0.00000000000E+00 -0.42446710952E+02  0.42446710952E+02  0.00000000000E+00 0.  1.
          6    2    1    2  501    0 -0.68696409253E+02 -0.49223202840E+02  0.33263821626E+03  0.38358765303E+03  0.17131603631E+03 0.  0.
         24    2    3    3    0    0 -0.19719615124E+02 -0.49330186574E+02  0.31755416941E+03  0.33212547004E+03  0.81512862853E+02 0.  0.
         -6    2    1    2    0  502  0.68696409253E+02  0.49223202840E+02  0.52354805625E+03  0.55749204139E+03  0.17190895458E+03 0.  0.
        -24    2    5    5    0    0  0.18108572234E+02  0.73094835504E+02  0.19308350935E+03  0.22229375551E+03  0.80389655976E+02 0.  0.
          5    1    3    3  501    0 -0.48976794128E+02  0.10698373412E+00  0.15084046850E+02  0.51462182989E+02  0.47000000000E+01 0. -1.
        -11    1    4    4    0    0  0.21150624503E+02 -0.29555985133E+02  0.56691435138E+02  0.67341101804E+02  0.00000000000E+00 0.  1.
         12    1    4    4    0    0 -0.40870239628E+02 -0.19774201441E+02  0.26086273427E+03  0.26478436824E+03  0.00000000000E+00 0. -1.
         -5    1    5    5    0  502  0.50587837019E+02 -0.23871632664E+02  0.33046454690E+03  0.33519828588E+03  0.47000000000E+01 0.  1.
         11    1    6    6    0    0  0.15444500458E+02 -0.84088931314E+01  0.66411179065E+01  0.18797513802E+02  0.00000000000E+00 0. -1.
        -12    1    6    6    0    0  0.26640717752E+01  0.81503728636E+02  0.18644239145E+03  0.20349624170E+03  0.00000000000E+00 0.  1.
</event>
<event>
12    1  0.8451514E-002  0.1756719E+03  0.7818608E-02  0.1172295E+00
         21   -1    0    0  501  502  0.00000000000E+00  0.00000000000E+00  0.41153416578E+03  0.41153416578E+03  0.00000000000E+00 0.  1.
         21   -1    0    0  502  503 -0.00000000000E+00 -0.00000000000E+00 -0.84164419002E+02  0.84164419002E+02  0.00000000000E+00 0.  1.
         -6    2    1    2    0  503 -0.49032397656E+01 -0.29895075937E+02  0.80468995301E+02  0.19322495897E+03  0.17304007697E+03 0.  0.
        -24    2    3    3    0    0 -0.68757990100E+02 -0.29655189433E+02  0.40297422183E+02  0.11763837304E+03  0.81288456217E+02 0.  0.
          6    2    1    2  501    0  0.49032397656E+01  0.29895075937E+02  0.24690075148E+03  0.30247362581E+03  0.17208299133E+03 0.  0.
         24    2    5    5    0    0 -0.41235887359E+02  0.67606482730E+02  0.13842094496E+03  0.17861512721E+03  0.80448559656E+02 0.  0.
          5    1    5    5  501    0  0.46139127125E+02 -0.37711406793E+02  0.10847980651E+03  0.12385849860E+03  0.47000000000E+01 0. -1.
        -13    1    6    6    0    0  0.19847188644E+02  0.33292746008E+02  0.73526398957E+02  0.83117081141E+02  0.00000000000E+00 0.  1.
         14    1    6    6    0    0 -0.61083076003E+02  0.34313736722E+02  0.64894546007E+02  0.95498046070E+02  0.00000000000E+00 0. -1.
         -5    1    3    3    0  503  0.63854750334E+02 -0.23988650392E+00  0.40171573118E+02  0.75586585930E+02  0.47000000000E+01 0.  1.
         13    1    4    4    0    0  0.12344342035E+02  0.15780520529E+01  0.26984643649E+02  0.29716056626E+02  0.00000000000E+00 0. -1.
        -14    1    4    4    0    0 -0.81102332135E+02 -0.31233241486E+02  0.13312778534E+02  0.87922316415E+02  0.00000000000E+00 0.  1.
</event>
<event>
12    1  0.8451514E-002  0.1941807E+03  0.7818608E-02  0.1154912E+00
         21   -1    0    0  503  502  0.00000000000E+00  0.00000000000E+00  0.34807993082E+03  0.34807993082E+03  0.00000000000E+00 0. -1.
         21   -1    0    0  501  503 -0.00000000000E+00 -0.00000000000E+00 -0.10793819721E+03  0.10793819721E+03  0.00000000000E+00 0.  1.
          6    2    1    2  501    0  0.84408930375E+02 -0.28205706193E+02  0.11600144458E+03  0.22619124442E+03  0.17258538327E+03 0.  0.
         24    2    3    3    0    0  0.83133781521E+02 -0.70748514901E+02  0.12297171861E+03  0.18280701575E+03  0.79873546551E+02 0.  0.
         -6    2    1    2    0  502 -0.84408930375E+02  0.28205706193E+02  0.12414028903E+03  0.22982688361E+03  0.17172406843E+03 0.  0.
        -24    2    5    5    0    0 -0.19177537724E+02  0.77345739953E+02  0.64094495678E+02  0.12835045874E+03  0.77560263278E+02 0.  0.
          5    1    3    3  501    0  0.12751488533E+01  0.42542808708E+02 -0.69702740298E+01  0.43384228671E+02  0.47000000000E+01 0. -1.
        -11    1    4    4    0    0  0.31450092136E+02 -0.45391401997E+02  0.10151239569E+02  0.56147442821E+02  0.00000000000E+00 0.  1.
         12    1    4    4    0    0  0.51683689386E+02 -0.25357112904E+02  0.11282047904E+03  0.12665957293E+03  0.00000000000E+00 0. -1.
         -5    1    5    5    0  502 -0.65231392650E+02 -0.49140033760E+02  0.60045793354E+02  0.10147642487E+03  0.47000000000E+01 0.  1.
         11    1    6    6    0    0  0.23852119496E+02  0.43799063452E+02  0.87519180228E+01  0.50634747287E+02  0.00000000000E+00 0. -1.
        -12    1    6    6    0    0 -0.43029657220E+02  0.33546676502E+02  0.55342577655E+02  0.77715711450E+02  0.00000000000E+00 0.  1.
</event>
<event>
12    1  0.8451514E-002  0.1736181E+03  0.7818608E-02  0.1174390E+00
         21   -1    0    0  501  502  0.00000000000E+00  0.00000000000E+00  0.26637951603E+03  0.26637951603E+03  0.00000000000E+00 0. -1.
         21   -1    0    0  502  503 -0.00000000000E+00 -0.00000000000E+00 -0.12119939961E+03  0.12119939961E+03  0.00000000000E+00 0. -1.
         -6    2    1    2    0  503 -0.90734269581E+01 -0.20655381094E+02  0.12475627889E+03  0.21379282517E+03  0.17214607497E+03 0.  0.
        -24    2    3    3    0    0  0.58090010053E+02 -0.21237644669E+02  0.48445259729E+02  0.11202481474E+03  0.79856928989E+02 0.  0.
          6    2    1    2  501    0  0.90734269581E+01  0.20655381094E+02  0.20423837539E+02  0.17378609048E+03  0.17110084821E+03 0.  0.
         24    2    5    5    0    0 -0.55626209327E+02  0.34807395120E+02  0.28157369656E+02  0.10694134532E+03  0.79610200058E+02 0.  0.
          5    1    5    5  501    0  0.64699636285E+02 -0.14152014026E+02 -0.77335321168E+01  0.66844745159E+02  0.47000000000E+01 0. -1.
        -11    1    6    6    0    0  0.25878243048E+01 -0.58416441423E-01  0.38250827297E+02  0.38338310292E+02  0.00000000000E+00 0.  1.
         12    1    6    6    0    0 -0.58214033631E+02  0.34865811562E+02 -0.10093457642E+02  0.68603035025E+02  0.00000000000E+00 0. -1.
         -5    1    3    3    0  503 -0.67163437011E+02  0.58226357540E+00  0.76311019158E+02  0.10176801043E+03  0.47000000000E+01 0.  1.
         11    1    4    4    0    0  0.18338377292E+02 -0.47907010545E+02  0.35671704022E+02  0.62480782717E+02  0.00000000000E+00 0. -1.
        -12    1    4    4    0    0  0.39751632760E+02  0.26669365876E+02  0.12773555707E+02  0.49544032020E+02  0.00000000000E+00 0.  1.
</event>
<event>
12    1  0.8451514E-002  0.2383816E+03  0.7818608E-02  0.1121516E+00
         21   -1    0    0  503  502  0.00000000000E+00  0.00000000000E+00  0.43135336924E+02  0.43135336924E+02  0.00000000000E+00 0. -1.
         21   -1    0    0  501  503 -0.00000000000E+00 -0.00000000000E+00 -0.13180333192E+04  0.13180333192E+04  0.00000000000E+00 0.  1.
          6    2    1    2  501    0 -0.15794804601E+03  0.20218639242E+02 -0.55563525923E+03  0.60461256007E+03  0.17739624541E+03 0.  0.
         24    2    3    3    0    0 -0.54892007753E+02 -0.45174272638E+02 -0.18186533608E+03  0.21139147036E+03  0.80978428293E+02 0.  0.
         -6    2    1    2    0  502  0.15794804601E+03 -0.20218639242E+02 -0.71926272308E+03  0.75655609608E+03  0.17228430893E+03 0.  0.
        -24    2    5    5    0    0  0.87768866938E+02 -0.79228545243E+02 -0.41374010322E+03  0.43753658660E+03  0.79226606791E+02 0.  0.
          5    1    3    3  501    0 -0.10305603825E+03  0.65392911880E+02 -0.37376992314E+03  0.39322108971E+03  0.47000000000E+01 0. -1.
        -13    1    4    4    0    0 -0.48218182118E+02 -0.58146740075E+02 -0.18172812546E+03  0.19680230703E+03  0.00000000000E+00 0.  1.
         14    1    4    4    0    0 -0.66738256349E+01  0.12972467437E+02 -0.13721062427E+00  0.14589163334E+02  0.00000000000E+00 0. -1.
         -5    1    5    5    0  502  0.70179179069E+02  0.59009906001E+02 -0.30552261986E+03  0.31901950948E+03  0.47000000000E+01 0.  1.
         11    1    6    6    0    0 -0.66412838349E+00 -0.36795389340E+02 -0.59445653001E+02  0.69915144310E+02  0.00000000000E+00 0. -1.
        -12    1    6    6    0    0  0.88432995322E+02 -0.42433155903E+02 -0.35429445022E+03  0.36762144229E+03  0.00000000000E+00 0.  1.
</event>
<event>
12    1  0.8451514E-002  0.1739166E+03  0.7818608E-02  0.1173956E+00
         21   -1    0    0  503  502  0.00000000000E+00  0.00000000000E+00  0.48032463591E+03  0.48032463591E+03  0.00000000000E+00 0. -1.
         21   -1    0    0  501  503 -0.00000000000E+00 -0.00000000000E+00 -0.11068518207E+03  0.11068518207E+03  0.00000000000E+00 0. -1.
          6    2    1    2  501    0  0.17692013308E+02 -0.18875022951E+02 -0.94225080361E+01  0.17417168651E+03  0.17198174001E+03 0.  0.
         24    2    3    3    0    0  0.34210521717E+02 -0.20883386416E+02  0.57923528212E+02  0.10464131011E+03  0.77383415769E+02 0.  0.
         -6    2    1    2    0  502 -0.17692013308E+02  0.18875022951E+02  0.37906196188E+03  0.41683813148E+03  0.17145490103E+03 0.  0.
        -24    2    5    5    0    0 -0.73148928559E+02  0.13941517439E+01  0.29589349580E+03  0.31525007088E+03  0.80479419252E+02 0.  0.
          5    1    3    3  501    0 -0.16518508410E+02  0.20083634652E+01 -0.67346036248E+02  0.69530376399E+02  0.47000000000E+01 0. -1.
        -11    1    4    4    0    0  0.57181916540E+02 -0.27178361916E+02  0.41166112950E+02  0.75518764496E+02  0.00000000000E+00 0.  1.
         12    1    4    4    0    0 -0.22971394822E+02  0.62949754999E+01  0.16757415262E+02  0.29122545612E+02  0.00000000000E+00 0. -1.
         -5    1    5    5    0  502  0.55456915252E+02  0.17480871207E+02  0.83168466078E+02  0.10158806060E+03  0.47000000000E+01 0.  1.
         11    1    6    6    0    0 -0.26206441719E+02 -0.32250166639E+02  0.19139020988E+03  0.19584959350E+03  0.00000000000E+00 0. -1.
        -12    1    6    6    0    0 -0.46942486840E+02  0.33644318383E+02  0.10450328592E+03  0.11940047738E+03  0.00000000000E+00 0.  1.
</event>
<event>
12    1  0.8451514E-002  0.2110762E+03  0.7818608E-02  0.1140856E+00
         21   -1    0    0  503  502  0.00000000000E+00  0.00000000000E+00  0.11513801175E+04  0.11513801175E+04  0.00000000000E+00 0. -1.
         21   -1    0    0  501  503 -0.00000000000E+00 -0.00000000000E+00 -0.96893965478E+02  0.96893965478E+02  0.00000000000E+00 0. -1.
          6    2    1    2  501    0  0.76147136891E+02 -0.94058222628E+02  0.42637528837E+02  0.21464416934E+03  0.17207215018E+03 0.  0.
         24    2    3    3    0    0  0.96194025620E+02 -0.10043899492E+03 -0.69844277839E+01  0.16054222315E+03  0.79898316116E+02 0.  0.
         -6    2    1    2    0  502 -0.76147136891E+02  0.94058222628E+02  0.10118486231E+04  0.10336299136E+04  0.17293879386E+03 0.  0.
        -24    2    5    5    0    0 -0.56370933661E+02  0.11137923255E+03  0.98383703201E+03  0.99492778398E+03  0.79768252913E+02 0.  0.
          5    1    3    3  501    0 -0.20046888729E+02  0.63807722875E+01  0.49621956620E+02  0.54101946190E+02  0.47000000000E+01 0. -1.
        -13    1    4    4    0    0  0.47816403256E+02  0.11932544242E+01 -0.21203286701E+01  0.47878263024E+02  0.00000000000E+00 0.  1.
         14    1    4    4    0    0  0.48377622364E+02 -0.10163224934E+03 -0.48640991138E+01  0.11266396013E+03  0.00000000000E+00 0. -1.
         -5    1    5    5    0  502 -0.19776203230E+02 -0.17321009923E+02  0.28011591128E+02  0.38702129611E+02  0.47000000000E+01 0.  1.
         11    1    6    6    0    0 -0.66381629129E+02  0.73079536840E+02  0.51191564193E+03  0.52134898470E+03  0.00000000000E+00 0. -1.
        -12    1    6    6    0    0  0.10010695468E+02  0.38299695712E+02  0.47192139008E+03  0.47357879928E+03  0.00000000000E+00 0.  1.
</event>
<event>
12    1  0.8451514E-002  0.2736689E+03  0.7818608E-02  0.1099213E+00
         21   -1    0    0  503  502  0.00000000000E+00  0.00000000000E+00  0.94905904019E+03  0.94905904019E+03  0.00000000000E+00 0.  1.
         21   -1    0    0  501  503 -0.00000000000E+00 -0.00000000000E+00 -0.12728906486E+03  0.12728906486E+03  0.00000000000E+00 0. -1.
          6    2    1    2  501    0  0.20413764954E+03 -0.61394543405E+02  0.79061418092E+02  0.28486029209E+03  0.17161937030E+03 0.  0.
         24    2    3    3    0    0  0.58276646442E+02  0.20147139788E+02  0.16038413456E+01  0.10061522562E+03  0.79490732530E+02 0.  0.
         -6    2    1    2    0  502 -0.20413764954E+03  0.61394543405E+02  0.74270855724E+03  0.79148781295E+03  0.17145112172E+03 0.  0.
        -24    2    5    5    0    0 -0.22068431610E+03  0.79215769186E+02  0.65948446900E+03  0.70465621084E+03  0.81510153734E+02 0.  0.
          5    1    3    3  501    0  0.14586100310E+03 -0.81541683193E+02  0.77457576746E+02  0.18424506647E+03  0.47000000000E+01 0. -1.
        -13    1    4    4    0    0  0.64670512776E+02  0.12168728134E+02  0.28597029156E+02  0.71750562671E+02  0.00000000000E+00 0.  1.
         14    1    4    4    0    0 -0.63938663346E+01  0.79784116536E+01 -0.26993187810E+02  0.28864662953E+02  0.00000000000E+00 0. -1.
         -5    1    5    5    0  502  0.16546666559E+02 -0.17821225781E+02  0.83224088238E+02  0.86831602114E+02  0.47000000000E+01 0.  1.
         11    1    6    6    0    0 -0.12723434111E+03  0.65666790324E+02  0.29173128569E+03  0.32497361117E+03  0.00000000000E+00 0. -1.
        -12    1    6    6    0    0 -0.93449974992E+02  0.13548978862E+02  0.36775318331E+03  0.37968259967E+03  0.00000000000E+00 0.  1.
</event>
<event>
12    1  0.8451514E-002  0.2318150E+03  0.7818608E-02  0.1125467E+00
         21   -1    0    0  503  502  0.00000000000E+00  0.00000000000E+00  0.40795106382E+02  0.40795106382E+02  0.00000000000E+00 0.  1.
         21   -1    0    0  501  503 -0.00000000000E+00 -0.00000000000E+00 -0.14158570593E+04  0.14158570593E+04  0.00000000000E+00 0.  1.
          6    2    1    2  501    0  0.11188205668E+03 -0.10754082845E+03 -0.88204381371E+03  0.91185398174E+03  0.17144611491E+03 0.  0.
         24    2    3    3    0    0  0.71199846948E+02 -0.10620004548E+03 -0.36603533226E+03  0.39422121344E+03  0.71278557770E+02 0.  0.
         -6    2    1    2    0  502 -0.11188205668E+03  0.10754082845E+03 -0.49301813922E+03  0.54479818396E+03  0.17220787221E+03 0.  0.
        -24    2    5    5    0    0 -0.46109203683E+02  0.12652371914E+02 -0.34192767163E+03  0.35458696775E+03  0.80816111574E+02 0.  0.
          5    1    3    3  501    0  0.40682209733E+02 -0.13407829628E+01 -0.51600848145E+03  0.51763276830E+03  0.47000000000E+01 0. -1.
        -11    1    4    4    0    0  0.31160258517E+02 -0.40224859065E+02 -0.24820727167E+03  0.25336900108E+03  0.00000000000E+00 0.  1.
         12    1    4    4    0    0  0.40039588431E+02 -0.65975186419E+02 -0.11782806059E+03  0.14085221236E+03  0.00000000000E+00 0. -1.
         -5    1    5    5    0  502 -0.65772852999E+02  0.94888456533E+02 -0.15109046759E+03  0.19021121621E+03  0.47000000000E+01 0.  1.
         13    1    6    6    0    0  0.13140932982E+02  0.26943913614E+02 -0.15814892258E+03  0.16096502823E+03  0.00000000000E+00 0. -1.
        -14    1    6    6    0    0 -0.59250136665E+02 -0.14291541700E+02 -0.18377874905E+03  0.19362193951E+03  0.00000000000E+00 0.  1.
</event>
<event>
12    1  0.8451514E-002  0.2268998E+03  0.7818608E-02  0.1129021E+00
         21   -1    0    0  503  502  0.00000000000E+00  0.00000000000E+00  0.10683807729E+04  0.10683807729E+04  0.00000000000E+00 0.  1.
         21   -1    0    0  501  503 -0.00000000000E+00 -0.00000000000E+00 -0.50628656498E+02  0.50628656498E+02  0.00000000000E+00 0.  1.
          6    2    1    2  501    0  0.28718520149E+02 -0.14578686266E+03  0.38186940741E+03  0.44419339453E+03  0.17147875877E+03 0.  0.
         24    2    3    3    0    0  0.16537002433E+02 -0.14224867096E+03  0.39349197220E+03  0.42635853578E+03  0.80234107539E+02 0.  0.
         -6    2    1    2    0  502 -0.28718520149E+02  0.14578686266E+03  0.63588270904E+03  0.67481603491E+03  0.17015081132E+03 0.  0.
        -24    2    5    5    0    0 -0.40587022438E+02  0.30535892255E+02  0.16568495564E+03  0.19053134092E+03  0.79189268484E+02 0.  0.
          5    1    3    3  501    0  0.12181517716E+02 -0.35381917027E+01 -0.11622564789E+02  0.17834858751E+02  0.47000000000E+01 0. -1.
        -11    1    4    4    0    0 -0.28118336711E+02 -0.66125543189E+02  0.22435235450E+03  0.23557845252E+03  0.00000000000E+00 0.  1.
         12    1    4    4    0    0  0.44655339145E+02 -0.76123127768E+02  0.16913961769E+03  0.19078008326E+03  0.00000000000E+00 0. -1.
         -5    1    5    5    0  502  0.11868502288E+02  0.11525097040E+03  0.47019775340E+03  0.48428469399E+03  0.47000000000E+01 0.  1.
         11    1    6    6    0    0 -0.26345710237E+02 -0.21641605909E+02  0.33902146027E+02  0.48081296358E+02  0.00000000000E+00 0. -1.
        -12    1    6    6    0    0 -0.14241312201E+02  0.52177498164E+02  0.13178280961E+03  0.14245004456E+03  0.00000000000E+00 0.  1.
</event>
<event>
12    1  0.8451514E-002  0.1795087E+03  0.7818608E-02  0.1168924E+00
         21   -1    0    0  503  502  0.00000000000E+00  0.00000000000E+00  0.29708006375E+03  0.29708006375E+03  0.00000000000E+00 0. -1.
         21   -1    0    0  501  503 -0.00000000000E+00 -0.00000000000E+00 -0.16879764799E+03  0.16879764799E+03  0.00000000000E+00 0. -1.
          6    2    1    2  501    0  0.42056363058E+02 -0.39234032098E+02 -0.76635640279E+02  0.19518301276E+03  0.17004511213E+03 0.  0.
         24    2    3    3    0    0  0.81548893900E+02 -0.10864701194E+01 -0.81610320927E+02  0.13985007569E+03  0.79034148792E+02 0.  0.
         -6    2    1    2    0  502 -0.42056363058E+02  0.39234032098E+02  0.20491805604E+03  0.27069469898E+03  0.16726076472E+03 0.  0.
        -24    2    5    5    0    0 -0.78951211226E+02  0.36843707244E+02  0.85185736523E+02  0.14529588794E+03  0.79142484334E+02 0.  0.
          5    1    3    3  501    0 -0.39492530841E+02 -0.38147561978E+02  0.49746806477E+01  0.55332937069E+02  0.47000000000E+01 0. -1.
        -13    1    4    4    0    0  0.61600044014E+02  0.31826151449E+02 -0.30193619250E+02  0.75624889964E+02  0.00000000000E+00 0.  1.
         14    1    4    4    0    0  0.19948849885E+02 -0.32912621569E+02 -0.51416701677E+02  0.64225185727E+02  0.00000000000E+00 0. -1.
         -5    1    5    5    0  502  0.36894848168E+02  0.23903248539E+01  0.11973231952E+03  0.12539881104E+03  0.47000000000E+01 0.  1.
         11    1    6    6    0    0 -0.57757032187E+02  0.23110485692E+01  0.87323592758E+02  0.10472165757E+03  0.00000000000E+00 0. -1.
        -12    1    6    6    0    0 -0.21194179039E+02  0.34532658675E+02 -0.21378562354E+01  0.40574230363E+02  0.00000000000E+00 0.  1.
</event>
<event>
12    1  0.8451514E-002  0.2333057E+03  0.7818608E-02  0.1124542E+00
         21   -1    0    0  501  502  0.00000000000E+00  0.00000000000E+00  0.71350855372E+03  0.71350855372E+03  0.00000000000E+00 0.  1.
         21   -1    0    0  502  503 -0.00000000000E+00 -0.00000000000E+00 -0.77755158659E+02  0.77755158659E+02  0.00000000000E+00 0. -1.
         -6    2    1    2    0  503  0.11732377345E+03 -0.10383062114E+03  0.25590885671E+03  0.34549085571E+03  0.17125689106E+03 0.  0.
        -24    2    3    3    0    0 -0.14317923113E+02 -0.69682230106E+02  0.73730521936E+02  0.11809981687E+03  0.58743176332E+02 0.  0.
          6    2    1    2  501    0 -0.11732377345E+03  0.10383062114E+03  0.37984453835E+03  0.44577285667E+03  0.17287539074E+03 0.  0.
         24    2    5    5    0    0 -0.15242379915E+03  0.95258753044E+02  0.32979449999E+03  0.38386498102E+03  0.79250658341E+02 0.  0.
          5    1    5    5  501    0  0.35100025709E+02  0.85718680972E+01  0.50050038365E+02  0.61907875652E+02  0.47000000000E+01 0. -1.
        -13    1    6    6    0    0 -0.88088287518E+02  0.95656015912E+02  0.24562274840E+03  0.27792112966E+03  0.00000000000E+00 0.  1.
         14    1    6    6    0    0 -0.64335511637E+02 -0.39726286772E+00  0.84171751584E+02  0.10594385136E+03  0.00000000000E+00 0. -1.
         -5    1    3    3    0  503  0.13164169656E+03 -0.34148391036E+02  0.18217833477E+03  0.22739103884E+03  0.47000000000E+01 0.  1.
         11    1    4    4    0    0 -0.11086109506E+02 -0.50610300562E+01 -0.74544574292E+01  0.14285824610E+02  0.00000000000E+00 0. -1.
        -12    1    4    4    0    0 -0.32318136070E+01 -0.64621200050E+02  0.81184979365E+02  0.10381399226E+03  0.00000000000E+00 0.  1.
</event>
<event>
12    1  0.8451514E-002  0.1810715E+03  0.7818608E-02  0.1167301E+00
         21   -1    0    0  501  502  0.00000000000E+00  0.00000000000E+00  0.88611350852E+03  0.88611350852E+03  0.00000000000E+00 0.  1.
         21   -1    0    0  502  503 -0.00000000000E+00 -0.00000000000E+00 -0.50897787276E+02  0.50897787276E+02  0.00000000000E+00 0.  1.
         -6    2    1    2    0  503  0.15923929131E+02  0.49958763130E+02  0.16705942851E+03  0.24475432588E+03  0.17101572398E+03 0.  0.
        -24    2    3    3    0    0  0.58254353304E+02 -0.13620241150E+02  0.68944157610E+02  0.12032422108E+03  0.78393498844E+02 0.  0.
          6    2    1    2  501    0 -0.15923929131E+02 -0.49958763130E+02  0.66815629273E+03  0.69225696992E+03  0.17331310209E+03 0.  0.
         24    2    5    5    0    0 -0.19786732202E+02  0.37232204697E+02  0.41601145105E+03  0.42539315202E+03  0.78205207906E+02 0.  0.
          5    1    5    5  501    0  0.38628030713E+01 -0.87190967827E+02  0.25214484168E+03  0.26686381790E+03  0.47000000000E+01 0. -1.
        -11    1    6    6    0    0  0.98008584591E+01  0.52259666964E+02  0.30221626576E+03  0.30685794907E+03  0.00000000000E+00 0.  1.
         12    1    6    6    0    0 -0.29587590662E+02 -0.15027462267E+02  0.11379518529E+03  0.11853520295E+03  0.00000000000E+00 0. -1.
         -5    1    3    3    0  503 -0.42330424173E+02  0.63579004280E+02  0.98115270905E+02  0.12443010480E+03  0.47000000000E+01 0.  1.
         13    1    4    4    0    0  0.14874415871E+02 -0.38985472439E+02  0.10078316848E+02  0.42926539335E+02  0.00000000000E+00 0. -1.
        -14    1    4    4    0    0  0.43379937433E+02  0.25365231289E+02  0.58865840763E+02  0.77397681740E+02  0.00000000000E+00 0.  1.
</event>
<event>
12    1  0.8451514E-002  0.2059658E+03  0.7818608E-02  0.1145415E+00
         21   -1    0    0  501  502  0.00000000000E+00  0.00000000000E+00  0.34339678163E+02  0.34339678163E+02  0.00000000000E+00 0.  1.
         21   -1    0    0  502  503 -0.00000000000E+00 -0.00000000000E+00 -0.12662767783E+04  0.12662767783E+04  0.00000000000E+00 0.  1.
         -6    2    1    2    0  503  0.11323593621E+03  0.49377392676E+01 -0.74803647819E+03  0.77587400869E+03  0.17197426014E+03 0.  0.
        -24    2    3    3    0    0  0.41875600610E+02 -0.19980000901E+02 -0.15576263463E+03  0.17877804737E+03  0.74477013308E+02 0.  0.
          6    2    1    2  501    0 -0.11323593621E+03 -0.49377392676E+01 -0.48390062192E+03  0.52474244773E+03  0.16836883929E+03 0.  0.
         24    2    5    5    0    0 -0.93791553379E+02  0.45853534256E+02 -0.22782285440E+03  0.26291091696E+03  0.79495252578E+02 0.  0.
          5    1    5    5  501    0 -0.19444382827E+02 -0.50791273523E+02 -0.25607776752E+03  0.26183153077E+03  0.47000000000E+01 0. -1.
        -11    1    6    6    0    0 -0.34833816880E+02  0.37706261762E+02 -0.17811774649E+03  0.18536744209E+03  0.00000000000E+00 0.  1.
         12    1    6    6    0    0 -0.58957736500E+02  0.81472724934E+01 -0.49705107912E+02  0.77543474869E+02  0.00000000000E+00 0. -1.
         -5    1    3    3    0  503  0.71360335596E+02  0.24917740169E+02 -0.59227384355E+03  0.59709596132E+03  0.47000000000E+01 0.  1.
         13    1    4    4    0    0 -0.79233219729E+01  0.12287223190E+02 -0.85814406869E+02  0.87050946641E+02  0.00000000000E+00 0. -1.
        -14    1    4    4    0    0  0.49798922583E+02 -0.32267224091E+02 -0.69948227765E+02  0.91727100730E+02  0.00000000000E+00 0.  1.
</event>
<event>
12    1  0.8451514E-002  0.2939161E+03  0.7818608E-02  0.1088720E+00
         21   -1    0    0  503  502  0.00000000000E+00  0.00000000000E+00  0.80507662090E+03  0.80507662090E+03  0.00000000000E+00 0. -1.
         21   -1    0    0  501  503 -0.00000000000E+00 -0.00000000000E+00 -0.10675230993E+03  0.10675230993E+03  0.00000000000E+00 0. -1.
          6    2    1    2  501    0  0.21262876653E+03 -0.10566174778E+03  0.31395658467E+03  0.42796404480E+03  0.16795561701E+03 0.  0.
         24    2    3    3    0    0  0.22593076319E+03 -0.69928167488E+02  0.25855432228E+03  0.36054496328E+03  0.84898024792E+02 0.  0.
         -6    2    1    2    0  502 -0.21262876653E+03  0.10566174778E+03  0.38436772630E+03  0.48386488603E+03  0.17323764488E+03 0.  0.
        -24    2    5    5    0    0 -0.21137601221E+03  0.41608542745E+02  0.29698101283E+03  0.37540793530E+03  0.79512933155E+02 0.  0.
          5    1    3    3  501    0 -0.13301996658E+02 -0.35733580292E+02  0.55402262387E+02  0.67419081521E+02  0.47000000000E+01 0. -1.
        -13    1    4    4    0    0  0.16256293378E+03 -0.25367129099E+02  0.21795568777E+03  0.27308401731E+03  0.00000000000E+00 0.  1.
         14    1    4    4    0    0  0.63367829408E+02 -0.44561038389E+02  0.40598634510E+02  0.87460945971E+02  0.00000000000E+00 0. -1.
         -5    1    5    5    0  502 -0.12527543252E+01  0.64053205036E+02  0.87386713475E+02  0.10845695073E+03  0.47000000000E+01 0.  1.
         13    1    6    6    0    0 -0.12271088207E+03  0.62498369596E+02  0.16286629856E+03  0.21328253090E+03  0.00000000000E+00 0. -1.
        -14    1    6    6    0    0 -0.88665130135E+02 -0.20889826851E+02  0.13411471427E+03  0.16212540440E+03  0.00000000000E+00 0.  1.
</event>
<event>
12    1  0.8451514E-002  0.2339123E+03  0.7818608E-02  0.1123961E+00
         21   -1    0    0  503  502  0.00000000000E+00  0.00000000000E+00  0.65387738035E+03  0.65387738035E+03  0.00000000000E+00 0.  1.
         21   -1    0    0  501  503 -0.00000000000E+00 -0.00000000000E+00 -0.12582598618E+03  0.12582598618E+03  0.00000000000E+00 0.  1.
          6    2    1    2  501    0 -0.11752796022E+03 -0.10712996126E+03  0.38240736782E+02  0.23701758411E+03  0.17153813335E+03 0.  0.
         24    2    3    3    0    0 -0.70569379786E+02 -0.55411922150E+02 -0.44698598653E+02  0.12847778860E+03  0.80362049267E+02 0.  0.
         -6    2    1    2    0  502  0.11752796022E+03  0.10712996126E+03  0.48981065739E+03  0.54268578242E+03  0.17118331786E+03 0.  0.
        -24    2    5    5    0    0  0.63693532596E+02 -0.65660043262E+01  0.28158641038E+03  0.29936635197E+03  0.78926089967E+02 0.  0.
          5    1    3    3  501    0 -0.46958580438E+02 -0.51718039114E+02  0.82939335434E+02  0.10853979551E+03  0.47000000000E+01 0. -1.
        -11    1    4    4    0    0 -0.51009454631E+02 -0.61605714687E+02 -0.76147761843E+00  0.79986301277E+02  0.00000000000E+00 0.  1.
         12    1    4    4    0    0 -0.19559925155E+02  0.61937925363E+01 -0.43937121034E+02  0.48491487323E+02  0.00000000000E+00 0. -1.
         -5    1    5    5    0  502  0.53834427628E+02  0.11369596559E+03  0.20822424702E+03  0.24331943045E+03  0.47000000000E+01 0.  1.
         13    1    6    6    0    0  0.63249432167E+02  0.16997620135E+02  0.25737888193E+03  0.26558105848E+03  0.00000000000E+00 0. -1.
        -14    1    6    6    0    0  0.44410042937E+00 -0.23563624461E+02  0.24207528445E+02  0.33785293492E+02  0.00000000000E+00 0.  1.
</event>
<event>
12    1  0.8451514E-002  0.1992843E+03  0.7818608E-02  0.1150354E+00
         21   -1    0    0  503  502  0.00000000000E+00  0.00000000000E+00  0.19402911403E+03  0.19402911403E+03  0.00000000000E+00 0. -1.
         21   -1    0    0  501  503 -0.00000000000E+00 -0.00000000000E+00 -0.28164719732E+03  0.28164719732E+03  0.00000000000E+00 0. -1.
          6    2    1    2  501    0 -0.55864743473E+02 -0.80561155076E+02 -0.16817540239E+03  0.26072582611E+03  0.17344745937E+03 0.  0.
         24    2    3    3    0    0 -0.22264520456E+02 -0.26235650562E+01 -0.16900006118E+02  0.87204707967E+02  0.82561849059E+02 0.  0.
         -6    2    1    2    0  502  0.55864743473E+02  0.80561155076E+02  0.80557319101E+02  0.21495048524E+03  0.17350291114E+03 0.  0.
        -24    2    5    5    0    0  0.24386898287E+02 -0.18475134068E+02  0.68620324765E+02  0.11024316392E+03  0.80676854378E+02 0.  0.
          5    1    3    3  501    0 -0.33600223016E+02 -0.77937590019E+02 -0.15127539627E+03  0.17352111814E+03  0.47000000000E+01 0. -1.
        -13    1    4    4    0    0 -0.48640376225E+02  0.18130045474E+02 -0.12104209906E+02  0.53301938480E+02  0.00000000000E+00 0.  1.
         14    1    4    4    0    0  0.26375855769E+02 -0.20753610530E+02 -0.47957962114E+01  0.33902769487E+02  0.00000000000E+00 0. -1.
         -5    1    5    5    0  502  0.31477845186E+02  0.99036289143E+02  0.11936994336E+02  0.10470732132E+03  0.47000000000E+01 0.  1.
         13    1    6    6    0    0  0.32331289909E+01  0.21007089964E+02  0.61270213213E+02  0.64852062257E+02  0.00000000000E+00 0. -1.
        -14    1    6    6    0    0  0.21153769296E+02 -0.39482224031E+02  0.73501115518E+01  0.45391101658E+02  0.00000000000E+00 0.  1.
</event>
<event>
12    1  0.8451514E-002  0.1779405E+03  0.7818608E-02  0.1170083E+00
         21   -1    0    0  503  502  0.00000000000E+00  0.00000000000E+00  0.25513287162E+03  0.25513287162E+03  0.00000000000E+00 0. -1.
         21   -1    0    0  501  503 -0.00000000000E+00 -0.00000000000E+00 -0.13315317595E+03  0.13315317595E+03  0.00000000000E+00 0. -1.
          6    2    1    2  501    0 -0.48977270519E+01  0.43311349145E+02  0.11387935035E+03  0.21126126439E+03  0.17251943283E+03 0.  0.
         24    2    3    3    0    0  0.14074847579E+02 -0.25527578333E+02  0.10984794878E+03  0.13958770774E+03  0.81045652018E+02 0.  0.
         -6    2    1    2    0  502  0.48977270519E+01 -0.43311349145E+02  0.81003453245E+01  0.17702478318E+03  0.17138348103E+03 0.  0.
        -24    2    5    5    0    0  0.15742524929E+02 -0.92244680802E+02  0.21110659730E+02  0.12503017895E+03  0.80187140282E+02 0.  0.
          5    1    3    3  501    0 -0.18972574631E+02  0.68838927478E+02  0.40314015631E+01  0.71673556651E+02  0.47000000000E+01 0. -1.
        -13    1    4    4    0    0  0.12045914489E+02  0.27643928915E+02  0.23793743756E+02  0.38411366855E+02  0.00000000000E+00 0.  1.
         14    1    4    4    0    0  0.20289330891E+01 -0.53171507248E+02  0.86054205028E+02  0.10117634089E+03  0.00000000000E+00 0. -1.
         -5    1    5    5    0  502 -0.10844797877E+02  0.48933331657E+02 -0.13010314406E+02  0.51994604229E+02  0.47000000000E+01 0.  1.
         13    1    6    6    0    0  0.13978821122E+02  0.28054763111E+01 -0.17368965912E+02  0.22471295337E+02  0.00000000000E+00 0. -1.
        -14    1    6    6    0    0  0.17637038070E+01 -0.95050157113E+02  0.38479625642E+02  0.10255888361E+03  0.00000000000E+00 0.  1.
</event>
<event>
12    1  0.8451514E-002  0.2752439E+03  0.7818608E-02  0.1098431E+00
         21   -1    0    0  501  502  0.00000000000E+00  0.00000000000E+00  0.81289887623E+03  0.81289887623E+03  0.00000000000E+00 0.  1.
         21   -1    0    0  502  503 -0.00000000000E+00 -0.00000000000E+00 -0.93150717440E+02  0.93150717440E+02  0.00000000000E+00 0.  1.
         -6    2    1    2    0  503 -0.21215591000E+03  0.32335500684E+02  0.33664671096E+03  0.43432305283E+03  0.17102570413E+03 0.  0.
        -24    2    3    3    0    0 -0.63811117828E+02  0.58685637259E+02  0.11387784097E+03  0.16534616443E+03  0.82796912068E+02 0.  0.
          6    2    1    2  501    0  0.21215591000E+03 -0.32335500684E+02  0.38310144783E+03  0.47172654084E+03  0.17234701984E+03 0.  0.
         24    2    5    5    0    0  0.81342299217E+02 -0.22371967753E+02  0.84210209034E+02  0.14527664363E+03  0.83047391871E+02 0.  0.
          5    1    5    5  501    0  0.13081361078E+03 -0.99635329312E+01  0.29889123880E+03  0.32644989720E+03  0.47000000000E+01 0. -1.
        -13    1    6    6    0    0  0.36536081966E+02 -0.51299852992E+02  0.32007575254E+02  0.70647328868E+02  0.00000000000E+00 0.  1.
         14    1    6    6    0    0  0.44806217251E+02  0.28927885240E+02  0.52202633779E+02  0.74629314765E+02  0.00000000000E+00 0. -1.
         -5    1    3    3    0  503 -0.14834479217E+03 -0.26350136575E+02  0.22276886999E+03  0.26897688841E+03  0.47000000000E+01 0.  1.
         13    1    4    4    0    0 -0.14352110792E+01 -0.48134975832E+01 -0.10941910360E+02  0.12039725585E+02  0.00000000000E+00 0. -1.
        -14    1    4    4    0    0 -0.62375906749E+02  0.63499134843E+02  0.12481975133E+03  0.15330643884E+03  0.00000000000E+00 0.  1.
</event>
<event>
12    1  0.8451514E-002  0.2145079E+03  0.7818608E-02  0.1138098E+00
         21   -1    0    0  501  502  0.00000000000E+00  0.00000000000E+00  0.20742139135E+03  0.20742139135E+03  0.00000000000E+00 0.  1.
         21   -1    0    0  502  503 -0.00000000000E+00 -0.00000000000E+00 -0.22172627318E+03  0.22172627318E+03  0.00000000000E+00 0. -1.
         -6    2    1    2    0  503  0.18389159761E+02 -0.12628141018E+03 -0.13177192307E+02  0.21463681850E+03  0.17207605791E+03 0.  0.
        -24    2    3    3    0    0 -0.43205417758E+01 -0.15628544010E+03 -0.12769908764E+02  0.17671283881E+03  0.81366768151E+02 0.  0.
          6    2    1    2  501    0 -0.18389159761E+02  0.12628141018E+03 -0.11276895289E+01  0.21451084604E+03  0.17241947579E+03 0.  0.
         24    2    5    5    0    0  0.33828150772E+02  0.13308608815E+03  0.16368566842E+02  0.15882278494E+03  0.78105674517E+02 0.  0.
          5    1    5    5  501    0 -0.52217310533E+02 -0.68046779733E+01 -0.17496256371E+02  0.55688061096E+02  0.47000000000E+01 0. -1.
        -13    1    6    6    0    0 -0.20702879311E+02  0.54002850940E+02  0.23654193849E+02  0.62485502383E+02  0.00000000000E+00 0.  1.
         14    1    6    6    0    0  0.54531030083E+02  0.79083237209E+02 -0.72856270063E+01  0.96337282556E+02  0.00000000000E+00 0. -1.
         -5    1    3    3    0  503  0.22709701537E+02  0.30004029927E+02 -0.40728354275E+00  0.37923979691E+02  0.47000000000E+01 0.  1.
         11    1    4    4    0    0  0.62156182478E+01 -0.57024907301E+01  0.20474769202E+02  0.22144265276E+02  0.00000000000E+00 0. -1.
        -12    1    4    4    0    0 -0.10536160024E+02 -0.15058294937E+03 -0.33244677966E+02  0.15456857353E+03  0.00000000000E+00 0.  1.
</event>
<event>
12    1  0.8451514E-002  0.2218727E+03  0.7818608E-02  0.1133439E+00
         21   -1    0    0  503  502  0.00000000000E+00  0.00000000000E+00  0.67937138907E+03  0.67937138907E+03  0.00000000000E+00 0. -1.
         21   -1    0    0  501  503 -0.00000000000E+00 -0.00000000000E+00 -0.14553153795E+03  0.14553153795E+03  0.00000000000E+00 0. -1.
          6    2    1    2  501    0 -0.11954244501E+03  0.73251888872E+02 -0.30093031119E+02  0.21889318427E+03  0.16538561067E+03 0.  0.
         24    2    3    3    0    0 -0.15967516826E+02  0.54341290436E+02 -0.49006876764E+02  0.11181750991E+03  0.83027369663E+02 0.  0.
         -6    2    1    2    0  502  0.11954244501E+03 -0.73251888872E+02  0.56393288224E+03  0.60600974275E+03  0.17196301130E+03 0.  0.
        -24    2    5    5    0    0  0.63592645135E+02 -0.69789359469E+02  0.52031718450E+03  0.53482836664E+03  0.79980185451E+02 0.  0.
          5    1    3    3  501    0 -0.10357492818E+03  0.18910598436E+02  0.18913845645E+02  0.10707567436E+03  0.47000000000E+01 0. -1.
        -13    1    4    4    0    0 -0.34257234109E+02  0.25091574931E+02 -0.61835790256E+02  0.75012066882E+02  0.00000000000E+00 0.  1.
         14    1    4    4    0    0  0.18289717282E+02  0.29249715505E+02  0.12828913491E+02  0.36805443032E+02  0.00000000000E+00 0. -1.
         -5    1    5    5    0  502  0.55949799876E+02 -0.34625294031E+01  0.43615697744E+02  0.71181376115E+02  0.47000000000E+01 0.  1.
         11    1    6    6    0    0  0.38478851293E+02 -0.11468059445E+02  0.36248153205E+03  0.36469850488E+03  0.00000000000E+00 0. -1.
        -12    1    6    6    0    0  0.25113793842E+02 -0.58321300024E+02  0.15783565245E+03  0.17012986175E+03  0.00000000000E+00 0.  1.
</event>
<event>
12    1  0.8451514E-002  0.2239148E+03  0.7818608E-02  0.1131206E+00
         21   -1    0    0  503  502  0.00000000000E+00  0.00000000000E+00  0.72546787169E+02  0.72546787169E+02  0.00000000000E+00 0.  1.
         21   -1    0    0  501  503 -0.00000000000E+00 -0.00000000000E+00 -0.75757608621E+03  0.75757608621E+03  0.00000000000E+00 0.  1.
          6    2    1    2  501    0 -0.82044778077E+02 -0.11740330599E+03 -0.46945833810E+03  0.52012400928E+03  0.17211325326E+03 0.  0.
         24    2    3    3    0    0 -0.28063149101E+02 -0.16890387462E+02 -0.32562396293E+03  0.33647412352E+03  0.78173173398E+02 0.  0.
         -6    2    1    2    0  502  0.82044778077E+02  0.11740330599E+03 -0.21557096094E+03  0.30999886410E+03  0.17062700453E+03 0.  0.
        -24    2    5    5    0    0 -0.83667483235E+01  0.41938894920E+02 -0.14879110061E+03  0.17453388268E+03  0.80587909766E+02 0.  0.
          5    1    3    3  501    0 -0.53981628976E+02 -0.10051291852E+03 -0.14383437517E+03  0.18364988576E+03  0.47000000000E+01 0. -1.
        -11    1    4    4    0    0 -0.44253621903E+02 -0.14363498583E+02 -0.10041807367E+03  0.11067286326E+03  0.00000000000E+00 0.  1.
         12    1    4    4    0    0  0.16190472802E+02 -0.25268888782E+01 -0.22520588927E+03  0.22580126026E+03  0.00000000000E+00 0. -1.
         -5    1    5    5    0  502  0.90411526400E+02  0.75464411066E+02 -0.66779860330E+02  0.13546498141E+03  0.47000000000E+01 0.  1.
         13    1    6    6    0    0  0.27838555448E+02  0.80521008544E+01 -0.10312935449E+03  0.10712369138E+03  0.00000000000E+00 0. -1.
        -14    1    6    6    0    0 -0.36205303772E+02  0.33886794065E+02 -0.45661746119E+02  0.67410191306E+02  0.00000000000E+00 0.  1.
</event>
<event>
12    1  0.8451514E-002  0.2188019E+03  0.7818608E-02  0.1135084E+00
         21   -1    0    0  501  502  0.00000000000E+00  0.00000000000E+00  0.47343073387E+02  0.47343073387E+02  0.00000000000E+00 0. -1.
         21   -1    0    0  502  503 -0.00000000000E+00 -0.00000000000E+00 -0.14996198238E+04  0.14996198238E+04  0.00000000000E+00 0. -1.
         -6    2    1    2    0  503 -0.13003195174E+03  0.29630091830E+02 -0.11691056887E+04  0.11891080153E+04  0.17141618889E+03 0.  0.
        -24    2    3    3    0    0 -0.87624311390E+02  0.39072861022E+02 -0.41124036917E+03  0.42998384466E+03  0.81010845089E+02 0.  0.
          6    2    1    2  501    0  0.13003195174E+03 -0.29630091830E+02 -0.28317106165E+03  0.35785488186E+03  0.17345897353E+03 0.  0.
         24    2    5    5    0    0  0.38238084013E+02 -0.74855482241E+02 -0.14282612058E+03  0.18410148599E+03  0.80178314616E+02 0.  0.
          5    1    5    5  501    0  0.91793867725E+02  0.45225390412E+02 -0.14034494108E+03  0.17375339587E+03  0.47000000000E+01 0. -1.
        -11    1    6    6    0    0  0.27319806937E+02  0.42751702263E+01 -0.72792762939E+02  0.77868063208E+02  0.00000000000E+00 0.  1.
         12    1    6    6    0    0  0.10918277076E+02 -0.79130652468E+02 -0.70033357640E+02  0.10623342278E+03  0.00000000000E+00 0. -1.
         -5    1    3    3    0  503 -0.42407640348E+02 -0.94427691923E+01 -0.75786531957E+03  0.75912417064E+03  0.47000000000E+01 0.  1.
         11    1    4    4    0    0 -0.70542631621E+02  0.43235719916E+02 -0.40139449533E+03  0.40983305288E+03  0.00000000000E+00 0. -1.
        -12    1    4    4    0    0 -0.17081679769E+02 -0.41628588945E+01 -0.98458738456E+01  0.20150791788E+02  0.00000000000E+00 0.  1.
</event>
<event>
12    1  0.8451514E-002  0.2159978E+03  0.7818608E-02  0.1136931E+00
         21   -1    0    0  503  502  0.00000000000E+00  0.00000000000E+00  0.28422452589E+03  0.28422452589E+03  0.00000000000E+00 0.  1.
         21   -1    0    0  501  503 -0.00000000000E+00 -0.00000000000E+00 -0.22741494556E+03  0.22741494556E+03  0.00000000000E+00 0.  1.
          6    2    1    2  501    0  0.15957486286E+02 -0.12979039492E+03 -0.10665327864E+03  0.24076097935E+03  0.17172867947E+03 0.  0.
         24    2    3    3    0    0  0.84255729004E+01  0.23852882785E+01 -0.23226709426E+02  0.84206760633E+02  0.80465014923E+02 0.  0.
         -6    2    1    2    0  502 -0.15957486286E+02  0.12979039492E+03  0.16346285897E+03  0.27087849209E+03  0.17191527924E+03 0.  0.
        -24    2    5    5    0    0 -0.35724607076E+02  0.93349274364E+02  0.33372750856E+02  0.13426143401E+03  0.83198903761E+02 0.  0.
          5    1    3    3  501    0  0.75319133856E+01 -0.13217568320E+03 -0.83426569217E+02  0.15655421872E+03  0.47000000000E+01 0. -1.
        -13    1    4    4    0    0 -0.15603804321E+02  0.19041600445E+02 -0.42551442735E+02  0.49159806099E+02  0.00000000000E+00 0.  1.
         14    1    4    4    0    0  0.24029377221E+02 -0.16656312167E+02  0.19324733309E+02  0.35046954534E+02  0.00000000000E+00 0. -1.
         -5    1    5    5    0  502  0.19767120790E+02  0.36441120555E+02  0.13009010811E+03  0.13661705809E+03  0.47000000000E+01 0.  1.
         11    1    6    6    0    0 -0.25664738358E+02 -0.88295610322E+01  0.10286909046E+02  0.29025169091E+02  0.00000000000E+00 0. -1.
        -12    1    6    6    0    0 -0.10059868717E+02  0.10217883540E+03  0.23085841809E+02  0.10523626492E+03  0.00000000000E+00 0.  1.
</event>
<event>
12    1  0.8451514E-002  0.2306530E+03  0.7818608E-02  0.1126537E+00
         21   -1    0    0  503  502  0.00000000000E+00  0.00000000000E+00  0.27290449350E+03  0.27290449350E+03  0.00000000000E+00 0.  1.
         21   -1    0    0  501  503 -0.00000000000E+00 -0.00000000000E+00 -0.23553834375E+03  0.23553834375E+03  0.00000000000E+00 0. -1.
          6    2    1    2  501    0  0.13249595532E+03  0.70026226272E+02 -0.88981491884E+02  0.24722162702E+03  0.17533389982E+03 0.  0.
         24    2    3    3    0    0  0.15435651860E+02  0.91928441703E+01  0.72058284576E+01  0.83887902336E+02  0.81624067910E+02 0.  0.
         -6    2    1    2    0  502 -0.13249595532E+03 -0.70026226272E+02  0.12634764163E+03  0.26122121024E+03  0.17266714682E+03 0.  0.
        -24    2    5    5    0    0 -0.35862799344E+02  0.14187987164E+02  0.93067217639E+02  0.12870827804E+03  0.80105396073E+02 0.  0.
          5    1    3    3  501    0  0.11706030346E+03  0.60833382101E+02 -0.96187320341E+02  0.16333372468E+03  0.47000000000E+01 0. -1.
        -11    1    4    4    0    0 -0.62688213386E+01  0.42911903256E+02  0.15953695722E+01  0.43396713771E+02  0.00000000000E+00 0.  1.
         12    1    4    4    0    0  0.21704473199E+02 -0.33719059086E+02  0.56104588854E+01  0.40491188565E+02  0.00000000000E+00 0. -1.
         -5    1    5    5    0  502 -0.96633155979E+02 -0.84214213435E+02  0.33280423995E+02  0.13251293220E+03  0.47000000000E+01 0.  1.
         11    1    6    6    0    0 -0.50467735492E+02 -0.20352160922E+01  0.23333779013E+02  0.55638113495E+02  0.00000000000E+00 0. -1.
        -12    1    6    6    0    0  0.14604936149E+02  0.16223203256E+02  0.69733438626E+02  0.73070164543E+02  0.00000000000E+00 0.  1.
</event>
<event>
12    1  0.8451514E-002  0.2238382E+03  0.7818608E-02  0.1131198E+00
         21   -1    0    0  503  502  0.00000000000E+00  0.00000000000E+00  0.26175180661E+03  0.26175180661E+03  0.00000000000E+00 0.  1.
         21   -1    0    0  501  503 -0.00000000000E+00 -0.00000000000E+00 -0.21665973312E+03  0.21665973312E+03  0.00000000000E+00 0.  1.
          6    2    1    2  501    0 -0.14018040281E+03 -0.17617551264E+02 -0.60226665597E+02  0.23103413907E+03  0.17259373895E+03 0.  0.
         24    2    3    3    0    0 -0.28477568320E+02 -0.26288775306E+02 -0.78743780585E+02  0.11737813656E+03  0.77942109013E+02 0.  0.
         -6    2    1    2    0  502  0.14018040281E+03  0.17617551264E+02  0.10531873908E+03  0.24737740066E+03  0.17361629564E+03 0.  0.
        -24    2    5    5    0    0  0.12888589988E+03  0.67887825602E+02  0.10376114039E+03  0.19561658158E+03  0.79241029015E+02 0.  0.
          5    1    3    3  501    0 -0.11170283449E+03  0.86712240416E+01  0.18517114988E+02  0.11365600251E+03  0.47000000000E+01 0. -1.
        -13    1    4    4    0    0  0.20843562224E+02 -0.25709468464E+02 -0.50965833157E+02  0.60769622381E+02  0.00000000000E+00 0.  1.
         14    1    4    4    0    0 -0.49321130544E+02 -0.57930684216E+00 -0.27777947428E+02  0.56608514181E+02  0.00000000000E+00 0. -1.
         -5    1    5    5    0  502  0.11294502931E+02 -0.50270274338E+02  0.15575986863E+01  0.51760819083E+02  0.47000000000E+01 0.  1.
         11    1    6    6    0    0 -0.88325259160E+01  0.41974300439E+01  0.20088664922E+02  0.22342479526E+02  0.00000000000E+00 0. -1.
        -12    1    6    6    0    0  0.13771842579E+03  0.63690395558E+02  0.83672475470E+02  0.17327410205E+03  0.00000000000E+00 0.  1.
</event>
<event>
12    1  0.8451514E-002  0.1848744E+03  0.7818608E-02  0.1163286E+00
         21   -1    0    0  503  502  0.00000000000E+00  0.00000000000E+00  0.21855332174E+02  0.21855332174E+02  0.00000000000E+00 0.  1.
         21   -1    0    0  501  503 -0.00000000000E+00 -0.00000000000E+00 -0.20758993069E+04  0.20758993069E+04  0.00000000000E+00 0.  1.
          6    2    1    2  501    0 -0.17978446787E+02 -0.66193837608E+02 -0.50286804598E+03  0.53560057879E+03  0.17113403998E+03 0.  0.
         24    2    3    3    0    0  0.53213897172E+02 -0.53796428534E+02 -0.25776903594E+03  0.28002737926E+03  0.79023304620E+02 0.  0.
         -6    2    1    2    0  502  0.17978446787E+02  0.66193837608E+02 -0.15511759287E+04  0.15621540603E+04  0.17167905368E+03 0.  0.
        -24    2    5    5    0    0 -0.46704795048E+02  0.29598014453E+02 -0.11515671862E+04  0.11556661599E+04  0.79999427864E+02 0.  0.
          5    1    3    3  501    0 -0.71192343960E+02 -0.12397409073E+02 -0.24509901005E+03  0.25557319953E+03  0.47000000000E+01 0. -1.
        -11    1    4    4    0    0  0.18472712506E+02 -0.36713031405E+02 -0.22667944120E+03  0.23037503521E+03  0.00000000000E+00 0.  1.
         12    1    4    4    0    0  0.34741184667E+02 -0.17083397130E+02 -0.31089594735E+02  0.49652344057E+02  0.00000000000E+00 0. -1.
         -5    1    5    5    0  502  0.64683241836E+02  0.36595823154E+02 -0.39960874255E+03  0.40648790039E+03  0.47000000000E+01 0.  1.
         11    1    6    6    0    0 -0.34529777957E+02 -0.18473947946E+02 -0.28457065220E+03  0.28725258644E+03  0.00000000000E+00 0. -1.
        -12    1    6    6    0    0 -0.12175017091E+02  0.48071962399E+02 -0.86699653396E+03  0.86841357342E+03  0.00000000000E+00 0.  1.
</event>
<event>
12    1  0.8451514E-002  0.1773811E+03  0.7818608E-02  0.1172135E+00
         21   -1    0    0  503  502  0.00000000000E+00  0.00000000000E+00  0.34670957429E+03  0.34670957429E+03  0.00000000000E+00 0. -1.
         21   -1    0    0  501  503 -0.00000000000E+00 -0.00000000000E+00 -0.14135794197E+03  0.14135794197E+03  0.00000000000E+00 0. -1.
          6    2    1    2  501    0 -0.45487019610E+02  0.55625006521E+01 -0.47092344900E+02  0.18352583869E+03  0.17135937136E+03 0.  0.
         24    2    3    3    0    0 -0.74699691373E+02 -0.54338055436E+01  0.15272094395E+02  0.11362796870E+03  0.84074421014E+02 0.  0.
         -6    2    1    2    0  502  0.45487019610E+02 -0.55625006521E+01  0.25244397722E+03  0.30454167757E+03  0.16406602748E+03 0.  0.
        -24    2    5    5    0    0  0.47791141154E+02  0.56322638438E+02  0.16591637631E+03  0.19803254586E+03  0.78945630151E+02 0.  0.
          5    1    3    3  501    0  0.29212671764E+02  0.10996306196E+02 -0.62364439295E+02  0.69897869997E+02  0.47000000000E+01 0. -1.
        -11    1    4    4    0    0 -0.27067908706E+01  0.31140108724E+02  0.95101263667E+01  0.32672244975E+02  0.00000000000E+00 0.  1.
         12    1    4    4    0    0 -0.71992900503E+02 -0.36573914268E+02  0.57619680280E+01  0.80955723721E+02  0.00000000000E+00 0. -1.
         -5    1    5    5    0  502 -0.23041215448E+01 -0.61885139090E+02  0.86527600916E+02  0.10650913170E+03  0.47000000000E+01 0.  1.
         13    1    6    6    0    0  0.39923000793E+02 -0.80286519521E+01  0.85783025711E+02  0.94958057818E+02  0.00000000000E+00 0. -1.
        -14    1    6    6    0    0  0.78681403617E+01  0.64351290390E+02  0.80133350597E+02  0.10307448804E+03  0.00000000000E+00 0.  1.
</event>
<event>
12    1  0.8451514E-002  0.1967425E+03  0.7818608E-02  0.1154275E+00
         21   -1    0    0  501  502  0.00000000000E+00  0.00000000000E+00  0.14956337223E+03  0.14956337223E+03  0.00000000000E+00 0. -1.
         21   -1    0    0  502  503 -0.00000000000E+00 -0.00000000000E+00 -0.24857820822E+03  0.24857820822E+03  0.00000000000E+00 0. -1.
         -6    2    1    2    0  503 -0.21340542291E+02  0.93106548852E+02 -0.43322567231E+02  0.19366848304E+03  0.16280782631E+03 0.  0.
        -24    2    3    3    0    0 -0.39803758223E+01  0.10554583670E+03 -0.77876179675E+02  0.15277651078E+03  0.78231680600E+02 0.  0.
          6    2    1    2  501    0  0.21340542291E+02 -0.93106548852E+02 -0.55692268761E+02  0.20447309741E+03  0.17199817028E+03 0.  0.
         24    2    5    5    0    0  0.42107394974E+02 -0.16734110163E+02  0.22469650165E+02  0.93138524472E+02  0.78210206545E+02 0.  0.
          5    1    5    5  501    0 -0.20766852683E+02 -0.76372438688E+02 -0.78161918926E+02  0.11133457294E+03  0.47000000000E+01 0. -1.
        -11    1    6    6    0    0 -0.29261901712E+01  0.19362138690E+02 -0.14704318500E+02  0.24488200957E+02  0.00000000000E+00 0.  1.
         12    1    6    6    0    0  0.45033585146E+02 -0.36096248853E+02  0.37173968665E+02  0.68650323515E+02  0.00000000000E+00 0. -1.
         -5    1    3    3    0  503 -0.17360166469E+02 -0.12439287853E+02  0.34553612443E+02  0.40891972256E+02  0.47000000000E+01 0.  1.
         11    1    4    4    0    0 -0.13250340552E+01  0.76102727941E+02 -0.75480215449E+01  0.76487603862E+02  0.00000000000E+00 0. -1.
        -12    1    4    4    0    0 -0.26553417671E+01  0.29443108764E+02 -0.70328158130E+02  0.76288906923E+02  0.00000000000E+00 0.  1.
</event>
<event>
12    1  0.8451514E-002  0.3030972E+03  0.7818608E-02  0.1084355E+00
         21   -1    0    0  501  502  0.00000000000E+00  0.00000000000E+00  0.17771111713E+03  0.17771111713E+03  0.00000000000E+00 0.  1.
         21   -1    0    0  502  503 -0.00000000000E+00 -0.00000000000E+00 -0.56365192107E+03  0.56365192107E+03  0.00000000000E+00 0. -1.
         -6    2    1    2    0  503  0.71418663233E+02 -0.23909059021E+03 -0.31090100359E+03  0.43419737231E+03  0.17205518970E+03 0.  0.
        -24    2    3    3    0    0  0.37367627725E+02 -0.23224421672E+03 -0.20331626166E+03  0.32104741630E+03  0.80001409095E+02 0.  0.
          6    2    1    2  501    0 -0.71418663233E+02  0.23909059021E+03 -0.75039800357E+02  0.30716566589E+03  0.16264943553E+03 0.  0.
         24    2    5    5    0    0 -0.61445512363E+02  0.10655449109E+03  0.40089349410E+01  0.15245279034E+03  0.89979837536E+02 0.  0.
          5    1    5    5  501    0 -0.99731508700E+01  0.13253609912E+03 -0.79048735298E+02  0.15471287555E+03  0.47000000000E+01 0. -1.
        -13    1    6    6    0    0 -0.29365440725E+02  0.84267931690E+02  0.41405326586E+02  0.98375883681E+02  0.00000000000E+00 0.  1.
         14    1    6    6    0    0 -0.32080071637E+02  0.22286559402E+02 -0.37396391645E+02  0.54076906664E+02  0.00000000000E+00 0. -1.
         -5    1    3    3    0  503  0.34051035508E+02 -0.68463734949E+01 -0.10758474193E+03  0.11314995601E+03  0.47000000000E+01 0.  1.
         11    1    4    4    0    0  0.25642671636E+02 -0.10661810506E+03 -0.14566685126E+03  0.18232881970E+03  0.00000000000E+00 0. -1.
        -12    1    4    4    0    0  0.11724956089E+02 -0.12562611165E+03 -0.57649410401E+02  0.13871859660E+03  0.00000000000E+00 0.  1.
</event>
<event>
12    1  0.8451514E-002  0.1925058E+03  0.7818608E-02  0.1156241E+00
         21   -1    0    0  503  502  0.00000000000E+00  0.00000000000E+00  0.70880064109E+02  0.70880064109E+02  0.00000000000E+00 0.  1.
         21   -1    0    0  501  503 -0.00000000000E+00 -0.00000000000E+00 -0.53677022026E+03  0.53677022026E+03  0.00000000000E+00 0.  1.
          6    2    1    2  501    0 -0.78563104857E+02 -0.36087865913E+02 -0.18349043661E+03  0.26587828397E+03  0.17189539275E+03 0.  0.
         24    2    3    3    0    0  0.19135080079E+01  0.14901474368E+01 -0.15562581877E+03  0.17267356717E+03  0.74772209281E+02 0.  0.
         -6    2    1    2    0  502  0.78563104857E+02  0.36087865913E+02 -0.28239971954E+03  0.34177200040E+03  0.17200000915E+03 0.  0.
        -24    2    5    5    0    0  0.90280830070E+02 -0.25904397967E+02 -0.22693690509E+03  0.25763782392E+03  0.77815315388E+02 0.  0.
          5    1    3    3  501    0 -0.80476612865E+02 -0.37578013350E+02 -0.27864617836E+02  0.93204716794E+02  0.47000000000E+01 0. -1.
        -11    1    4    4    0    0 -0.24000755472E+02 -0.19343114564E+02 -0.31112182305E+02  0.43796806185E+02  0.00000000000E+00 0.  1.
         12    1    4    4    0    0  0.25914263480E+02  0.20833262001E+02 -0.12451363647E+03  0.12887676099E+03  0.00000000000E+00 0. -1.
         -5    1    5    5    0  502 -0.11717725213E+02  0.61992263880E+02 -0.55462814451E+02  0.84134176480E+02  0.47000000000E+01 0.  1.
         13    1    6    6    0    0  0.28757324961E+02 -0.15796538404E+02 -0.13844618683E+02  0.35611624941E+02  0.00000000000E+00 0. -1.
        -14    1    6    6    0    0  0.61523505109E+02 -0.10107859563E+02 -0.21309228641E+03  0.22202619898E+03  0.00000000000E+00 0.  1.
</event>
<event>
12    1  0.8451514E-002  0.2250096E+03  0.7818608E-02  0.1130622E+00
         21   -1    0    0  501  502  0.00000000000E+00  0.00000000000E+00  0.88878640608E+02  0.88878640608E+02  0.00000000000E+00 0. -1.
         21   -1    0    0  502  503 -0.00000000000E+00 -0.00000000000E+00 -0.56420536056E+03  0.56420536056E+03  0.00000000000E+00 0. -1.
         -6    2    1    2    0  503 -0.38679578226E+02  0.13621268926E+03 -0.23038089345E+03  0.32203208603E+03  0.17486938519E+03 0.  0.
        -24    2    3    3    0    0 -0.45341720040E+02  0.57592377857E+01 -0.78953774858E+02  0.12199521598E+03  0.80994405737E+02 0.  0.
          6    2    1    2  501    0  0.38679578226E+02 -0.13621268926E+03 -0.24494582651E+03  0.33105191515E+03  0.17189213510E+03 0.  0.
         24    2    5    5    0    0  0.75041533585E+02 -0.14783918504E+03 -0.19502149341E+03  0.26802893333E+03  0.79488803081E+02 0.  0.
          5    1    5    5  501    0 -0.36361955358E+02  0.11626495776E+02 -0.49924333104E+02  0.63022981820E+02  0.47000000000E+01 0. -1.
        -11    1    6    6    0    0 -0.56127376309E+01 -0.73177823137E+02 -0.88496389218E+02  0.11497002882E+03  0.00000000000E+00 0.  1.
         12    1    6    6    0    0  0.80654271216E+02 -0.74661361899E+02 -0.10652510419E+03  0.15305890450E+03  0.00000000000E+00 0. -1.
         -5    1    3    3    0  503  0.66621418139E+01  0.13045345147E+03 -0.15142711859E+03  0.20003687005E+03  0.47000000000E+01 0.  1.
         11    1    4    4    0    0 -0.41684929265E+02  0.39151959964E+02 -0.36439204941E+02  0.67810950101E+02  0.00000000000E+00 0. -1.
        -12    1    4    4    0    0 -0.36567907752E+01 -0.33392722178E+02 -0.42514569917E+02  0.54184265875E+02  0.00000000000E+00 0.  1.
</event>
<event>
12    1  0.8451514E-002  0.1969024E+03  0.7818608E-02  0.1152498E+00
         21   -1    0    0  501  502  0.00000000000E+00  0.00000000000E+00  0.18487870321E+03  0.18487870321E+03  0.00000000000E+00 0.  1.
         21   -1    0    0  502  503 -0.00000000000E+00 -0.00000000000E+00 -0.21297975355E+03  0.21297975355E+03  0.00000000000E+00 0.  1.
         -6    2    1    2    0  503 -0.41237958244E+02  0.86087956138E+02  0.12701152171E+02  0.19731161982E+03  0.17221745167E+03 0.  0.
        -24    2    3    3    0    0  0.14721121120E+01  0.11438901443E+03  0.28629239679E+02  0.14345167198E+03  0.81680689835E+02 0.  0.
          6    2    1    2  501    0  0.41237958244E+02 -0.86087956138E+02 -0.40802202515E+02  0.20054683694E+03  0.17158819506E+03 0.  0.
         24    2    5    5    0    0  0.90336883949E+02 -0.44555260174E+02 -0.45456110272E+02  0.13589841703E+03  0.79096131257E+02 0.  0.
          5    1    5    5  501    0 -0.49098925705E+02 -0.41532695964E+02  0.46539077567E+01  0.64648419909E+02  0.47000000000E+01 0. -1.
        -13    1    6    6    0    0  0.24854122270E+02  0.17931647118E+02  0.67873490063E+01  0.31390117373E+02  0.00000000000E+00 0.  1.
         14    1    6    6    0    0  0.65482761679E+02 -0.62486907293E+02 -0.52243459278E+02  0.10450829966E+03  0.00000000000E+00 0. -1.
         -5    1    3    3    0  503 -0.42710070356E+02 -0.28301058294E+02 -0.15928087508E+02  0.53859947846E+02  0.47000000000E+01 0.  1.
         13    1    4    4    0    0  0.41075914689E+01  0.12589167121E+02  0.38908477046E+02  0.41100231417E+02  0.00000000000E+00 0. -1.
        -14    1    4    4    0    0 -0.26354793570E+01  0.10179984731E+03 -0.10279237368E+02  0.10235144056E+03  0.00000000000E+00 0.  1.
</event>
<event>
12    1  0.8451514E-002  0.1932396E+03  0.7818608E-02  0.1155637E+00
         21   -1    0    0  503  502  0.00000000000E+00  0.00000000000E+00  0.35360895996E+02  0.35360895996E+02  0.00000000000E+00 0. -1.
         21   -1    0    0  501  503 -0.00000000000E+00 -0.00000000000E+00 -0.24171001975E+04  0.24171001975E+04  0.00000000000E+00 0. -1.
          6    2    1    2  501    0  0.42227024856E+02 -0.76894327116E+02 -0.21119889577E+04  0.21208109037E+04  0.17217918747E+03 0.  0.
         24    2    3    3    0    0 -0.41139591947E+02 -0.50168679415E+02 -0.78708798713E+03  0.79301237799E+03  0.71775829765E+02 0.  0.
         -6    2    1    2    0  502 -0.42227024856E+02  0.76894327116E+02 -0.26975034381E+03  0.33165018981E+03  0.17184510829E+03 0.  0.
        -24    2    5    5    0    0 -0.58924054056E+02 -0.11916827088E+02 -0.86234111944E+02  0.12703711776E+03  0.71330584688E+02 0.  0.
          5    1    3    3  501    0  0.83366616803E+02 -0.26725647701E+02 -0.13249009706E+04  0.13277985257E+04  0.47000000000E+01 0. -1.
        -11    1    4    4    0    0 -0.42532492210E+02  0.37819428686E+01 -0.36416006818E+03  0.36665497575E+03  0.00000000000E+00 0.  1.
         12    1    4    4    0    0  0.13929002631E+01 -0.53950622284E+02 -0.42292791895E+03  0.42635740224E+03  0.00000000000E+00 0. -1.
         -5    1    5    5    0  502  0.16697029200E+02  0.88811154204E+02 -0.18351623187E+03  0.20461307205E+03  0.47000000000E+01 0.  1.
         11    1    6    6    0    0 -0.24419617441E+02  0.16444630130E+02 -0.75591220846E+02  0.81121983734E+02  0.00000000000E+00 0. -1.
        -12    1    6    6    0    0 -0.34504436615E+02 -0.28361457218E+02 -0.10642891098E+02  0.45915134026E+02  0.00000000000E+00 0.  1.
</event>
<event>
12    1  0.8451514E-002  0.1737965E+03  0.7818608E-02  0.1174355E+00
         21   -1    0    0  503  502  0.00000000000E+00  0.00000000000E+00  0.81274171111E+03  0.81274171111E+03  0.00000000000E+00 0. -1.
         21   -1    0    0  501  503 -0.00000000000E+00 -0.00000000000E+00 -0.42240174842E+02  0.42240174842E+02  0.00000000000E+00 0. -1.
          6    2    1    2  501    0 -0.83874960631E+01 -0.27175121311E+02  0.23058162582E+03  0.28777935014E+03  0.16982411752E+03 0.  0.
         24    2    3    3    0    0 -0.49740601916E+02 -0.64782006594E+02  0.16691362065E+03  0.20292617066E+03  0.81535502234E+02 0.  0.
         -6    2    1    2    0  502  0.83874960631E+01  0.27175121311E+02  0.53991991044E+03  0.56720253581E+03  0.17145369529E+03 0.  0.
        -24    2    5    5    0    0 -0.30680073926E+02  0.69173069735E+02  0.41672245145E+03  0.43122530757E+03  0.81064689214E+02 0.  0.
          5    1    3    3  501    0  0.41353105852E+02  0.37606885283E+02  0.63668005178E+02  0.84853179479E+02  0.47000000000E+01 0. -1.
        -11    1    4    4    0    0 -0.60423804216E+02 -0.35602675226E+02  0.62342402256E+02  0.93835823213E+02  0.00000000000E+00 0.  1.
         12    1    4    4    0    0  0.10683202300E+02 -0.29179331368E+02  0.10457121839E+03  0.10909034745E+03  0.00000000000E+00 0. -1.
         -5    1    5    5    0  502  0.39067569989E+02 -0.41997948425E+02  0.12319745899E+03  0.13597722824E+03  0.47000000000E+01 0.  1.
         13    1    6    6    0    0  0.14070975248E+02  0.64365934538E+02  0.24810410702E+03  0.25670335758E+03  0.00000000000E+00 0. -1.
        -14    1    6    6    0    0 -0.44751049174E+02  0.48071351968E+01  0.16861834443E+03  0.17452194999E+03  0.00000000000E+00 0.  1.
</event>
<event>
12    1  0.8451514E-002  0.2055783E+03  0.7818608E-02  0.1145268E+00
         21   -1    0    0  503  502  0.00000000000E+00  0.00000000000E+00  0.11521937874E+03  0.11521937874E+03  0.00000000000E+00 0. -1.
         21   -1    0    0  501  503 -0.00000000000E+00 -0.00000000000E+00 -0.61607864765E+03  0.61607864765E+03  0.00000000000E+00 0.  1.
          6    2    1    2  501    0  0.54544983561E+02 -0.98377226484E+02 -0.48390642494E+03  0.52576408769E+03  0.17207328058E+03 0.  0.
         24    2    3    3    0    0  0.17756482067E+02 -0.16027783084E+02 -0.37584392087E+03  0.38492936380E+03  0.79622733998E+02 0.  0.
         -6    2    1    2    0  502 -0.54544983561E+02  0.98377226484E+02 -0.16952843969E+02  0.20553393870E+03  0.17118284703E+03 0.  0.
        -24    2    5    5    0    0 -0.38641621368E+02  0.12855092705E+03  0.16889437854E+02  0.15725600198E+03  0.80160347439E+02 0.  0.
          5    1    3    3  501    0  0.36788501494E+02 -0.82349443400E+02 -0.10806250406E+03  0.14083472390E+03  0.47000000000E+01 0. -1.
        -13    1    4    4    0    0  0.27889944304E+02 -0.23321730411E+02 -0.36881243375E+03  0.37060000458E+03  0.00000000000E+00 0.  1.
         14    1    4    4    0    0 -0.10133462237E+02  0.72939473264E+01 -0.70314871231E+01  0.14329359221E+02  0.00000000000E+00 0. -1.
         -5    1    5    5    0  502 -0.15903362193E+02 -0.30173700564E+02 -0.33842281823E+02  0.48277936718E+02  0.47000000000E+01 0.  1.
         11    1    6    6    0    0 -0.18346221973E+02  0.83369162015E+02 -0.28578151234E+02  0.90020618548E+02  0.00000000000E+00 0. -1.
        -12    1    6    6    0    0 -0.20295399394E+02  0.45181765033E+02  0.45467589088E+02  0.67235383435E+02  0.00000000000E+00 0.  1.
</event>
<event>
12    1  0.8451514E-002  0.2773773E+03  0.7818608E-02  0.1097574E+00
         21   -1    0    0  503  502  0.00000000000E+00  0.00000000000E+00  0.19293510524E+03  0.19293510524E+03  0.00000000000E+00 0. -1.
         21   -1    0    0  501  503 -0.00000000000E+00 -0.00000000000E+00 -0.84070757809E+03  0.84070757809E+03  0.00000000000E+00 0.  1.
          6    2    1    2  501    0 -0.66660813798E+02 -0.20481721396E+03 -0.69964957933E+03  0.75145583751E+03  0.16965431514E+03 0.  0.
         24    2    3    3    0    0 -0.10541282015E+03 -0.18960480515E+03 -0.64135070038E+03  0.67966457993E+03  0.59593418645E+02 0.  0.
         -6    2    1    2    0  502  0.66660813798E+02  0.20481721396E+03  0.51877106487E+02  0.28218684581E+03  0.17476963850E+03 0.  0.
        -24    2    5    5    0    0  0.50631324894E+01  0.17876727161E+03  0.78986435831E+02  0.20986893948E+03  0.76306893549E+02 0.  0.
          5    1    3    3  501    0  0.38752006357E+02 -0.15212408804E+02 -0.58298878956E+02  0.71791257586E+02  0.47000000000E+01 0. -1.
        -11    1    4    4    0    0 -0.82906867572E+02 -0.11422893181E+03 -0.47724292897E+03  0.49767721547E+03  0.00000000000E+00 0.  1.
         12    1    4    4    0    0 -0.22505952582E+02 -0.75375873345E+02 -0.16410777141E+03  0.18198736446E+03  0.00000000000E+00 0. -1.
         -5    1    5    5    0  502  0.61597681308E+02  0.26049942346E+02 -0.27109329344E+02  0.72317906332E+02  0.47000000000E+01 0.  1.
         13    1    6    6    0    0  0.29984606020E+02  0.54590564049E+02  0.34005830854E+01  0.62376039043E+02  0.00000000000E+00 0. -1.
        -14    1    6    6    0    0 -0.24921473531E+02  0.12417670756E+03  0.75585852745E+02  0.14749290044E+03  0.00000000000E+00 0.  1.
</event>
<event>
12    1  0.8451514E-002  0.2190844E+03  0.7818608E-02  0.1134655E+00
         21   -1    0    0  503  502  0.00000000000E+00  0.00000000000E+00  0.93732692895E+03  0.93732692895E+03  0.00000000000E+00 0.  1.
         21   -1    0    0  501  503 -0.00000000000E+00 -0.00000000000E+00 -0.51210767740E+02  0.51210767740E+02  0.00000000000E+00 0. -1.
          6    2    1    2  501    0 -0.13554103716E+03  0.56013500947E+01  0.46578437255E+03  0.51453688356E+03  0.17143621249E+03 0.  0.
         24    2    3    3    0    0 -0.49515091206E+02  0.55948302590E+02  0.31713713426E+03  0.33550233255E+03  0.80024348807E+02 0.  0.
         -6    2    1    2    0  502  0.13554103716E+03 -0.56013500947E+01  0.42033178867E+03  0.47400081314E+03  0.17203258533E+03 0.  0.
        -24    2    5    5    0    0  0.62400792204E+02  0.17241751541E+02  0.94523853092E+02  0.13927076727E+03  0.79186179025E+02 0.  0.
          5    1    3    3  501    0 -0.86025945951E+02 -0.50346952496E+02  0.14864723829E+03  0.17903455101E+03  0.47000000000E+01 0. -1.
        -11    1    4    4    0    0  0.20510532481E+02  0.22336802049E+02  0.11570451591E+03  0.11961249796E+03  0.00000000000E+00 0.  1.
         12    1    4    4    0    0 -0.70025623687E+02  0.33611500541E+02  0.20143261835E+03  0.21588983458E+03  0.00000000000E+00 0. -1.
         -5    1    5    5    0  502  0.73140244953E+02 -0.22843101636E+02  0.32580793557E+03  0.33473004587E+03  0.47000000000E+01 0.  1.
         13    1    6    6    0    0  0.66739093637E+02 -0.15173618396E+02  0.73286316311E+02  0.10027576713E+03  0.00000000000E+00 0. -1.
        -14    1    6    6    0    0 -0.43383014334E+01  0.32415369937E+02  0.21237536781E+02  0.38995000141E+02  0.00000000000E+00 0.  1.
</event>
<event>
12    1  0.8451514E-002  0.2006154E+03  0.7818608E-02  0.1149385E+00
         21   -1    0    0  501  502  0.00000000000E+00  0.00000000000E+00  0.92910035697E+03  0.92910035697E+03  0.00000000000E+00 0.  1.
         21   -1    0    0  502  503 -0.00000000000E+00 -0.00000000000E+00 -0.14775956437E+03  0.14775956437E+03  0.00000000000E+00 0. -1.
         -6    2    1    2    0  503  0.10196714149E+03  0.12007696274E+02 -0.62148559571E+02  0.21002137117E+03  0.17235153083E+03 0.  0.
        -24    2    3    3    0    0  0.13197497648E+02  0.16225855958E+02  0.23072676273E+02  0.86803711815E+02  0.81025203787E+02 0.  0.
          6    2    1    2  501    0 -0.10196714149E+03 -0.12007696274E+02  0.84348935217E+03  0.86683855016E+03  0.17144474941E+03 0.  0.
         24    2    5    5    0    0 -0.13572605116E+03 -0.32447798854E+02  0.68673393718E+03  0.70512333163E+03  0.78236767010E+02 0.  0.
          5    1    5    5  501    0  0.33758909674E+02  0.20440102579E+02  0.15675541499E+03  0.16171521853E+03  0.47000000000E+01 0. -1.
        -11    1    6    6    0    0 -0.85240617848E+02 -0.54533124220E+02  0.36791872988E+03  0.38158094340E+03  0.00000000000E+00 0.  1.
         12    1    6    6    0    0 -0.50485433317E+02  0.22085325367E+02  0.31881520730E+03  0.32354238823E+03  0.00000000000E+00 0. -1.
         -5    1    3    3    0  503  0.88769643843E+02 -0.42181596840E+01 -0.85221235843E+02  0.12321765936E+03  0.47000000000E+01 0.  1.
         13    1    4    4    0    0 -0.42011042689E+01  0.23682145969E+02 -0.25270450299E+02  0.34886802276E+02  0.00000000000E+00 0. -1.
        -14    1    4    4    0    0  0.17398601917E+02 -0.74562900103E+01  0.48343126571E+02  0.51916909539E+02  0.00000000000E+00 0.  1.
</event>
<event>
12    1  0.8451514E-002  0.2072500E+03  0.7818608E-02  0.1143983E+00
         21   -1    0    0  503  502  0.00000000000E+00  0.00000000000E+00  0.71786410803E+02  0.71786410803E+02  0.00000000000E+00 0. -1.
         21   -1    0    0  501  503 -0.00000000000E+00 -0.00000000000E+00 -0.85521018838E+03  0.85521018838E+03  0.00000000000E+00 0. -1.
          6    2    1    2  501    0  0.88516499616E+02  0.72766846047E+02 -0.64656339728E+03  0.67863529303E+03  0.17138100727E+03 0.  0.
         24    2    3    3    0    0  0.48012835404E+02 -0.28573226763E+02 -0.30323514068E+03  0.31834827001E+03  0.79198540561E+02 0.  0.
         -6    2    1    2    0  502 -0.88516499616E+02 -0.72766846047E+02 -0.13686038029E+03  0.24836130615E+03  0.17269160406E+03 0.  0.
        -24    2    5    5    0    0 -0.11333159106E+03 -0.28411138300E+02 -0.53827015225E+02  0.15089414611E+03  0.78869851341E+02 0.  0.
          5    1    3    3  501    0  0.40503664212E+02  0.10134007281E+03 -0.34332825660E+03  0.36028702302E+03  0.47000000000E+01 0. -1.
        -11    1    4    4    0    0 -0.21883260958E+02 -0.55321832564E+01 -0.55558597731E+02  0.59968658010E+02  0.00000000000E+00 0.  1.
         12    1    4    4    0    0  0.69896096362E+02 -0.23041043506E+02 -0.24767654295E+03  0.25837961200E+03  0.00000000000E+00 0. -1.
         -5    1    5    5    0  502  0.24815091439E+02 -0.44355707747E+02 -0.83033365070E+02  0.97467160047E+02  0.47000000000E+01 0.  1.
         11    1    6    6    0    0 -0.28032981668E+02 -0.32723428974E+02 -0.49142958566E+02  0.65358253050E+02  0.00000000000E+00 0. -1.
        -12    1    6    6    0    0 -0.85298609387E+02  0.43122906745E+01 -0.46840566582E+01  0.85535893056E+02  0.00000000000E+00 0.  1.
</event>
<event>
12    1  0.8451514E-002  0.2060288E+03  0.7818608E-02  0.1145034E+00
         21   -1    0    0  503  502  0.00000000000E+00  0.00000000000E+00  0.34814554547E+03  0.34814554547E+03  0.00000000000E+00 0. -1.
         21   -1    0    0  501  503 -0.00000000000E+00 -0.00000000000E+00 -0.16646317558E+03  0.16646317558E+03  0.00000000000E+00 0.  1.
          6    2    1    2  501    0 -0.84715271568E+02 -0.70140934806E+02 -0.43697757016E+02  0.20924980815E+03  0.17256755277E+03 0.  0.
         24    2    3    3    0    0 -0.82347400583E+01 -0.36164379824E+02 -0.78587891732E+02  0.11845834661E+03  0.80502483452E+02 0.  0.
         -6    2    1    2    0  502  0.84715271568E+02  0.70140934806E+02  0.22538012691E+03  0.30535891290E+03  0.17421663556E+03 0.  0.
        -24    2    5    5    0    0  0.36637462432E+02  0.49545207039E+02  0.35655605692E+02  0.10850073124E+03  0.81878295466E+02 0.  0.
          5    1    3    3  501    0 -0.76480531510E+02 -0.33976554982E+02  0.34890134716E+02  0.90791461542E+02  0.47000000000E+01 0. -1.
        -11    1    4    4    0    0 -0.19131124956E+02  0.17694437427E+02 -0.50311402825E+02  0.56659776846E+02  0.00000000000E+00 0.  1.
         12    1    4    4    0    0  0.10896384898E+02 -0.53858817251E+02 -0.28276488907E+02  0.61798569760E+02  0.00000000000E+00 0. -1.
         -5    1    5    5    0  502  0.48077809136E+02  0.20595727766E+02  0.18972452122E+03  0.19685818166E+03  0.47000000000E+01 0.  1.
         11    1    6    6    0    0  0.99746757486E+01  0.25404190219E+00  0.49729096674E+02  0.50720230181E+02  0.00000000000E+00 0. -1.
        -12    1    6    6    0    0  0.26662786684E+02  0.49291165137E+02 -0.14073490982E+02  0.57780501060E+02  0.00000000000E+00 0.  1.
</event>
<event>
12    1  0.8451514E-002  0.1956003E+03  0.7818608E-02  0.1153825E+00
         21   -1    0    0  501  502  0.00000000000E+00  0.00000000000E+00  0.15763054259E+02  0.15763054259E+02  0.00000000000E+00 0.  1.
         21   -1    0    0  502  503 -0.00000000000E+00 -0.00000000000E+00 -0.32756532271E+04  0.32756532271E+04  0.00000000000E+00 0.  1.
         -6    2    1    2    0  503 -0.53104691671E+01  0.90418953641E+02 -0.24809678078E+04  0.24886664576E+04  0.17336575641E+03 0.  0.
        -24    2    3    3    0    0 -0.26314988173E+02  0.17710347286E+02 -0.58880989081E+03  0.59498976816E+03  0.79433001256E+02 0.  0.
          6    2    1    2  501    0  0.53104691671E+01 -0.90418953641E+02 -0.77892236501E+03  0.80274982375E+03  0.17170742719E+03 0.  0.
         24    2    5    5    0    0  0.59324992654E+02 -0.41037047107E+02 -0.31218945902E+03  0.33029047420E+03  0.80162616192E+02 0.  0.
          5    1    5    5  501    0 -0.54014523487E+02 -0.49381906534E+02 -0.46673290599E+03  0.47245934955E+03  0.47000000000E+01 0. -1.
        -11    1    6    6    0    0  0.18785441424E+02 -0.19092557497E+02 -0.17449119219E+02  0.31967019298E+02  0.00000000000E+00 0.  1.
         12    1    6    6    0    0  0.40539551230E+02 -0.21944489610E+02 -0.29474033980E+03  0.29832345490E+03  0.00000000000E+00 0. -1.
         -5    1    3    3    0  503  0.21004519006E+02  0.72708606355E+02 -0.18921579170E+04  0.18936766895E+04  0.47000000000E+01 0.  1.
         11    1    4    4    0    0 -0.26295730944E+02 -0.26527727092E+02 -0.18281336469E+03  0.18659022503E+03  0.00000000000E+00 0. -1.
        -12    1    4    4    0    0 -0.19257228622E-01  0.44238074378E+02 -0.40599652613E+03  0.40839954312E+03  0.00000000000E+00 0.  1.
</event>
<event>
12    1  0.8451514E-002  0.2004504E+03  0.7818608E-02  0.1149424E+00
         21   -1    0    0  503  502  0.00000000000E+00  0.00000000000E+00  0.49525077311E+03  0.49525077311E+03  0.00000000000E+00 0. -1.
         21   -1    0    0  501  503 -0.00000000000E+00 -0.00000000000E+00 -0.14010113977E+03  0.14010113977E+03  0.00000000000E+00 0. -1.
          6    2    1    2  501    0 -0.44666021392E+02  0.92262611294E+02 -0.28662373277E+02  0.20248928938E+03  0.17225834598E+03 0.  0.
         24    2    3    3    0    0 -0.71975295204E+02  0.64169899047E+02  0.33546122503E+02  0.12882122394E+03  0.78557917107E+02 0.  0.
         -6    2    1    2    0  502  0.44666021392E+02 -0.92262611294E+02  0.38381200662E+03  0.43286262350E+03  0.17190390192E+03 0.  0.
        -24    2    5    5    0    0  0.90271757831E+02 -0.50540640100E+02  0.20401402994E+03  0.24267847986E+03  0.81041801634E+02 0.  0.
          5    1    3    3  501    0  0.27309273811E+02  0.28092712247E+02 -0.62208495780E+02  0.73668065433E+02  0.47000000000E+01 0. -1.
        -13    1    4    4    0    0  0.71096957078E+01  0.71707574144E+01 -0.16420322689E+02  0.19276787392E+02  0.00000000000E+00 0.  1.
         14    1    4    4    0    0 -0.79084990912E+02  0.56999141633E+02  0.49966445192E+02  0.10954443655E+03  0.00000000000E+00 0. -1.
         -5    1    5    5    0  502 -0.45605736438E+02 -0.41721971193E+02  0.17979797668E+03  0.19018414364E+03  0.47000000000E+01 0.  1.
         11    1    6    6    0    0  0.71291247328E+02 -0.72930080324E+02  0.16190153181E+03  0.19134613810E+03  0.00000000000E+00 0. -1.
        -12    1    6    6    0    0  0.18980510502E+02  0.22389440223E+02  0.42112498125E+02  0.51332341762E+02  0.00000000000E+00 0.  1.
</event>
<event>
12    1  0.8451514E-002  0.2246601E+03  0.7818608E-02  0.1130924E+00
         21   -1    0    0  503  502  0.00000000000E+00  0.00000000000E+00  0.48920876405E+02  0.48920876405E+02  0.00000000000E+00 0. -1.
         21   -1    0    0  501  503 -0.00000000000E+00 -0.00000000000E+00 -0.10676908532E+04  0.10676908532E+04  0.00000000000E+00 0. -1.
          6    2    1    2  501    0 -0.14053292921E+03  0.22901941908E+02 -0.63021246529E+03  0.66905896152E+03  0.17377611876E+03 0.  0.
         24    2    3    3    0    0 -0.14558962298E+03  0.28163823252E+02 -0.34556887295E+03  0.38428304574E+03  0.79158537338E+02 0.  0.
         -6    2    1    2    0  502  0.14053292921E+03 -0.22901941908E+02 -0.38855751153E+03  0.44755276811E+03  0.17044804880E+03 0.  0.
        -24    2    5    5    0    0  0.75360255016E+02  0.38100054784E+02 -0.30081515824E+03  0.32229490759E+03  0.79078858217E+02 0.  0.
          5    1    3    3  501    0  0.50566937755E+01 -0.52618813441E+01 -0.28464359234E+03  0.28477591578E+03  0.47000000000E+01 0. -1.
        -11    1    4    4    0    0 -0.14759006983E+02 -0.21617875334E+02 -0.35746586971E+02  0.44305522242E+02  0.00000000000E+00 0.  1.
         12    1    4    4    0    0 -0.13083061600E+03  0.49781698586E+02 -0.30982228597E+03  0.33997752350E+03  0.00000000000E+00 0. -1.
         -5    1    5    5    0  502  0.65172674193E+02 -0.61001996692E+02 -0.87742353288E+02  0.12525786052E+03  0.47000000000E+01 0.  1.
         11    1    6    6    0    0 -0.30424780310E+01  0.10153507772E+02 -0.44857301797E+00  0.10609034376E+02  0.00000000000E+00 0. -1.
        -12    1    6    6    0    0  0.78402733047E+02  0.27946547012E+02 -0.30036658523E+03  0.31168587321E+03  0.00000000000E+00 0.  1.
</event>
<event>
12    1  0.8451514E-002  0.2851923E+03  0.7818608E-02  0.1092916E+00
         21   -1    0    0  501  502  0.00000000000E+00  0.00000000000E+00  0.22435603015E+03  0.22435603015E+03  0.00000000000E+00 0.  1.
         21   -1    0    0  502  503 -0.00000000000E+00 -0.00000000000E+00 -0.38703202339E+03  0.38703202339E+03  0.00000000000E+00 0. -1.
         -6    2    1    2    0  503 -0.11592367969E+03 -0.19561886996E+03 -0.15867614647E+03  0.32616770484E+03  0.17176207506E+03 0.  0.
        -24    2    3    3    0    0  0.31452177644E+01 -0.10499047986E+03 -0.47586325899E+02  0.13974360322E+03  0.78936195577E+02 0.  0.
          6    2    1    2  501    0  0.11592367969E+03  0.19561886996E+03 -0.39998467707E+01  0.28522034869E+03  0.17213252667E+03 0.  0.
         24    2    5    5    0    0  0.12798805402E+03  0.86131349593E+02  0.11396325607E+02  0.17390009731E+03  0.79446939863E+02 0.  0.
          5    1    5    5  501    0 -0.12064374329E+02  0.10948752037E+03 -0.15396172377E+02  0.11132025138E+03  0.47000000000E+01 0. -1.
        -11    1    6    6    0    0  0.38329757103E+01  0.34177277207E+02 -0.13651570720E+02  0.37001937289E+02  0.00000000000E+00 0.  1.
         12    1    6    6    0    0  0.12415507831E+03  0.51954072386E+02  0.25047896326E+02  0.13689816002E+03  0.00000000000E+00 0. -1.
         -5    1    3    3    0  503 -0.11906889745E+03 -0.90628390097E+02 -0.11108982057E+03  0.18642410162E+03  0.47000000000E+01 0.  1.
         13    1    4    4    0    0 -0.30756253500E+02 -0.13412034528E+02 -0.15450142650E+02  0.36939635995E+02  0.00000000000E+00 0. -1.
        -14    1    4    4    0    0  0.33901471264E+02 -0.91578445335E+02 -0.32136183249E+02  0.10280396723E+03  0.00000000000E+00 0.  1.
</event>
<event>
12    1  0.8451514E-002  0.2261177E+03  0.7818608E-02  0.1129863E+00
         21   -1    0    0  501  502  0.00000000000E+00  0.00000000000E+00  0.36927799786E+02  0.36927799786E+02  0.00000000000E+00 0.  1.
         21   -1    0    0  502  503 -0.00000000000E+00 -0.00000000000E+00 -0.14389065133E+04  0.14389065133E+04  0.00000000000E+00 0.  1.
         -6    2    1    2    0  503  0.10381259785E+03 -0.10349919076E+03 -0.86735029307E+03  0.89634020030E+03  0.17216296298E+03 0.  0.
        -24    2    3    3    0    0  0.25999215878E+02 -0.33030312311E+02 -0.63396305323E+03  0.64038614395E+03  0.80114291718E+02 0.  0.
          6    2    1    2  501    0 -0.10381259785E+03  0.10349919076E+03 -0.53462842044E+03  0.57949411278E+03  0.16880977710E+03 0.  0.
         24    2    5    5    0    0 -0.16440115041E+02  0.68571791377E+02 -0.15561071347E+03  0.18894272541E+03  0.80698769409E+02 0.  0.
          5    1    5    5  501    0 -0.87372482812E+02  0.34927399386E+02 -0.37901770697E+03  0.39055138737E+03  0.47000000000E+01 0. -1.
        -13    1    6    6    0    0 -0.10169353846E+02  0.31926919649E+02 -0.14701407444E+03  0.15078422344E+03  0.00000000000E+00 0.  1.
         14    1    6    6    0    0 -0.62707611948E+01  0.36644871728E+02 -0.85966390314E+01  0.38158501970E+02  0.00000000000E+00 0. -1.
         -5    1    3    3    0  503  0.77813381974E+02 -0.70468878452E+02 -0.23338723984E+03  0.25595405635E+03  0.47000000000E+01 0.  1.
         11    1    4    4    0    0  0.21343827157E+02  0.11507588883E+02 -0.60516542310E+02  0.65193829868E+02  0.00000000000E+00 0. -1.
        -12    1    4    4    0    0  0.46553887214E+01 -0.44537901194E+02 -0.57344651092E+03  0.57519231408E+03  0.00000000000E+00 0.  1.
</event>
<event>
12    1  0.8451514E-002  0.2036959E+03  0.7818608E-02  0.1147277E+00
         21   -1    0    0  503  502  0.00000000000E+00  0.00000000000E+00  0.25619183426E+03  0.25619183426E+03  0.00000000000E+00 0.  1.
         21   -1    0    0  501  503 -0.00000000000E+00 -0.00000000000E+00 -0.15979576815E+03  0.15979576815E+03  0.00000000000E+00 0.  1.
          6    2    1    2  501    0  0.25403687021E+02 -0.99014282530E+02  0.55250839827E+02  0.20817769970E+03  0.17273136337E+03 0.  0.
         24    2    3    3    0    0  0.38912395074E+02 -0.12899104172E+03  0.16297415161E+02  0.15698638619E+03  0.78906630741E+02 0.  0.
         -6    2    1    2    0  502 -0.25403687021E+02  0.99014282530E+02  0.41145226285E+02  0.20780990271E+03  0.17618981401E+03 0.  0.
        -24    2    5    5    0    0 -0.71838757380E+02  0.25244956068E+02  0.55047974641E+02  0.11941586616E+03  0.73700439008E+02 0.  0.
          5    1    3    3  501    0 -0.13508708052E+02  0.29976759191E+02  0.38953424666E+02  0.51191313502E+02  0.47000000000E+01 0. -1.
        -11    1    4    4    0    0  0.33377626939E+02 -0.51090671705E+02  0.42772721120E+02  0.74524012153E+02  0.00000000000E+00 0.  1.
         12    1    4    4    0    0  0.55347681343E+01 -0.77900370016E+02 -0.26475305959E+02  0.82462374041E+02  0.00000000000E+00 0. -1.
         -5    1    5    5    0  502  0.46435070358E+02  0.73769326462E+02 -0.13902748356E+02  0.88394036551E+02  0.47000000000E+01 0.  1.
         13    1    6    6    0    0 -0.62113438949E+02  0.26187136659E+02  0.72760952809E+02  0.99186701115E+02  0.00000000000E+00 0. -1.
        -14    1    6    6    0    0 -0.97253184311E+01 -0.94218059101E+00 -0.17712978168E+02  0.20229165045E+02  0.00000000000E+00 0.  1.
</event>
<event>
12    1  0.8451514E-002  0.2195124E+03  0.7818608E-02  0.1134749E+00
         21   -1    0    0  501  502  0.00000000000E+00  0.00000000000E+00  0.13978562520E+03  0.13978562520E+03  0.00000000000E+00 0.  1.
         21   -1    0    0  502  503 -0.00000000000E+00 -0.00000000000E+00 -0.51064909958E+03  0.51064909958E+03  0.00000000000E+00 0.  1.
         -6    2    1    2    0  503 -0.10264724501E+03 -0.93073451612E+02 -0.37389181496E+03  0.43356752486E+03  0.17025447134E+03 0.  0.
        -24    2    3    3    0    0 -0.12771534488E+03 -0.10530165975E+03 -0.35414973608E+03  0.39907436055E+03  0.80241266323E+02 0.  0.
          6    2    1    2  501    0  0.10264724501E+03  0.93073451612E+02  0.30283405892E+01  0.21686719992E+03  0.16680253970E+03 0.  0.
         24    2    5    5    0    0  0.27846942474E+02  0.59233242917E+02 -0.53688754055E+02  0.11697143520E+03  0.80720536852E+02 0.  0.
          5    1    5    5  501    0  0.74800302535E+02  0.33840208696E+02  0.56717094644E+02  0.99895764718E+02  0.47000000000E+01 0. -1.
        -11    1    6    6    0    0  0.47823923548E+02  0.52412722954E+02 -0.62059131239E+02  0.94263232287E+02  0.00000000000E+00 0.  1.
         12    1    6    6    0    0 -0.19976981075E+02  0.68205199626E+01  0.83703771844E+01  0.22708202915E+02  0.00000000000E+00 0. -1.
         -5    1    3    3    0  503  0.25068099868E+02  0.12228208136E+02 -0.19742078880E+02  0.34493164304E+02  0.47000000000E+01 0.  1.
         13    1    4    4    0    0  0.93367874329E+01 -0.19123034109E+02 -0.54093433735E+02  0.58128870679E+02  0.00000000000E+00 0. -1.
        -14    1    4    4    0    0 -0.13705213231E+03 -0.86178625639E+02 -0.30005630235E+03  0.34094548987E+03  0.00000000000E+00 0.  1.
</event>
<event>
12    1  0.8451514E-002  0.1861821E+03  0.7818608E-02  0.1162448E+00
         21   -1    0    0  501  502  0.00000000000E+00  0.00000000000E+00  0.12340289859E+03  0.12340289859E+03  0.00000000000E+00 0. -1.
         21   -1    0    0  502  503 -0.00000000000E+00 -0.00000000000E+00 -0.43224637719E+03  0.43224637719E+03  0.00000000000E+00 0.  1.
         -6    2    1    2    0  503 -0.23833016135E+02  0.67822825474E+02 -0.31997951209E+03  0.36913438763E+03  0.16942656125E+03 0.  0.
        -24    2    3    3    0    0  0.17096192188E+01  0.10774975180E+03 -0.24728849237E+03  0.28222834633E+03  0.82995838459E+02 0.  0.
          6    2    1    2  501    0  0.23833016135E+02 -0.67822825474E+02  0.11136033498E+02  0.18651488815E+03  0.17174354120E+03 0.  0.
         24    2    5    5    0    0  0.80287571629E+02 -0.61386738495E+02  0.53748695428E+01  0.12921025429E+03  0.80324185457E+02 0.  0.
          5    1    5    5  501    0 -0.56454555494E+02 -0.64360869786E+01  0.57611639547E+01  0.57304633859E+02  0.47000000000E+01 0. -1.
        -13    1    6    6    0    0 -0.79162624569E+01 -0.16705103996E+02 -0.19894000231E+02  0.27156932006E+02  0.00000000000E+00 0.  1.
         14    1    6    6    0    0  0.88203834086E+02 -0.44681634500E+02  0.25268869774E+02  0.10205332228E+03  0.00000000000E+00 0. -1.
         -5    1    3    3    0  503 -0.25542635354E+02 -0.39926926325E+02 -0.72691019719E+02  0.86906041299E+02  0.47000000000E+01 0.  1.
         13    1    4    4    0    0  0.13525660236E+02  0.33703583905E+01 -0.42646436899E+00  0.13945776147E+02  0.00000000000E+00 0. -1.
        -14    1    4    4    0    0 -0.11816041017E+02  0.10437939341E+03 -0.24686202801E+03  0.26828257018E+03  0.00000000000E+00 0.  1.
</event>
<event>
12    1  0.8451514E-002  0.2328494E+03  0.7818608E-02  0.1124670E+00
         21   -1    0    0  503  502  0.00000000000E+00  0.00000000000E+00  0.87528195581E+02  0.87528195581E+02  0.00000000000E+00 0.  1.
         21   -1    0    0  501  503 -0.00000000000E+00 -0.00000000000E+00 -0.62031748398E+03  0.62031748398E+03  0.00000000000E+00 0. -1.
          6    2    1    2  501    0 -0.11797232559E+03  0.10492173039E+03 -0.28187261267E+03  0.36561048989E+03  0.17115145757E+03 0.  0.
         24    2    3    3    0    0 -0.46389184033E+02  0.33723622466E+02 -0.21036133285E+03  0.24179906122E+03  0.10452586542E+03 0.  0.
         -6    2    1    2    0  502  0.11797232559E+03 -0.10492173039E+03 -0.25091667573E+03  0.34223518968E+03  0.17099622153E+03 0.  0.
        -24    2    5    5    0    0  0.45313769140E+01 -0.79807746886E+02 -0.15867219878E+03  0.19380778475E+03  0.77425970617E+02 0.  0.
          5    1    3    3  501    0 -0.71583141555E+02  0.71198107927E+02 -0.71511279821E+02  0.12381142867E+03  0.47000000000E+01 0. -1.
        -11    1    4    4    0    0  0.12240260657E+02  0.54395183116E+02 -0.11739232289E+03  0.12996006079E+03  0.00000000000E+00 0.  1.
         12    1    4    4    0    0 -0.58629444689E+02 -0.20671560650E+02 -0.92969009960E+02  0.11183900043E+03  0.00000000000E+00 0. -1.
         -5    1    5    5    0  502  0.11344094867E+03 -0.25113983507E+02 -0.92244476958E+02  0.14842740493E+03  0.47000000000E+01 0.  1.
         13    1    6    6    0    0  0.44205621115E+01  0.93300088235E+01  0.15687920854E+01  0.10442774662E+02  0.00000000000E+00 0. -1.
        -14    1    6    6    0    0  0.11081480250E+00 -0.89137755709E+02 -0.16024099086E+03  0.18336501009E+03  0.00000000000E+00 0.  1.
</event>
<event>
12    1  0.8451514E-002  0.2080233E+03  0.7818608E-02  0.1144433E+00
         21   -1    0    0  501  502  0.00000000000E+00  0.00000000000E+00  0.99613567543E+02  0.99613567543E+02  0.00000000000E+00 0. -1.
         21   -1    0    0  502  503 -0.00000000000E+00 -0.00000000000E+00 -0.57107668005E+03  0.57107668005E+03  0.00000000000E+00 0. -1.
         -6    2    1    2    0  503  0.17519427153E+02 -0.11566864321E+03 -0.40477820546E+03  0.45223985019E+03  0.16428426928E+03 0.  0.
        -24    2    3    3    0    0 -0.45331715426E+02 -0.69527871744E+02 -0.17713999451E+03  0.21157310550E+03  0.80594738928E+02 0.  0.
          6    2    1    2  501    0 -0.17519427153E+02  0.11566864321E+03 -0.66684907041E+02  0.21845039740E+03  0.17201027280E+03 0.  0.
         24    2    5    5    0    0 -0.26194530701E+02  0.22460887647E+02 -0.86649173397E+02  0.12261926963E+03  0.79603775804E+02 0.  0.
          5    1    5    5  501    0  0.86751035474E+01  0.93207755559E+02  0.19964266356E+02  0.95831127767E+02  0.47000000000E+01 0. -1.
        -13    1    6    6    0    0  0.27845615653E+02  0.54678920825E+01 -0.41020819266E+02  0.49879692944E+02  0.00000000000E+00 0.  1.
         14    1    6    6    0    0 -0.54040146353E+02  0.16992995564E+02 -0.45628354131E+02  0.72739576689E+02  0.00000000000E+00 0. -1.
         -5    1    3    3    0  503  0.62851142579E+02 -0.46140771462E+02 -0.22763821095E+03  0.24066674469E+03  0.47000000000E+01 0.  1.
         13    1    4    4    0    0 -0.20671628024E+02 -0.75224159159E+02 -0.16697174190E+03  0.18429745771E+03  0.00000000000E+00 0. -1.
        -14    1    4    4    0    0 -0.24660087402E+02  0.56962874153E+01 -0.10168252609E+02  0.27275647786E+02  0.00000000000E+00 0.  1.
</event>
<event>
12    1  0.8451514E-002  0.2989993E+03  0.7818608E-02  0.1085781E+00
         21   -1    0    0  503  502  0.00000000000E+00  0.00000000000E+00  0.37489233436E+03  0.37489233436E+03  0.00000000000E+00 0. -1.
         21   -1    0    0  501  503 -0.00000000000E+00 -0.00000000000E+00 -0.61170083651E+03  0.61170083651E+03  0.00000000000E+00 0.  1.
          6    2    1    2  501    0 -0.15733423957E+03 -0.18692382707E+03 -0.50388130200E+03  0.58591547279E+03  0.17235427086E+03 0.  0.
         24    2    3    3    0    0 -0.16110007831E+03 -0.88724073305E+02 -0.34492574059E+03  0.39897608774E+03  0.79893401796E+02 0.  0.
         -6    2    1    2    0  502  0.15733423957E+03  0.18692382707E+03  0.26707279985E+03  0.40067769809E+03  0.17181431039E+03 0.  0.
        -24    2    5    5    0    0  0.99424893999E+01  0.91710550678E+02  0.13273387368E+03  0.17963712917E+03  0.78367970211E+02 0.  0.
          5    1    3    3  501    0  0.37658387350E+01 -0.98199753766E+02 -0.15895556141E+03  0.18693938505E+03  0.47000000000E+01 0. -1.
        -13    1    4    4    0    0 -0.73633983877E+02 -0.74740637105E+02 -0.23818681586E+03  0.26027117717E+03  0.00000000000E+00 0.  1.
         14    1    4    4    0    0 -0.87466094429E+02 -0.13983436200E+02 -0.10673892473E+03  0.13870491056E+03  0.00000000000E+00 0. -1.
         -5    1    5    5    0  502  0.14739175017E+03  0.95213276392E+02  0.13433892617E+03  0.22104056891E+03  0.47000000000E+01 0.  1.
         13    1    6    6    0    0  0.23857380724E+02  0.91159235394E+02  0.75534287323E+02  0.12076675608E+03  0.00000000000E+00 0. -1.
        -14    1    6    6    0    0 -0.13914891324E+02  0.55131528470E+00  0.57199586354E+02  0.58870373093E+02  0.00000000000E+00 0.  1.
</event>
<event>
12    1  0.8451514E-002  0.2097456E+03  0.7818608E-02  0.1141858E+00
         21   -1    0    0  501  502  0.00000000000E+00  0.00000000000E+00  0.14624875153E+04  0.14624875153E+04  0.00000000000E+00 0.  1.
         21   -1    0    0  502  503 -0.00000000000E+00 -0.00000000000E+00 -0.16200481303E+03  0.16200481303E+03  0.00000000000E+00 0.  1.
         -6    2    1    2    0  503 -0.88362647523E+02 -0.80184743518E+02 -0.83040184940E+02  0.22516077579E+03  0.17194229284E+03 0.  0.
        -24    2    3    3    0    0 -0.24069505873E+02  0.22439884199E+02 -0.52605439274E+02  0.10020563975E+03  0.78682580547E+02 0.  0.
          6    2    1    2  501    0  0.88362647523E+02  0.80184743518E+02  0.13835228872E+04  0.13993315526E+04  0.17249830125E+03 0.  0.
         24    2    5    5    0    0  0.76537231597E+01  0.23496806145E+02  0.98418035998E+03  0.98796310848E+03  0.82761363992E+02 0.  0.
          5    1    5    5  501    0  0.80708924363E+02  0.56687937373E+02  0.39934252725E+03  0.41136844408E+03  0.47000000000E+01 0. -1.
        -13    1    6    6    0    0 -0.73757645663E+01  0.50824303904E+02  0.46050496145E+03  0.46335982917E+03  0.00000000000E+00 0.  1.
         14    1    6    6    0    0  0.15029487726E+02 -0.27327497759E+02  0.52367539853E+03  0.52460327930E+03  0.00000000000E+00 0. -1.
         -5    1    3    3    0  503 -0.64293141650E+02 -0.10262462772E+03 -0.30434745665E+02  0.12495513603E+03  0.47000000000E+01 0.  1.
         11    1    4    4    0    0  0.89079068161E+01  0.79942340100E+01  0.17613279719E+02  0.21295215512E+02  0.00000000000E+00 0. -1.
        -12    1    4    4    0    0 -0.32977412689E+02  0.14445650189E+02 -0.70218718993E+02  0.78910424242E+02  0.00000000000E+00 0.  1.
</event>
<event>
12    1  0.8451514E-002  0.1873076E+03  0.7818608E-02  0.1160985E+00
         21   -1    0    0  503  502  0.00000000000E+00  0.00000000000E+00  0.13170419131E+03  0.13170419131E+03  0.00000000000E+00 0.  1.
         21   -1    0    0  501  503 -0.00000000000E+00 -0.00000000000E+00 -0.29201814967E+03  0.29201814967E+03  0.00000000000E+00 0.  1.
          6    2    1    2  501    0  0.71711498544E+02  0.11862247255E+02 -0.14353143283E+03  0.23597757384E+03  0.17262934632E+03 0.  0.
         24    2    3    3    0    0  0.52142422689E+02  0.63107331645E+02 -0.44864549385E+02  0.12298973692E+03  0.80076713496E+02 0.  0.
         -6    2    1    2    0  502 -0.71711498544E+02 -0.11862247255E+02 -0.16782525534E+02  0.18774476715E+03  0.17228810898E+03 0.  0.
        -24    2    5    5    0    0  0.36170983708E+01 -0.58438050271E+02 -0.12786072904E+02  0.98965464532E+02  0.78756526013E+02 0.  0.
          5    1    3    3  501    0  0.19569075855E+02 -0.51245084389E+02 -0.98666883441E+02  0.11298783692E+03  0.47000000000E+01 0. -1.
        -11    1    4    4    0    0  0.42942932280E+02  0.50869836012E+01  0.79804143762E+01  0.43973399329E+02  0.00000000000E+00 0.  1.
         12    1    4    4    0    0  0.91994904087E+01  0.58020348043E+02 -0.52844963761E+02  0.79016337588E+02  0.00000000000E+00 0. -1.
         -5    1    5    5    0  502 -0.75328596915E+02  0.46575803015E+02 -0.39964526303E+01  0.88779302618E+02  0.47000000000E+01 0.  1.
         11    1    6    6    0    0 -0.88421429229E+01 -0.75793014689E+02 -0.13941148739E+02  0.77570098590E+02  0.00000000000E+00 0. -1.
        -12    1    6    6    0    0  0.12459241294E+02  0.17354964419E+02  0.11550758352E+01  0.21395365942E+02  0.00000000000E+00 0.  1.
</event>
<event>
12    1  0.8451514E-002  0.1799048E+03  0.7818608E-02  0.1168615E+00
         21   -1    0    0  501  502  0.00000000000E+00  0.00000000000E+00  0.20306612613E+02  0.20306612613E+02  0.00000000000E+00 0.  1.
         21   -1    0    0  502  503 -0.00000000000E+00 -0.00000000000E+00 -0.19238281152E+04  0.19238281152E+04  0.00000000000E+00 0.  1.
         -6    2    1    2    0  503  0.36565811899E+01  0.53866197544E+02 -0.13762933055E+04  0.13880017972E+04  0.17161232005E+03 0.  0.
        -24    2    3    3    0    0 -0.24229784370E+02  0.13180004120E+01 -0.11712952159E+04  0.11744947267E+04  0.83165862508E+02 0.  0.
          6    2    1    2  501    0 -0.36565811899E+01 -0.53866197544E+02 -0.52722819703E+03  0.55613293057E+03  0.16852099840E+03 0.  0.
         24    2    5    5    0    0  0.18674178309E+02  0.27213094792E+02 -0.32034022027E+03  0.33275603071E+03  0.83782108993E+02 0.  0.
          5    1    5    5  501    0 -0.22330759499E+02 -0.81079292336E+02 -0.20688797676E+03  0.22337689987E+03  0.47000000000E+01 0. -1.
        -11    1    6    6    0    0  0.19061064711E+02 -0.17314266443E+02 -0.32369801443E+02  0.41363172700E+02  0.00000000000E+00 0.  1.
         12    1    6    6    0    0 -0.38688640153E+00  0.44527361235E+02 -0.28797041882E+03  0.29139285801E+03  0.00000000000E+00 0. -1.
         -5    1    3    3    0  503  0.27886365560E+02  0.52548197132E+02 -0.20499808966E+03  0.21350707054E+03  0.47000000000E+01 0.  1.
         11    1    4    4    0    0 -0.18456230019E+02  0.17980019640E+02 -0.10719006811E+03  0.11024347706E+03  0.00000000000E+00 0. -1.
        -12    1    4    4    0    0 -0.57735543516E+01 -0.16662019228E+02 -0.10641051477E+04  0.10642512496E+04  0.00000000000E+00 0.  1.
</event>
<event>
12    1  0.8451514E-002  0.1889017E+03  0.7818608E-02  0.1159714E+00
         21   -1    0    0  503  502  0.00000000000E+00  0.00000000000E+00  0.27748274232E+03  0.27748274232E+03  0.00000000000E+00 0. -1.
         21   -1    0    0  501  503 -0.00000000000E+00 -0.00000000000E+00 -0.16281419190E+03  0.16281419190E+03  0.00000000000E+00 0. -1.
          6    2    1    2  501    0  0.74358852419E+02 -0.14030573273E+02 -0.44853043913E+02  0.19305014320E+03  0.17184430838E+03 0.  0.
         24    2    3    3    0    0  0.23729977215E+02 -0.17544166098E+02  0.40248220961E+02  0.93853653229E+02  0.79483830753E+02 0.  0.
         -6    2    1    2    0  502 -0.74358852419E+02  0.14030573273E+02  0.15952159433E+03  0.24724679103E+03  0.17308304567E+03 0.  0.
        -24    2    5    5    0    0 -0.11555556409E+03 -0.49741834342E+01  0.13534630023E+03  0.19562427002E+03  0.81070359208E+02 0.  0.
          5    1    3    3  501    0  0.50628875204E+02  0.35135928246E+01 -0.85101264874E+02  0.99196489969E+02  0.47000000000E+01 0. -1.
        -13    1    4    4    0    0  0.29390385448E+02  0.15399194943E+02 -0.89576699561E+01  0.34368151139E+02  0.00000000000E+00 0.  1.
         14    1    4    4    0    0 -0.56604082330E+01 -0.32943361040E+02  0.49205890917E+02  0.59485502090E+02  0.00000000000E+00 0. -1.
         -5    1    5    5    0  502  0.41196711674E+02  0.19004756707E+02  0.24175294101E+02  0.51622521007E+02  0.47000000000E+01 0.  1.
         13    1    6    6    0    0 -0.64654588969E+02  0.27677021122E+02  0.10886652060E+03  0.12960768759E+03  0.00000000000E+00 0. -1.
        -14    1    6    6    0    0 -0.50900975124E+02 -0.32651204556E+02  0.26479779627E+02  0.66016582437E+02  0.00000000000E+00 0.  1.
</event>
<event>
12    1  0.8451514E-002  0.1913143E+03  0.7818608E-02  0.1158054E+00
         21   -1    0    0  501  502  0.00000000000E+00  0.00000000000E+00  0.29591145360E+02  0.29591145360E+02  0.00000000000E+00 0. -1.
         21   -1    0    0  502  503 -0.00000000000E+00 -0.00000000000E+00 -0.12150882369E+04  0.12150882369E+04  0.00000000000E+00 0. -1.
         -6    2    1    2    0  503  0.78412328060E+02  0.33084844572E+02 -0.57856797391E+03  0.60831146496E+03  0.16750772471E+03 0.  0.
        -24    2    3    3    0    0  0.66944515063E+01 -0.35000410394E+02 -0.30997763733E+03  0.32205648306E+03  0.79777178602E+02 0.  0.
          6    2    1    2  501    0 -0.78412328060E+02 -0.33084844572E+02 -0.60692911758E+03  0.63636791725E+03  0.17134197444E+03 0.  0.
         24    2    5    5    0    0 -0.90744817013E+02  0.26214155666E+02 -0.47986065808E+03  0.49552422689E+03  0.79725808198E+02 0.  0.
          5    1    5    5  501    0  0.12332488953E+02 -0.59299000239E+02 -0.12706845950E+03  0.14084369036E+03  0.47000000000E+01 0. -1.
        -13    1    6    6    0    0 -0.72503562418E+02 -0.16712750945E+02 -0.34156543245E+03  0.34957549578E+03  0.00000000000E+00 0.  1.
         14    1    6    6    0    0 -0.18241254595E+02  0.42926906611E+02 -0.13829522563E+03  0.14594873111E+03  0.00000000000E+00 0. -1.
         -5    1    3    3    0  503  0.71717876554E+02  0.68085254966E+02 -0.26859033658E+03  0.28625498191E+03  0.47000000000E+01 0.  1.
         13    1    4    4    0    0 -0.15877949127E+02  0.21044345548E+02 -0.11222180399E+03  0.11527665436E+03  0.00000000000E+00 0. -1.
        -14    1    4    4    0    0  0.22572400634E+02 -0.56044755942E+02 -0.19775583334E+03  0.20677982870E+03  0.00000000000E+00 0.  1.
</event>
<event>
12    1  0.8451514E-002  0.1827415E+03  0.7818608E-02  0.1165684E+00
         21   -1    0    0  503  502  0.00000000000E+00  0.00000000000E+00  0.36081641266E+03  0.36081641266E+03  0.00000000000E+00 0. -1.
         21   -1    0    0  501  503 -0.00000000000E+00 -0.00000000000E+00 -0.15177985113E+03  0.15177985113E+03  0.00000000000E+00 0.  1.
          6    2    1    2  501    0  0.55823690301E+02  0.20941070198E+02 -0.56659585094E+02  0.19132371645E+03  0.17274154993E+03 0.  0.
         24    2    3    3    0    0  0.67852513106E+02  0.40584189180E+02 -0.94599795030E+02  0.14669083360E+03  0.79486096245E+02 0.  0.
         -6    2    1    2    0  502 -0.55823690301E+02 -0.20941070198E+02  0.26569614662E+03  0.32127254734E+03  0.17048986634E+03 0.  0.
        -24    2    5    5    0    0  0.11792700064E+02  0.11838733896E+02  0.21876555174E+03  0.23255353845E+03  0.77094475957E+02 0.  0.
          5    1    3    3  501    0 -0.12028822805E+02 -0.19643118983E+02  0.37940209936E+02  0.44632882849E+02  0.47000000000E+01 0. -1.
        -11    1    4    4    0    0 -0.44512518593E+01 -0.17043504757E+02 -0.26659420124E+02  0.31953393856E+02  0.00000000000E+00 0.  1.
         12    1    4    4    0    0  0.72303764965E+02  0.57627693938E+02 -0.67940374905E+02  0.11473743974E+03  0.00000000000E+00 0. -1.
         -5    1    5    5    0  502 -0.67616390364E+02 -0.32779804094E+02  0.46930594884E+02  0.88719008891E+02  0.47000000000E+01 0.  1.
         11    1    6    6    0    0  0.22383851560E+02 -0.28688371888E+02  0.87431304480E+02  0.94701069136E+02  0.00000000000E+00 0. -1.
        -12    1    6    6    0    0 -0.10591151496E+02  0.40527105784E+02  0.13133424725E+03  0.13785246931E+03  0.00000000000E+00 0.  1.
</event>
<event>
12    1  0.8451514E-002  0.1920458E+03  0.7818608E-02  0.1156708E+00
         21   -1    0    0  503  502  0.00000000000E+00  0.00000000000E+00  0.20116311714E+03  0.20116311714E+03  0.00000000000E+00 0.  1.
         21   -1    0    0  501  503 -0.00000000000E+00 -0.00000000000E+00 -0.25595618104E+03  0.25595618104E+03  0.00000000000E+00 0.  1.
          6    2    1    2  501    0 -0.64791676244E+02 -0.56769962818E+02 -0.14939964679E+03  0.24303524909E+03  0.17124569439E+03 0.  0.
         24    2    3    3    0    0 -0.41930438607E+02  0.34383659150E+02 -0.74575744494E+02  0.12281742454E+03  0.81130637892E+02 0.  0.
         -6    2    1    2    0  502  0.64791676244E+02  0.56769962818E+02  0.94606582887E+02  0.21408404910E+03  0.17164144186E+03 0.  0.
        -24    2    5    5    0    0  0.40380770216E+02  0.94052915470E+02  0.26102579319E+02  0.13222563844E+03  0.79534378111E+02 0.  0.
          5    1    3    3  501    0 -0.22861237637E+02 -0.91153621968E+02 -0.74823902297E+02  0.12021782455E+03  0.47000000000E+01 0. -1.
        -13    1    4    4    0    0 -0.46446670090E+02 -0.12343419183E+02 -0.23675767384E+02  0.53574202008E+02  0.00000000000E+00 0.  1.
         14    1    4    4    0    0  0.45162314827E+01  0.46727078334E+02 -0.50899977110E+02  0.69243222529E+02  0.00000000000E+00 0. -1.
         -5    1    5    5    0  502  0.24410906028E+02 -0.37282952652E+02  0.68504003568E+02  0.81858410664E+02  0.47000000000E+01 0.  1.
         13    1    6    6    0    0  0.13034817577E+01  0.87075374945E+02  0.30535681101E+02  0.92283518609E+02  0.00000000000E+00 0. -1.
        -14    1    6    6    0    0  0.39077288458E+02  0.69775405249E+01 -0.44331017820E+01  0.39942119829E+02  0.00000000000E+00 0.  1.
</event>
<event>
12    1  0.8451514E-002  0.1898530E+03  0.7818608E-02  0.1158721E+00
         21   -1    0    0  503  502  0.00000000000E+00  0.00000000000E+00  0.61283029050E+03  0.61283029050E+03  0.00000000000E+00 0. -1.
         21   -1    0    0  501  503 -0.00000000000E+00 -0.00000000000E+00 -0.62753527402E+02  0.62753527402E+02  0.00000000000E+00 0.  1.
          6    2    1    2  501    0  0.54376939232E+02 -0.55999146279E+02  0.18895428431E+03  0.26785797865E+03  0.17306478343E+03 0.  0.
         24    2    3    3    0    0  0.57414102750E+02  0.98569371476E-01  0.18746151210E+03  0.21146208845E+03  0.79233877977E+02 0.  0.
         -6    2    1    2    0  502 -0.54376939232E+02  0.55999146279E+02  0.36112247878E+03  0.40772583925E+03  0.17244755551E+03 0.  0.
        -24    2    5    5    0    0  0.16195243160E+02 -0.12575569718E+02  0.96340260224E+02  0.12521099385E+03  0.77304051555E+02 0.  0.
          5    1    3    3  501    0 -0.30371635187E+01 -0.56097715651E+02  0.14927722083E+01  0.56395890208E+02  0.47000000000E+01 0. -1.
        -13    1    4    4    0    0  0.21254524808E+02 -0.21647639110E+01  0.86625793653E+00  0.21382035226E+02  0.00000000000E+00 0.  1.
         14    1    4    4    0    0  0.36159577943E+02  0.22633332825E+01  0.18659525417E+03  0.19008005322E+03  0.00000000000E+00 0. -1.
         -5    1    5    5    0  502 -0.70572182392E+02  0.68574715998E+02  0.26478221856E+03  0.28251484539E+03  0.47000000000E+01 0.  1.
         13    1    6    6    0    0  0.19680859140E+02 -0.36828928630E+02  0.91014067042E+02  0.10013624019E+03  0.00000000000E+00 0. -1.
        -14    1    6    6    0    0 -0.34856159799E+01  0.24253358912E+02  0.53261931811E+01  0.25074753659E+02  0.00000000000E+00 0.  1.
</event>
<event>
12    1  0.8451514E-002  0.3048010E+03  0.7818608E-02  0.1082880E+00
         21   -1    0    0  503  502  0.00000000000E+00  0.00000000000E+00  0.55251203041E+03  0.55251203041E+03  0.00000000000E+00 0.  1.
         21   -1    0    0  501  503 -0.00000000000E+00 -0.00000000000E+00 -0.16881671689E+03  0.16881671689E+03  0.00000000000E+00 0. -1.
          6    2    1    2  501    0 -0.21895817402E+03 -0.12591050962E+03  0.21561432299E+03  0.37325564828E+03  0.17039396788E+03 0.  0.
         24    2    3    3    0    0 -0.16339693782E+03 -0.36639481575E+02  0.81091113395E+02  0.20244888221E+03  0.79804575913E+02 0.  0.
         -6    2    1    2    0  502  0.21895817402E+03  0.12591050962E+03  0.16808099054E+03  0.34807309902E+03  0.17060927431E+03 0.  0.
        -24    2    5    5    0    0  0.15044785732E+03  0.12461193985E+03  0.18123485160E+03  0.27814124764E+03  0.79710657238E+02 0.  0.
          5    1    3    3  501    0 -0.55561236198E+02 -0.89271028045E+02  0.13452320959E+03  0.17080676607E+03  0.47000000000E+01 0. -1.
        -13    1    4    4    0    0 -0.13598067773E+03 -0.51841247664E+02  0.88382019127E+02  0.17026344581E+03  0.00000000000E+00 0.  1.
         14    1    4    4    0    0 -0.27416260090E+02  0.15201766089E+02 -0.72909057319E+01  0.32185436395E+02  0.00000000000E+00 0. -1.
         -5    1    5    5    0  502  0.68510316699E+02  0.12985697743E+01 -0.13153861062E+02  0.69931851388E+02  0.47000000000E+01 0.  1.
         13    1    6    6    0    0  0.32450922456E+02  0.53925086426E+01  0.24499414022E+01  0.32987023669E+02  0.00000000000E+00 0. -1.
        -14    1    6    6    0    0  0.11799693486E+03  0.11921943120E+03  0.17878491020E+03  0.24515422397E+03  0.00000000000E+00 0.  1.
</event>
<event>
12    1  0.8451514E-002  0.1754760E+03  0.7818608E-02  0.1172840E+00
         21   -1    0    0  503  502  0.00000000000E+00  0.00000000000E+00  0.11715935327E+03  0.11715935327E+03  0.00000000000E+00 0.  1.
         21   -1    0    0  501  503 -0.00000000000E+00 -0.00000000000E+00 -0.63840263757E+03  0.63840263757E+03  0.00000000000E+00 0.  1.
          6    2    1    2  501    0 -0.31522213575E+02 -0.15699425009E+02 -0.55242466924E+03  0.57962474975E+03  0.17190611813E+03 0.  0.
         24    2    3    3    0    0 -0.65894103135E+02  0.14172926365E+02 -0.23395078309E+03  0.25787719292E+03  0.84998664997E+02 0.  0.
         -6    2    1    2    0  502  0.31522213575E+02  0.15699425009E+02  0.31181384936E+02  0.17593724108E+03  0.16953321839E+03 0.  0.
        -24    2    5    5    0    0 -0.11282378661E+02 -0.42934942234E+02 -0.10111264040E+02  0.92286807741E+02  0.80274005068E+02 0.  0.
          5    1    3    3  501    0  0.34371889560E+02 -0.29872351373E+02 -0.31847388615E+03  0.32174755683E+03  0.47000000000E+01 0. -1.
        -11    1    4    4    0    0 -0.23152967000E+02  0.76074231297E+01 -0.20358356369E+03  0.20503707024E+03  0.00000000000E+00 0.  1.
         12    1    4    4    0    0 -0.42741136135E+02  0.65655032351E+01 -0.30367219396E+02  0.52840122679E+02  0.00000000000E+00 0. -1.
         -5    1    5    5    0  502  0.42804592236E+02  0.58634367242E+02  0.41292648976E+02  0.83650433339E+02  0.47000000000E+01 0.  1.
         13    1    6    6    0    0  0.20586711091E+01  0.23447096650E+02 -0.67852510101E+01  0.24495797585E+02  0.00000000000E+00 0. -1.
        -14    1    6    6    0    0 -0.13341049770E+02 -0.66382038884E+02 -0.33260130302E+01  0.67791010156E+02  0.00000000000E+00 0.  1.
</event>
<event>
12    1  0.8451514E-002  0.1793640E+03  0.7818608E-02  0.1170865E+00
         21   -1    0    0  501  502  0.00000000000E+00  0.00000000000E+00  0.32597173696E+03  0.32597173696E+03  0.00000000000E+00 0. -1.
         21   -1    0    0  502  503 -0.00000000000E+00 -0.00000000000E+00 -0.12064810928E+03  0.12064810928E+03  0.00000000000E+00 0. -1.
         -6    2    1    2    0  503 -0.41390420034E+02 -0.33879642266E+02  0.20653850750E+03  0.26725174607E+03  0.16094826394E+03 0.  0.
        -24    2    3    3    0    0 -0.19640686622E+02 -0.21545658664E+02  0.18892734475E+02  0.77889119899E+02  0.69712320320E+02 0.  0.
          6    2    1    2  501    0  0.41390420034E+02  0.33879642266E+02 -0.12148798231E+01  0.17936810017E+03  0.17120292753E+03 0.  0.
         24    2    5    5    0    0  0.19143538109E+02  0.72891403764E+01 -0.66569348940E+02  0.10523797688E+03  0.78891995415E+02 0.  0.
          5    1    5    5  501    0  0.22246881925E+02  0.26590501890E+02  0.65354469117E+02  0.74130123295E+02  0.47000000000E+01 0. -1.
        -11    1    6    6    0    0 -0.94649987251E+01  0.64895251093E+01  0.14946467418E+02  0.18844018289E+02  0.00000000000E+00 0.  1.
         12    1    6    6    0    0  0.28608536834E+02  0.79961526708E+00 -0.81515816358E+02  0.86393958590E+02  0.00000000000E+00 0. -1.
         -5    1    3    3    0  503 -0.21749733412E+02 -0.12333983602E+02  0.18764577303E+03  0.18936262617E+03  0.47000000000E+01 0.  1.
         13    1    4    4    0    0 -0.42880384707E+01  0.91918728576E+01  0.37477959689E+02  0.38826218758E+02  0.00000000000E+00 0. -1.
        -14    1    4    4    0    0 -0.15352648152E+02 -0.30737531522E+02 -0.18585225214E+02  0.39062901141E+02  0.00000000000E+00 0.  1.
</event>
<event>
12    1  0.8451514E-002  0.3403699E+03  0.7818608E-02  0.1066728E+00
         21   -1    0    0  501  502  0.00000000000E+00  0.00000000000E+00  0.22470829102E+03  0.22470829102E+03  0.00000000000E+00 0.  1.
         21   -1    0    0  502  503 -0.00000000000E+00 -0.00000000000E+00 -0.71009821012E+03  0.71009821012E+03  0.00000000000E+00 0. -1.
         -6    2    1    2    0  503  0.26473196247E+03 -0.12657121563E+03 -0.48835084560E+03  0.59526314903E+03  0.17247719738E+03 0.  0.
        -24    2    3    3    0    0  0.26653789166E+03 -0.14954880794E+03 -0.45039110252E+03  0.55060597465E+03  0.83111373714E+02 0.  0.
          6    2    1    2  501    0 -0.26473196247E+03  0.12657121563E+03  0.29609265001E+01  0.33954335211E+03  0.17081462555E+03 0.  0.
         24    2    5    5    0    0 -0.28080417569E+03  0.13333751221E+03  0.68765271793E+01  0.32106307246E+03  0.80027074347E+02 0.  0.
          5    1    5    5  501    0  0.16072213221E+02 -0.67662965779E+01 -0.39156006791E+01  0.18480279649E+02  0.47000000000E+01 0. -1.
        -11    1    6    6    0    0 -0.11239633063E+03  0.92922836017E+02 -0.14528359765E+02  0.14655600237E+03  0.00000000000E+00 0.  1.
         12    1    6    6    0    0 -0.16840784506E+03  0.40414676192E+02  0.21404886944E+02  0.17450707010E+03  0.00000000000E+00 0. -1.
         -5    1    3    3    0  503 -0.18059291973E+01  0.22977592313E+02 -0.37959743078E+02  0.44657174377E+02  0.47000000000E+01 0.  1.
         13    1    4    4    0    0  0.76199737984E+02 -0.49581898748E+02 -0.20563084701E+03  0.22483062513E+03  0.00000000000E+00 0. -1.
        -14    1    4    4    0    0  0.19033815368E+03 -0.99966909196E+02 -0.24476025551E+03  0.32577534953E+03  0.00000000000E+00 0.  1.
</event>
<event>
12    1  0.8451514E-002  0.2321738E+03  0.7818608E-02  0.1125212E+00
         21   -1    0    0  503  502  0.00000000000E+00  0.00000000000E+00  0.62115312634E+03  0.62115312634E+03  0.00000000000E+00 0.  1.
         21   -1    0    0  501  503 -0.00000000000E+00 -0.00000000000E+00 -0.89603236313E+02  0.89603236313E+02  0.00000000000E+00 0.  1.
          6    2    1    2  501    0  0.36703485370E+02 -0.15015682554E+03  0.20021341835E+03  0.30617195477E+03  0.17251560773E+03 0.  0.
         24    2    3    3    0    0 -0.21719945958E+01 -0.40487061414E+02  0.42123178452E+02  0.10982182349E+03  0.92965321753E+02 0.  0.
         -6    2    1    2    0  502 -0.36703485370E+02  0.15015682554E+03  0.33133647168E+03  0.40458440788E+03  0.17323529532E+03 0.  0.
        -24    2    5    5    0    0 -0.54333237253E+01  0.81482280467E+02  0.73088315419E+02  0.13549665944E+03  0.79677850323E+02 0.  0.
          5    1    3    3  501    0  0.38875479965E+02 -0.10966976412E+03  0.15809023990E+03  0.19635013129E+03  0.47000000000E+01 0. -1.
        -13    1    4    4    0    0  0.35891370265E+02  0.90088020197E+00  0.39719116477E+02  0.53540734570E+02  0.00000000000E+00 0.  1.
         14    1    4    4    0    0 -0.38063364860E+02 -0.41387941616E+02  0.24040619751E+01  0.56281088917E+02  0.00000000000E+00 0. -1.
         -5    1    5    5    0  502 -0.31270161644E+02  0.68674545069E+02  0.25824815626E+03  0.26908774844E+03  0.47000000000E+01 0.  1.
         11    1    6    6    0    0 -0.49218300623E+01  0.62642482860E+02  0.90274859127E+02  0.10999025075E+03  0.00000000000E+00 0. -1.
        -12    1    6    6    0    0 -0.51149366293E+00  0.18839797606E+02 -0.17186543708E+02  0.25506408689E+02  0.00000000000E+00 0.  1.
</event>
<event>
12    1  0.8451514E-002  0.3054588E+03  0.7818608E-02  0.1082982E+00
         21   -1    0    0  501  502  0.00000000000E+00  0.00000000000E+00  0.38277011241E+03  0.38277011241E+03  0.00000000000E+00 0. -1.
         21   -1    0    0  502  503 -0.00000000000E+00 -0.00000000000E+00 -0.57146904002E+03  0.57146904002E+03  0.00000000000E+00 0.  1.
         -6    2    1    2    0  503 -0.17843094967E+02 -0.24724910851E+03 -0.45697897831E+03  0.54769362330E+03  0.17230212038E+03 0.  0.
        -24    2    3    3    0    0  0.25970574426E+02 -0.96699894661E+02 -0.11910261756E+03  0.17517888725E+03  0.80478995190E+02 0.  0.
          6    2    1    2  501    0  0.17843094967E+02  0.24724910851E+03  0.26828005070E+03  0.40654552913E+03  0.17847852521E+03 0.  0.
         24    2    5    5    0    0 -0.10409913724E+01  0.22003847586E+03  0.28524110464E+03  0.36903826854E+03  0.80054614805E+02 0.  0.
          5    1    5    5  501    0  0.18884086339E+02  0.27210632652E+02 -0.16961053944E+02  0.37507260591E+02  0.47000000000E+01 0. -1.
        -11    1    6    6    0    0 -0.40336093113E+02  0.11157366811E+03  0.13808503430E+03  0.18205263118E+03  0.00000000000E+00 0.  1.
         12    1    6    6    0    0  0.39295101741E+02  0.10846480775E+03  0.14715607034E+03  0.18698563736E+03  0.00000000000E+00 0. -1.
         -5    1    3    3    0  503 -0.43813669393E+02 -0.15054921385E+03 -0.33787636075E+03  0.37251473605E+03  0.47000000000E+01 0.  1.
         11    1    4    4    0    0 -0.13689650538E+02 -0.33868505775E+02 -0.21169370303E+01  0.36591852067E+02  0.00000000000E+00 0. -1.
        -12    1    4    4    0    0  0.39660224963E+02 -0.62831388886E+02 -0.11698568053E+03  0.13858703519E+03  0.00000000000E+00 0.  1.
</event>
<event>
12    1  0.8451514E-002  0.5764885E+03  0.7818608E-02  0.9956147E-01
         21   -1    0    0  501  502  0.00000000000E+00  0.00000000000E+00  0.53889995786E+03  0.53889995786E+03  0.00000000000E+00 0. -1.
         21   -1    0    0  502  503 -0.00000000000E+00 -0.00000000000E+00 -0.64714625729E+03  0.64714625729E+03  0.00000000000E+00 0.  1.
         -6    2    1    2    0  503 -0.53164635147E+03 -0.13867499725E+03  0.77411679922E+02  0.58166275232E+03  0.17452905590E+03 0.  0.
        -24    2    3    3    0    0 -0.35273034177E+03 -0.11925284789E+03  0.11527816851E+03  0.39769503947E+03  0.78945250318E+02 0.  0.
          6    2    1    2  501    0  0.53164635147E+03  0.13867499725E+03 -0.18565797936E+03  0.60438346283E+03  0.17009375930E+03 0.  0.
         24    2    5    5    0    0  0.45729092035E+03  0.16815702593E+03 -0.17121127790E+03  0.52296652765E+03  0.82394879443E+02 0.  0.
          5    1    5    5  501    0  0.74355431115E+02 -0.29482028673E+02 -0.14446701461E+02  0.81416935180E+02  0.47000000000E+01 0. -1.
        -11    1    6    6    0    0  0.23407300463E+03  0.10868302628E+03 -0.52952030113E+02  0.26345035432E+03  0.00000000000E+00 0.  1.
         12    1    6    6    0    0  0.22321791572E+03  0.59473999642E+02 -0.11825924779E+03  0.25951617333E+03  0.00000000000E+00 0. -1.
         -5    1    3    3    0  503 -0.17891600969E+03 -0.19422149360E+02 -0.37866488592E+02  0.18396771284E+03  0.47000000000E+01 0.  1.
         11    1    4    4    0    0 -0.11831014132E+03 -0.70669106967E+01  0.16453738899E+02  0.11965766290E+03  0.00000000000E+00 0. -1.
        -12    1    4    4    0    0 -0.23442020045E+03 -0.11218593720E+03  0.98824429615E+02  0.27803737658E+03  0.00000000000E+00 0.  1.
</event>
<event>
12    1  0.8451514E-002  0.1757762E+03  0.7818608E-02  0.1172199E+00
         21   -1    0    0  501  502  0.00000000000E+00  0.00000000000E+00  0.64963353044E+03  0.64963353044E+03  0.00000000000E+00 0. -1.
         21   -1    0    0  502  503 -0.00000000000E+00 -0.00000000000E+00 -0.59699451995E+02  0.59699451995E+02  0.00000000000E+00 0. -1.
         -6    2    1    2    0  503  0.26491619045E+02  0.12755184931E+02  0.13266587676E+03  0.21944372541E+03  0.17231022356E+03 0.  0.
        -24    2    3    3    0    0 -0.14456204118E+02  0.50033078856E+02  0.24854652917E+02  0.98151864247E+02  0.79396119969E+02 0.  0.
          6    2    1    2  501    0 -0.26491619045E+02 -0.12755184931E+02  0.45726820168E+03  0.48988925702E+03  0.17329966894E+03 0.  0.
         24    2    5    5    0    0 -0.29382720315E+02  0.22572991364E+02  0.11393158592E+03  0.14469574574E+03  0.81139191354E+02 0.  0.
          5    1    5    5  501    0  0.28911012692E+01 -0.35328176295E+02  0.34333661577E+03  0.34519351128E+03  0.47000000000E+01 0. -1.
        -13    1    6    6    0    0 -0.42217357657E+02  0.20136563243E+02  0.21733030229E+02  0.51576264596E+02  0.00000000000E+00 0.  1.
         14    1    6    6    0    0  0.12834637342E+02  0.24364281215E+01  0.92198555687E+02  0.93119481144E+02  0.00000000000E+00 0. -1.
         -5    1    3    3    0  503  0.40947823163E+02 -0.37277893925E+02  0.10781122384E+03  0.12129186116E+03  0.47000000000E+01 0.  1.
         13    1    4    4    0    0  0.31204049920E+02  0.68240955741E+01  0.10970391148E+02  0.33772925455E+02  0.00000000000E+00 0. -1.
        -14    1    4    4    0    0 -0.45660254038E+02  0.43208983282E+02  0.13884261770E+02  0.64378938792E+02  0.00000000000E+00 0.  1.
</event>
<event>
12    1  0.8451514E-002  0.2875834E+03  0.7818608E-02  0.1091838E+00
         21   -1    0    0  503  502  0.00000000000E+00  0.00000000000E+00  0.21460201013E+03  0.21460201013E+03  0.00000000000E+00 0. -1.
         21   -1    0    0  501  503 -0.00000000000E+00 -0.00000000000E+00 -0.23592974666E+04  0.23592974666E+04  0.00000000000E+00 0.  1.
          6    2    1    2  501    0 -0.22674975983E+03 -0.38444228268E+02 -0.22506726573E+04  0.22689714961E+04  0.17265812249E+03 0.  0.
         24    2    3    3    0    0 -0.12740227971E+03  0.30831531766E+02 -0.15144618536E+04  0.15228498637E+04  0.91077314387E+02 0.  0.
         -6    2    1    2    0  502  0.22674975983E+03  0.38444228268E+02  0.10597720087E+03  0.30492798065E+03  0.16987199301E+03 0.  0.
        -24    2    5    5    0    0  0.20148121922E+03 -0.75591480368E+01  0.40352765558E+02  0.22076464964E+03  0.80354604268E+02 0.  0.
          5    1    3    3  501    0 -0.99347480118E+02 -0.69275760034E+02 -0.73621080374E+03  0.74612163236E+03  0.47000000000E+01 0. -1.
        -13    1    4    4    0    0 -0.50133653739E+02 -0.14594033500E+02 -0.93888502245E+03  0.94033582003E+03  0.00000000000E+00 0.  1.
         14    1    4    4    0    0 -0.77268625969E+02  0.45425565266E+02 -0.57557683115E+03  0.58251404369E+03  0.00000000000E+00 0. -1.
         -5    1    5    5    0  502  0.25268540608E+02  0.46003376304E+02  0.65624435315E+02  0.84163331008E+02  0.47000000000E+01 0.  1.
         13    1    6    6    0    0  0.14652516984E+03  0.51681111975E+01  0.63516758152E+02  0.15978333248E+03  0.00000000000E+00 0. -1.
        -14    1    6    6    0    0  0.54956049373E+02 -0.12727259234E+02 -0.23163992594E+02  0.60981317165E+02  0.00000000000E+00 0.  1.
</event>
<event>
12    1  0.8451514E-002  0.2328756E+03  0.7818608E-02  0.1125651E+00
         21   -1    0    0  501  502  0.00000000000E+00  0.00000000000E+00  0.38139359131E+03  0.38139359131E+03  0.00000000000E+00 0. -1.
         21   -1    0    0  502  503 -0.00000000000E+00 -0.00000000000E+00 -0.14891967199E+03  0.14891967199E+03  0.00000000000E+00 0.  1.
         -6    2    1    2    0  503  0.14422479771E+03  0.38380179264E+02  0.45313013382E+02  0.23154869318E+03  0.17113648850E+03 0.  0.
        -24    2    3    3    0    0  0.13638842181E+03  0.52553229494E+01  0.84967627576E+02  0.17907733604E+03  0.78865547130E+02 0.  0.
          6    2    1    2  501    0 -0.14422479771E+03 -0.38380179264E+02  0.18716090594E+03  0.29876457012E+03  0.17876586142E+03 0.  0.
         24    2    5    5    0    0 -0.43068354951E+01 -0.45583110210E+02  0.80987832062E+02  0.12291312718E+03  0.80325830985E+02 0.  0.
          5    1    5    5  501    0 -0.13991796222E+03  0.72029309463E+01  0.10617307388E+03  0.17585144294E+03  0.47000000000E+01 0. -1.
        -11    1    6    6    0    0 -0.16853004875E+02 -0.54798671134E+02  0.21190077967E+02  0.61122316183E+02  0.00000000000E+00 0.  1.
         12    1    6    6    0    0  0.12546169380E+02  0.92155609236E+01  0.59797754095E+02  0.61790811000E+02  0.00000000000E+00 0. -1.
         -5    1    3    3    0  503  0.78363759009E+01  0.33124856315E+02 -0.39654614194E+02  0.52471357139E+02  0.47000000000E+01 0.  1.
         11    1    4    4    0    0  0.41475232624E+02  0.33981589526E+02  0.51691929657E+02  0.74478177606E+02  0.00000000000E+00 0. -1.
        -12    1    4    4    0    0  0.94913189189E+02 -0.28726266576E+02  0.33275697919E+02  0.10459915844E+03  0.00000000000E+00 0.  1.
</event>
<event>
12    1  0.8451514E-002  0.2656154E+03  0.7818608E-02  0.1103863E+00
         21   -1    0    0  503  502  0.00000000000E+00  0.00000000000E+00  0.80334577991E+02  0.80334577991E+02  0.00000000000E+00 0.  1.
         21   -1    0    0  501  503 -0.00000000000E+00 -0.00000000000E+00 -0.89209626614E+03  0.89209626614E+03  0.00000000000E+00 0. -1.
          6    2    1    2  501    0  0.90228183965E+02 -0.18156255335E+03 -0.46903732401E+03  0.53902463747E+03  0.17159680220E+03 0.  0.
         24    2    3    3    0    0  0.12700835756E+03 -0.16883573516E+03 -0.41636217958E+03  0.47336251817E+03  0.77961404946E+02 0.  0.
         -6    2    1    2    0  502 -0.90228183965E+02  0.18156255335E+03 -0.34272436413E+03  0.43340620666E+03  0.17109898959E+03 0.  0.
        -24    2    5    5    0    0 -0.73076745617E+02  0.20724703396E+03 -0.30788181115E+03  0.38660922085E+03  0.79899538018E+02 0.  0.
          5    1    3    3  501    0 -0.36780173594E+02 -0.12726818187E+02 -0.52675144429E+02  0.65662119303E+02  0.47000000000E+01 0. -1.
        -11    1    4    4    0    0  0.82885685063E+02 -0.47201345652E+02 -0.16242427731E+03  0.18836042493E+03  0.00000000000E+00 0.  1.
         12    1    4    4    0    0  0.44122672497E+02 -0.12163438951E+03 -0.25393790228E+03  0.28500209324E+03  0.00000000000E+00 0. -1.
         -5    1    5    5    0  502 -0.17151438348E+02 -0.25684480617E+02 -0.34842552985E+02  0.46796985805E+02  0.47000000000E+01 0.  1.
         11    1    6    6    0    0 -0.33109571160E+01  0.79651323295E+02 -0.16238171562E+03  0.18089532140E+03  0.00000000000E+00 0. -1.
        -12    1    6    6    0    0 -0.69765788501E+02  0.12759571067E+03 -0.14550009553E+03  0.20571389945E+03  0.00000000000E+00 0.  1.
</event>
<event>
12    1  0.8451514E-002  0.2036782E+03  0.7818608E-02  0.1147230E+00
         21   -1    0    0  501  502  0.00000000000E+00  0.00000000000E+00  0.10677244077E+04  0.10677244077E+04  0.00000000000E+00 0. -1.
         21   -1    0    0  502  503 -0.00000000000E+00 -0.00000000000E+00 -0.43206219663E+02  0.43206219663E+02  0.00000000000E+00 0.  1.
         -6    2    1    2    0  503  0.89039083816E+02 -0.55034953602E+02  0.32891603590E+03  0.38687278801E+03  0.17472261119E+03 0.  0.
        -24    2    3    3    0    0  0.12174051439E+03 -0.74979534102E+02  0.27852984127E+03  0.32340603716E+03  0.81054975284E+02 0.  0.
          6    2    1    2  501    0 -0.89039083816E+02  0.55034953602E+02  0.69560215213E+03  0.72405783935E+03  0.17158262184E+03 0.  0.
         24    2    5    5    0    0 -0.77916295635E+02 -0.14832962378E+02  0.55858700699E+03  0.56978379067E+03  0.79643944101E+02 0.  0.
          5    1    5    5  501    0 -0.11122788181E+02  0.69867915980E+02  0.13701514514E+03  0.15427404869E+03  0.47000000000E+01 0. -1.
        -11    1    6    6    0    0 -0.98455585327E+00 -0.22748844836E+02  0.45275118262E+02  0.50678551926E+02  0.00000000000E+00 0.  1.
         12    1    6    6    0    0 -0.76931739781E+02  0.79158824583E+01  0.51331188873E+03  0.51910523874E+03  0.00000000000E+00 0. -1.
         -5    1    3    3    0  503 -0.32701430572E+02  0.19944580500E+02  0.50386194634E+02  0.63466750843E+02  0.47000000000E+01 0.  1.
         11    1    4    4    0    0  0.93003676172E+02 -0.88539249149E+02  0.24834838238E+03  0.27958147552E+03  0.00000000000E+00 0. -1.
        -12    1    4    4    0    0  0.28736838215E+02  0.13559715046E+02  0.30181458888E+02  0.43824561645E+02  0.00000000000E+00 0.  1.
</event>
<event>
12    1  0.8451514E-002  0.2045656E+03  0.7818608E-02  0.1145958E+00
         21   -1    0    0  503  502  0.00000000000E+00  0.00000000000E+00  0.59569265060E+02  0.59569265060E+02  0.00000000000E+00 0.  1.
         21   -1    0    0  501  503 -0.00000000000E+00 -0.00000000000E+00 -0.98820412564E+03  0.98820412564E+03  0.00000000000E+00 0. -1.
          6    2    1    2  501    0  0.11015063969E+03 -0.21122402962E+02 -0.74618966431E+03  0.77372222423E+03  0.17107818624E+03 0.  0.
         24    2    3    3    0    0  0.28854022545E+02 -0.82585724116E+01 -0.14018150614E+03  0.16213200532E+03  0.75730930600E+02 0.  0.
         -6    2    1    2    0  502 -0.11015063969E+03  0.21122402962E+02 -0.18244519627E+03  0.27405116647E+03  0.17099261058E+03 0.  0.
        -24    2    5    5    0    0 -0.12045061525E+03 -0.23847683941E+02 -0.17442216452E+03  0.22698889654E+03  0.77613175012E+02 0.  0.
          5    1    3    3  501    0  0.81296617140E+02 -0.12863830550E+02 -0.60600815817E+03  0.61159021891E+03  0.47000000000E+01 0. -1.
        -13    1    4    4    0    0  0.23654936591E+02 -0.34410515449E+02 -0.37764271899E+02  0.56300797780E+02  0.00000000000E+00 0.  1.
         14    1    4    4    0    0  0.51990859540E+01  0.26151943038E+02 -0.10241723424E+03  0.10583120754E+03  0.00000000000E+00 0. -1.
         -5    1    5    5    0  502  0.10299975560E+02  0.44970086903E+02 -0.80230317516E+01  0.47062269931E+02  0.47000000000E+01 0.  1.
         11    1    6    6    0    0 -0.98261562255E+01  0.96663461930E+01 -0.69589035285E+02  0.70940999618E+02  0.00000000000E+00 0. -1.
        -12    1    6    6    0    0 -0.11062445902E+03 -0.33514030134E+02 -0.10483312923E+03  0.15604789692E+03  0.00000000000E+00 0.  1.
</event>
<event>
12    1  0.8451514E-002  0.1747619E+03  0.7818608E-02  0.1172983E+00
         21   -1    0    0  501  502  0.00000000000E+00  0.00000000000E+00  0.46267345201E+03  0.46267345201E+03  0.00000000000E+00 0.  1.
         21   -1    0    0  502  503 -0.00000000000E+00 -0.00000000000E+00 -0.67198767078E+02  0.67198767078E+02  0.00000000000E+00 0.  1.
         -6    2    1    2    0  503 -0.22361215562E+02  0.20411957494E+02  0.23319760419E+03  0.29138620494E+03  0.17207011901E+03 0.  0.
        -24    2    3    3    0    0  0.48293759926E+02 -0.10575822950E+02  0.11515865149E+03  0.15029172435E+03  0.82957531995E+02 0.  0.
          6    2    1    2  501    0  0.22361215562E+02 -0.20411957494E+02  0.16227708074E+03  0.23848601415E+03  0.17211930758E+03 0.  0.
         24    2    5    5    0    0  0.80057463193E+02 -0.59102402427E+01  0.12309916133E+03  0.16709864718E+03  0.79526259919E+02 0.  0.
          5    1    5    5  501    0 -0.57696247631E+02 -0.14501717251E+02  0.39177919412E+02  0.71387366973E+02  0.47000000000E+01 0. -1.
        -11    1    6    6    0    0  0.73816890479E+02  0.14218487809E+02  0.48218749814E+02  0.89309274710E+02  0.00000000000E+00 0.  1.
         12    1    6    6    0    0  0.62405727145E+01 -0.20128728052E+02  0.74880411512E+02  0.77789372468E+02  0.00000000000E+00 0. -1.
         -5    1    3    3    0  503 -0.70654975488E+02  0.30987780444E+02  0.11803895270E+03  0.14109448059E+03  0.47000000000E+01 0.  1.
         11    1    4    4    0    0  0.19571250892E+02  0.28109302850E+02  0.11753285169E+02  0.36211965985E+02  0.00000000000E+00 0. -1.
        -12    1    4    4    0    0  0.28722509034E+02 -0.38685125800E+02  0.10340536633E+03  0.11407975836E+03  0.00000000000E+00 0.  1.
</event>
<event>
12    1  0.8451514E-002  0.2203611E+03  0.7818608E-02  0.1133680E+00
         21   -1    0    0  503  502  0.00000000000E+00  0.00000000000E+00  0.11666557660E+03  0.11666557660E+03  0.00000000000E+00 0. -1.
         21   -1    0    0  501  503 -0.00000000000E+00 -0.00000000000E+00 -0.44929026070E+03  0.44929026070E+03  0.00000000000E+00 0. -1.
          6    2    1    2  501    0  0.79484554560E+02 -0.11255065159E+03 -0.24397790575E+03  0.32876163538E+03  0.17196962179E+03 0.  0.
         24    2    3    3    0    0  0.35715184372E+02 -0.50442633546E+02 -0.32812668379E+02  0.10429334999E+03  0.77333032872E+02 0.  0.
         -6    2    1    2    0  502 -0.79484554560E+02  0.11255065159E+03 -0.88646778355E+02  0.23719420191E+03  0.17151499795E+03 0.  0.
        -24    2    5    5    0    0 -0.77773330646E+02  0.19222973227E+02 -0.89604347567E+02  0.14372767970E+03  0.78806682143E+02 0.  0.
          5    1    3    3  501    0  0.43769370188E+02 -0.62108018040E+02 -0.21116523737E+03  0.22446828539E+03  0.47000000000E+01 0. -1.
        -11    1    4    4    0    0 -0.49815447793E+01  0.16141814413E+02 -0.18324682144E+02  0.24923240893E+02  0.00000000000E+00 0.  1.
         12    1    4    4    0    0  0.40696729151E+02 -0.66584447959E+02 -0.14487986235E+02  0.79370109102E+02  0.00000000000E+00 0. -1.
         -5    1    5    5    0  502 -0.17112239134E+01  0.93327678359E+02  0.95756921175E+00  0.93466522210E+02  0.47000000000E+01 0.  1.
         11    1    6    6    0    0 -0.23538766479E+02  0.90290088904E+01  0.12139711239E+02  0.27981585335E+02  0.00000000000E+00 0. -1.
        -12    1    6    6    0    0 -0.54234564168E+02  0.10193964337E+02 -0.10174405881E+03  0.11574609437E+03  0.00000000000E+00 0.  1.
</event>
<event>
12    1  0.8451514E-002  0.2059321E+03  0.7818608E-02  0.1145141E+00
         21   -1    0    0  503  502  0.00000000000E+00  0.00000000000E+00  0.43058344009E+03  0.43058344009E+03  0.00000000000E+00 0. -1.
         21   -1    0    0  501  503 -0.00000000000E+00 -0.00000000000E+00 -0.10751033418E+03  0.10751033418E+03  0.00000000000E+00 0. -1.
          6    2    1    2  501    0 -0.80063586936E+02 -0.77682322912E+02  0.81052112966E+02  0.22130856287E+03  0.17309914424E+03 0.  0.
         24    2    3    3    0    0 -0.33340652004E+02 -0.90809325617E+02  0.10926589925E+03  0.16497510403E+03  0.76940337365E+02 0.  0.
         -6    2    1    2    0  502  0.80063586936E+02  0.77682322912E+02  0.24202099294E+03  0.31678521140E+03  0.17127167860E+03 0.  0.
        -24    2    5    5    0    0  0.37193769206E+02  0.11260425484E+03  0.13859359983E+03  0.19941111610E+03  0.80582334509E+02 0.  0.
          5    1    3    3  501    0 -0.46722934932E+02  0.13127002705E+02 -0.28213786285E+02  0.56333458843E+02  0.47000000000E+01 0. -1.
        -11    1    4    4    0    0  0.15675303913E+02 -0.64072341192E+02  0.73051086650E+02  0.98424800327E+02  0.00000000000E+00 0.  1.
         12    1    4    4    0    0 -0.49015955917E+02 -0.26736984426E+02  0.36214812601E+02  0.66550303699E+02  0.00000000000E+00 0. -1.
         -5    1    5    5    0  502  0.42869817730E+02 -0.34921931925E+02  0.10342739311E+03  0.11737409530E+03  0.47000000000E+01 0.  1.
         11    1    6    6    0    0  0.49415169216E+02  0.96938077412E+02  0.14236879727E+03  0.17918628362E+03  0.00000000000E+00 0. -1.
        -12    1    6    6    0    0 -0.12221400010E+02  0.15666177424E+02 -0.37751974360E+01  0.20224832483E+02  0.00000000000E+00 0.  1.
</event>
<event>
12    1  0.8451514E-002  0.2032362E+03  0.7818608E-02  0.1147131E+00
         21   -1    0    0  501  502  0.00000000000E+00  0.00000000000E+00  0.86924255393E+03  0.86924255393E+03  0.00000000000E+00 0. -1.
         21   -1    0    0  502  503 -0.00000000000E+00 -0.00000000000E+00 -0.81950342830E+02  0.81950342830E+02  0.00000000000E+00 0. -1.
         -6    2    1    2    0  503  0.32821835683E+02  0.10349065627E+03  0.70214450143E+03  0.73084069853E+03  0.17127065398E+03 0.  0.
        -24    2    3    3    0    0  0.15400302348E+02  0.12742606664E+02  0.37418691023E+03  0.39008126733E+03  0.10838822812E+03 0.  0.
          6    2    1    2  501    0 -0.32821835683E+02 -0.10349065627E+03  0.85147709669E+02  0.22035219822E+03  0.17180619886E+03 0.  0.
         24    2    5    5    0    0  0.40127144187E+02 -0.93228179958E+02  0.57024014529E+02  0.14135913326E+03  0.80180952126E+02 0.  0.
          5    1    5    5  501    0 -0.72948979870E+02 -0.10262476314E+02  0.28123695141E+02  0.78993064965E+02  0.47000000000E+01 0. -1.
        -11    1    6    6    0    0  0.37082728271E+02 -0.67861305264E+02  0.76847086145E+02  0.10902183330E+03  0.00000000000E+00 0.  1.
         12    1    6    6    0    0  0.30444159166E+01 -0.25366874695E+02 -0.19823071617E+02  0.32337299955E+02  0.00000000000E+00 0. -1.
         -5    1    3    3    0  503  0.17421533335E+02  0.90748049608E+02  0.32795759119E+03  0.34075943120E+03  0.47000000000E+01 0.  1.
         13    1    4    4    0    0  0.26554943816E+02  0.18941988208E+02  0.37580462019E+03  0.37721754535E+03  0.00000000000E+00 0. -1.
        -14    1    4    4    0    0 -0.11154641468E+02 -0.61993815440E+01 -0.16177099589E+01  0.12863721985E+02  0.00000000000E+00 0.  1.
</event>
<event>
12    1  0.8451514E-002  0.1888343E+03  0.7818608E-02  0.1160314E+00
         21   -1    0    0  503  502  0.00000000000E+00  0.00000000000E+00  0.99486752887E+02  0.99486752887E+02  0.00000000000E+00 0.  1.
         21   -1    0    0  501  503 -0.00000000000E+00 -0.00000000000E+00 -0.35213348448E+03  0.35213348448E+03  0.00000000000E+00 0.  1.
          6    2    1    2  501    0 -0.47948893744E+02  0.48338366456E+02 -0.13377108137E+03  0.23141545237E+03  0.17613266393E+03 0.  0.
         24    2    3    3    0    0 -0.24082998829E+01 -0.24877308725E+02 -0.12290829404E+02  0.82371759449E+02  0.77520073978E+02 0.  0.
         -6    2    1    2    0  502  0.47948893744E+02 -0.48338366456E+02 -0.11887565021E+03  0.22020478499E+03  0.17240369206E+03 0.  0.
        -24    2    5    5    0    0  0.57390596842E+02 -0.68938616652E+02 -0.14374618587E+03  0.18623200752E+03  0.77286358445E+02 0.  0.
          5    1    3    3  501    0 -0.45540593861E+02  0.73215675181E+02 -0.12148025197E+03  0.14904369292E+03  0.47000000000E+01 0. -1.
        -11    1    4    4    0    0  0.46547052944E+01 -0.45874208742E+01 -0.43772656700E+02  0.44257837569E+02  0.00000000000E+00 0.  1.
         12    1    4    4    0    0 -0.70630051773E+01 -0.20289887851E+02  0.31481827297E+02  0.38113921880E+02  0.00000000000E+00 0. -1.
         -5    1    5    5    0  502 -0.94417030981E+01  0.20600250196E+02  0.24870535652E+02  0.33972777472E+02  0.47000000000E+01 0.  1.
         11    1    6    6    0    0  0.31151045210E+00  0.15935233813E+02 -0.23086276344E+02  0.28053607092E+02  0.00000000000E+00 0. -1.
        -12    1    6    6    0    0  0.57079086390E+02 -0.84873850465E+02 -0.12065990952E+03  0.15817840043E+03  0.00000000000E+00 0.  1.
</event>
<event>
12    1  0.8451514E-002  0.1803589E+03  0.7818608E-02  0.1167728E+00
         21   -1    0    0  501  502  0.00000000000E+00  0.00000000000E+00  0.10462283064E+04  0.10462283064E+04  0.00000000000E+00 0. -1.
         21   -1    0    0  502  503 -0.00000000000E+00 -0.00000000000E+00 -0.44179867499E+02  0.44179867499E+02  0.00000000000E+00 0. -1.
         -6    2    1    2    0  503 -0.45885156958E+02  0.21598645445E+02  0.80104303025E+03  0.82109637761E+03  0.17308199182E+03 0.  0.
        -24    2    3    3    0    0 -0.66886496423E+02  0.53220093924E+02  0.74227689776E+03  0.75097847268E+03  0.75415460513E+02 0.  0.
          6    2    1    2  501    0  0.45885156958E+02 -0.21598645445E+02  0.20100540862E+03  0.26931179626E+03  0.17191195478E+03 0.  0.
         24    2    5    5    0    0  0.32477778490E+02  0.51347194187E+02  0.85508201888E+02  0.13197080428E+03  0.80083082760E+02 0.  0.
          5    1    5    5  501    0  0.13407378469E+02 -0.72945839632E+02  0.11549720673E+03  0.13734099199E+03  0.47000000000E+01 0. -1.
        -11    1    6    6    0    0 -0.91506936946E+01 -0.99591311253E+01  0.46093621409E+02  0.48036875653E+02  0.00000000000E+00 0.  1.
         12    1    6    6    0    0  0.41628472184E+02  0.61306325312E+02  0.39414580479E+02  0.83933928622E+02  0.00000000000E+00 0. -1.
         -5    1    3    3    0  503  0.21001339465E+02 -0.31621448479E+02  0.58766132497E+02  0.70117904930E+02  0.47000000000E+01 0.  1.
         13    1    4    4    0    0 -0.48473974518E+02  0.22378983288E+02  0.64628079523E+03  0.64848239096E+03  0.00000000000E+00 0. -1.
        -14    1    4    4    0    0 -0.18412521905E+02  0.30841110636E+02  0.95996102525E+02  0.10249608172E+03  0.00000000000E+00 0.  1.
</event>
<event>
12    1  0.8451514E-002  0.1831872E+03  0.7818608E-02  0.1165015E+00
         21   -1    0    0  501  502  0.00000000000E+00  0.00000000000E+00  0.17150633918E+04  0.17150633918E+04  0.00000000000E+00 0. -1.
         21   -1    0    0  502  503 -0.00000000000E+00 -0.00000000000E+00 -0.34608076825E+02  0.34608076825E+02  0.00000000000E+00 0. -1.
         -6    2    1    2    0  503  0.42658307520E+02  0.45026421988E+02  0.26265547075E+03  0.32022718822E+03  0.17236718330E+03 0.  0.
        -24    2    3    3    0    0  0.21353514250E+02 -0.39538883700E+02  0.17199850013E+03  0.19434644519E+03  0.78535092899E+02 0.  0.
          6    2    1    2  501    0 -0.42658307520E+02 -0.45026421988E+02  0.14177998442E+04  0.14294442804E+04  0.17119416648E+03 0.  0.
         24    2    5    5    0    0  0.29543581472E+02 -0.38051910919E+02  0.10735320045E+04  0.10775860816E+04  0.80000171933E+02 0.  0.
          5    1    5    5  501    0 -0.72201888992E+02 -0.69745110695E+01  0.34426783970E+03  0.35185819876E+03  0.47000000000E+01 0. -1.
        -13    1    6    6    0    0  0.49497456686E+01 -0.15261598440E+02  0.34881088601E+02  0.38394097347E+02  0.00000000000E+00 0.  1.
         14    1    6    6    0    0  0.24593835804E+02 -0.22790312479E+02  0.10386509159E+04  0.10391919843E+04  0.00000000000E+00 0. -1.
         -5    1    3    3    0  503  0.21304793270E+02  0.84565305688E+02  0.90656970626E+02  0.12588074303E+03  0.47000000000E+01 0.  1.
         13    1    4    4    0    0  0.25240036945E+02  0.14696521597E+02  0.28150735888E+02  0.40564900384E+02  0.00000000000E+00 0. -1.
        -14    1    4    4    0    0 -0.38865226952E+01 -0.54235405297E+02  0.14384776424E+03  0.15378154481E+03  0.00000000000E+00 0.  1.
</event>
<event>
12    1  0.8451514E-002  0.2206741E+03  0.7818608E-02  0.1134625E+00
         21   -1    0    0  501  502  0.00000000000E+00  0.00000000000E+00  0.71524053387E+03  0.71524053387E+03  0.00000000000E+00 0.  1.
         21   -1    0    0  502  503 -0.00000000000E+00 -0.00000000000E+00 -0.11786173882E+03  0.11786173882E+03  0.00000000000E+00 0. -1.
         -6    2    1    2    0  503 -0.21400287834E+02  0.13421175893E+03  0.20033988775E+02  0.21502131112E+03  0.16541473627E+03 0.  0.
        -24    2    3    3    0    0 -0.75938283671E+02  0.91940718798E+02  0.25341554261E+02  0.14565637708E+03  0.79711147973E+02 0.  0.
          6    2    1    2  501    0  0.21400287834E+02 -0.13421175893E+03  0.57734480627E+03  0.61808096156E+03  0.17385707108E+03 0.  0.
         24    2    5    5    0    0  0.61810488759E+02 -0.52469630450E+02  0.43037394301E+03  0.44505701942E+03  0.79249107719E+02 0.  0.
          5    1    5    5  501    0 -0.40410200925E+02 -0.81742128477E+02  0.14697086326E+03  0.17302394214E+03  0.47000000000E+01 0. -1.
        -13    1    6    6    0    0 -0.16766779424E+02 -0.73549169854E+01  0.13096093296E+03  0.13223458571E+03  0.00000000000E+00 0.  1.
         14    1    6    6    0    0  0.78577268182E+02 -0.45114713464E+02  0.29941301004E+03  0.31282243371E+03  0.00000000000E+00 0. -1.
         -5    1    3    3    0  503  0.54537995837E+02  0.42271040129E+02 -0.53075654858E+01  0.69364934044E+02  0.47000000000E+01 0.  1.
         13    1    4    4    0    0 -0.24180904745E+02 -0.11451523006E+02 -0.20460423629E+01  0.26833557774E+02  0.00000000000E+00 0. -1.
        -14    1    4    4    0    0 -0.51757378926E+02  0.10339224180E+03  0.27387596624E+02  0.11882281930E+03  0.00000000000E+00 0.  1.
</event>
<event>
12    1  0.8451514E-002  0.2398284E+03  0.7818608E-02  0.1120194E+00
         21   -1    0    0  501  502  0.00000000000E+00  0.00000000000E+00  0.35814023034E+03  0.35814023034E+03  0.00000000000E+00 0. -1.
         21   -1    0    0  502  503 -0.00000000000E+00 -0.00000000000E+00 -0.24899328554E+03  0.24899328554E+03  0.00000000000E+00 0. -1.
         -6    2    1    2    0  503  0.14882864861E+03  0.69274854233E+02 -0.12758826911E+03  0.27014508412E+03  0.17248370353E+03 0.  0.
        -24    2    3    3    0    0  0.10938231016E+03 -0.22571134446E+02 -0.55286411725E+02  0.14668923033E+03  0.77376980339E+02 0.  0.
          6    2    1    2  501    0 -0.14882864861E+03 -0.69274854233E+02  0.23673521392E+03  0.33698843176E+03  0.17483898179E+03 0.  0.
         24    2    5    5    0    0 -0.17737578755E+03 -0.39913622739E+02  0.18115993758E+03  0.26779506216E+03  0.76419925723E+02 0.  0.
          5    1    5    5  501    0  0.28547138934E+02 -0.29361231494E+02  0.55575276339E+02  0.69193369598E+02  0.47000000000E+01 0. -1.
        -13    1    6    6    0    0 -0.56184922967E+01  0.95697283838E+01 -0.26468167489E+01  0.11408452828E+02  0.00000000000E+00 0.  1.
         14    1    6    6    0    0 -0.17175729525E+03 -0.49483351123E+02  0.18380675433E+03  0.25638660934E+03  0.00000000000E+00 0. -1.
         -5    1    3    3    0  503  0.39446338448E+02  0.91845988679E+02 -0.72301857386E+02  0.12345585379E+03  0.47000000000E+01 0.  1.
         11    1    4    4    0    0  0.94971052702E+02 -0.40222612866E+02 -0.65007286963E+02  0.12191516229E+03  0.00000000000E+00 0. -1.
        -12    1    4    4    0    0  0.14411257462E+02  0.17651478420E+02  0.97208752373E+01  0.24774068044E+02  0.00000000000E+00 0.  1.
</event>
<event>
12    1  0.8451514E-002  0.2041051E+03  0.7818608E-02  0.1149063E+00
         21   -1    0    0  503  502  0.00000000000E+00  0.00000000000E+00  0.10433041964E+03  0.10433041964E+03  0.00000000000E+00 0.  1.
         21   -1    0    0  501  503 -0.00000000000E+00 -0.00000000000E+00 -0.12369483325E+04  0.12369483325E+04  0.00000000000E+00 0.  1.
          6    2    1    2  501    0  0.83523584839E+02  0.13855948836E+02 -0.11206249052E+04  0.11368216380E+04  0.17144994012E+03 0.  0.
         24    2    3    3    0    0 -0.11946889199E+02  0.36414549464E+02 -0.41803180889E+03  0.42739746952E+03  0.80307260747E+02 0.  0.
         -6    2    1    2    0  502 -0.83523584839E+02 -0.13855948836E+02 -0.11993007678E+02  0.20445711414E+03  0.18571672716E+03 0.  0.
        -24    2    5    5    0    0 -0.95073878789E+02  0.47611509227E+01  0.51005233466E+02  0.13759251902E+03  0.85255243018E+02 0.  0.
          5    1    3    3  501    0  0.95470474038E+02 -0.22558600627E+02 -0.70259309630E+03  0.70942416849E+03  0.47000000000E+01 0. -1.
        -13    1    4    4    0    0  0.28614145634E+02  0.18793026799E+02 -0.28851098154E+03  0.29053490953E+03  0.00000000000E+00 0.  1.
         14    1    4    4    0    0 -0.40561034833E+02  0.17621522664E+02 -0.12952082735E+03  0.13686255999E+03  0.00000000000E+00 0. -1.
         -5    1    5    5    0  502  0.11550293950E+02 -0.18617099759E+02 -0.62998241145E+02  0.66864595124E+02  0.47000000000E+01 0.  1.
         13    1    6    6    0    0  0.10730529112E+01 -0.16631201913E+02  0.33686332872E+02  0.37583471660E+02  0.00000000000E+00 0. -1.
        -14    1    6    6    0    0 -0.96146931700E+02  0.21392352836E+02  0.17318900594E+02  0.10000904736E+03  0.00000000000E+00 0.  1.
</event>
<event>
12    1  0.8451514E-002  0.2544698E+03  0.7818608E-02  0.1110755E+00
         21   -1    0    0  503  502  0.00000000000E+00  0.00000000000E+00  0.41477255465E+02  0.41477255465E+02  0.00000000000E+00 0. -1.
         21   -1    0    0  501  503 -0.00000000000E+00 -0.00000000000E+00 -0.19617358730E+04  0.19617358730E+04  0.00000000000E+00 0. -1.
          6    2    1    2  501    0  0.76722482794E+02 -0.17218983632E+03 -0.49982839768E+03  0.56016881542E+03  0.16859713979E+03 0.  0.
         24    2    3    3    0    0  0.81976383290E+02 -0.41687052417E+02 -0.22086753096E+03  0.25211064683E+03  0.79494491977E+02 0.  0.
         -6    2    1    2    0  502 -0.76722482794E+02  0.17218983632E+03 -0.14204302199E+04  0.14430443131E+04  0.17093624785E+03 0.  0.
        -24    2    5    5    0    0 -0.10966204254E+03  0.10994089511E+03 -0.81034216250E+03  0.82888678194E+03  0.79285010977E+02 0.  0.
          5    1    3    3  501    0 -0.52539004956E+01 -0.13050278390E+03 -0.27896086671E+03  0.30805816859E+03  0.47000000000E+01 0. -1.
        -13    1    4    4    0    0 -0.95645267772E+01 -0.26948175798E+02 -0.45475330954E+02  0.53718619460E+02  0.00000000000E+00 0.  1.
         14    1    4    4    0    0  0.91540910067E+02 -0.14738876619E+02 -0.17539220001E+03  0.19839202737E+03  0.00000000000E+00 0. -1.
         -5    1    5    5    0  502  0.32939559741E+02  0.62248941211E+02 -0.61008805738E+03  0.61415753112E+03  0.47000000000E+01 0.  1.
         11    1    6    6    0    0 -0.78727183187E+02  0.94953123835E+02 -0.74413053859E+03  0.75428398071E+03  0.00000000000E+00 0. -1.
        -12    1    6    6    0    0 -0.30934859348E+02  0.14987771275E+02 -0.66211623911E+02  0.74602801232E+02  0.00000000000E+00 0.  1.
</event>
<event>
12    1  0.8451514E-002  0.1728130E+03  0.7818608E-02  0.1175052E+00
         21   -1    0    0  503  502  0.00000000000E+00  0.00000000000E+00  0.37017292560E+02  0.37017292560E+02  0.00000000000E+00 0. -1.
         21   -1    0    0  501  503 -0.00000000000E+00 -0.00000000000E+00 -0.99459975822E+03  0.99459975822E+03  0.00000000000E+00 0. -1.
          6    2    1    2  501    0 -0.11135202802E+00 -0.38409863691E+01 -0.70457343361E+03  0.72545714065E+03  0.17277029257E+03 0.  0.
         24    2    3    3    0    0 -0.22418922792E+02 -0.65635095115E+02 -0.40306649532E+03  0.41683979923E+03  0.80512388870E+02 0.  0.
         -6    2    1    2    0  502  0.11135202802E+00  0.38409863691E+01 -0.25300903205E+03  0.30615991013E+03  0.17235299445E+03 0.  0.
        -24    2    5    5    0    0  0.16969463355E+02 -0.54488846089E+02 -0.20672496973E+03  0.22966893225E+03  0.82192507542E+02 0.  0.
          5    1    3    3  501    0  0.22307570764E+02  0.61794108746E+02 -0.30150693828E+03  0.30861734141E+03  0.47000000000E+01 0. -1.
        -13    1    4    4    0    0  0.19860453357E+02 -0.78969543393E+01 -0.29201616929E+02  0.36187483011E+02  0.00000000000E+00 0.  1.
         14    1    4    4    0    0 -0.42279376149E+02 -0.57738140775E+02 -0.37386487839E+03  0.38065231622E+03  0.00000000000E+00 0. -1.
         -5    1    5    5    0  502 -0.16858111327E+02  0.58329832458E+02 -0.46284062320E+02  0.76490977880E+02  0.47000000000E+01 0.  1.
         13    1    6    6    0    0  0.46992699513E+02 -0.43549969893E+02 -0.16578782540E+03  0.17773721258E+03  0.00000000000E+00 0. -1.
        -14    1    6    6    0    0 -0.30023236158E+02 -0.10938876196E+02 -0.40937144332E+02  0.51931719671E+02  0.00000000000E+00 0.  1.
</event>
<event>
12    1  0.8451514E-002  0.3475460E+03  0.7818608E-02  0.1063741E+00
         21   -1    0    0  501  502  0.00000000000E+00  0.00000000000E+00  0.50965050354E+03  0.50965050354E+03  0.00000000000E+00 0.  1.
         21   -1    0    0  502  503 -0.00000000000E+00 -0.00000000000E+00 -0.32451653406E+03  0.32451653406E+03  0.00000000000E+00 0. -1.
         -6    2    1    2    0  503  0.24505359194E+02  0.29938222658E+03 -0.12506348201E+03  0.36832301796E+03  0.17259994438E+03 0.  0.
        -24    2    3    3    0    0 -0.82712952145E+01  0.23056389369E+03 -0.37360955638E+02  0.25202987478E+03  0.94313802700E+02 0.  0.
          6    2    1    2  501    0 -0.24505359194E+02 -0.29938222658E+03  0.31019745150E+03  0.46584401965E+03  0.17480835651E+03 0.  0.
         24    2    5    5    0    0 -0.54318956639E+02 -0.19796627437E+03  0.27818278551E+03  0.35529504953E+03  0.81900642434E+02 0.  0.
          5    1    5    5  501    0  0.29813597445E+02 -0.10141595221E+03  0.32014665990E+02  0.11054897012E+03  0.47000000000E+01 0. -1.
        -13    1    6    6    0    0 -0.45750020231E+02 -0.75850761156E+02  0.66498208967E+02  0.11076287336E+03  0.00000000000E+00 0.  1.
         14    1    6    6    0    0 -0.85689364083E+01 -0.12211551322E+03  0.21168457654E+03  0.24453217617E+03  0.00000000000E+00 0. -1.
         -5    1    3    3    0  503  0.32776654409E+02  0.68818332894E+02 -0.87702526376E+02  0.11629314317E+03  0.47000000000E+01 0.  1.
         11    1    4    4    0    0 -0.57642633355E+01  0.15116129756E+03 -0.69323065465E+02  0.16639907457E+03  0.00000000000E+00 0. -1.
        -12    1    4    4    0    0 -0.25070318790E+01  0.79402596121E+02  0.31962109827E+02  0.85630800208E+02  0.00000000000E+00 0.  1.
</event>
<event>
12    1  0.8451514E-002  0.1996789E+03  0.7818608E-02  0.1150022E+00
         21   -1    0    0  503  502  0.00000000000E+00  0.00000000000E+00  0.46219673834E+03  0.46219673834E+03  0.00000000000E+00 0. -1.
         21   -1    0    0  501  503 -0.00000000000E+00 -0.00000000000E+00 -0.11680153941E+03  0.11680153941E+03  0.00000000000E+00 0. -1.
          6    2    1    2  501    0  0.98483345035E+02  0.15465328349E+02  0.24597913068E+02  0.20113249185E+03  0.17294818970E+03 0.  0.
         24    2    3    3    0    0  0.33577420094E+02 -0.41527970575E+02  0.58663001462E+02  0.10816187573E+03  0.73522976959E+02 0.  0.
         -6    2    1    2    0  502 -0.98483345035E+02 -0.15465328349E+02  0.32079728587E+03  0.37786578590E+03  0.17301302814E+03 0.  0.
        -24    2    5    5    0    0 -0.64128885283E+02 -0.21113594624E+02  0.32571544606E+03  0.34239170922E+03  0.81137124262E+02 0.  0.
          5    1    3    3  501    0  0.64905924941E+02  0.56993298925E+02 -0.34065088394E+02  0.92970616122E+02  0.47000000000E+01 0. -1.
        -13    1    4    4    0    0 -0.22045181762E+02 -0.26827445242E+01  0.21000940188E+02  0.30565121395E+02  0.00000000000E+00 0.  1.
         14    1    4    4    0    0  0.55622601856E+02 -0.38845226051E+02  0.37662061274E+02  0.77596754337E+02  0.00000000000E+00 0. -1.
         -5    1    5    5    0  502 -0.34354459752E+02  0.56482662743E+01 -0.49181601951E+01  0.35474076683E+02  0.47000000000E+01 0.  1.
         13    1    6    6    0    0  0.19047188725E+02 -0.81065871905E+01  0.80862312116E+02  0.83469908799E+02  0.00000000000E+00 0. -1.
        -14    1    6    6    0    0 -0.83176074008E+02 -0.13007007433E+02  0.24485313394E+03  0.25892180042E+03  0.00000000000E+00 0.  1.
</event>
<event>
12    1  0.8451514E-002  0.1846227E+03  0.7818608E-02  0.1163508E+00
         21   -1    0    0  503  502  0.00000000000E+00  0.00000000000E+00  0.63807166876E+03  0.63807166876E+03  0.00000000000E+00 0.  1.
         21   -1    0    0  501  503 -0.00000000000E+00 -0.00000000000E+00 -0.60139152788E+02  0.60139152788E+02  0.00000000000E+00 0. -1.
          6    2    1    2  501    0  0.59040559809E+02 -0.30618923997E+02  0.40709654161E+03  0.44700463341E+03  0.17222729716E+03 0.  0.
         24    2    3    3    0    0  0.88525851567E+01  0.31793980473E+01  0.70794280499E+02  0.10527014553E+03  0.77340135464E+02 0.  0.
         -6    2    1    2    0  502 -0.59040559809E+02  0.30618923997E+02  0.17083597436E+03  0.25120618814E+03  0.17174490564E+03 0.  0.
        -24    2    5    5    0    0 -0.34060381580E+02  0.36064290043E+02  0.19399908610E+03  0.21638836136E+03  0.82021551546E+02 0.  0.
          5    1    3    3  501    0  0.50187974652E+02 -0.33798322044E+02  0.33630226111E+03  0.34173448787E+03  0.47000000000E+01 0. -1.
        -11    1    4    4    0    0  0.53579719994E+01 -0.31540248756E+02  0.61236458729E+02  0.69089789645E+02  0.00000000000E+00 0.  1.
         12    1    4    4    0    0  0.34946131573E+01  0.34719646803E+02  0.95578217697E+01  0.36180355889E+02  0.00000000000E+00 0. -1.
         -5    1    5    5    0  502 -0.24980178229E+02 -0.54453660454E+01 -0.23163111740E+02  0.34817826773E+02  0.47000000000E+01 0.  1.
         13    1    6    6    0    0  0.59649872578E+01  0.16080529121E+02 -0.14981366379E+00  0.17151878437E+02  0.00000000000E+00 0. -1.
        -14    1    6    6    0    0 -0.40025368838E+02  0.19983760922E+02  0.19414889976E+03  0.19923648293E+03  0.00000000000E+00 0.  1.
</event>
<event>
12    1  0.8451514E-002  0.1758347E+03  0.7818608E-02  0.1172274E+00
         21   -1    0    0  503  502  0.00000000000E+00  0.00000000000E+00  0.23744830452E+03  0.23744830452E+03  0.00000000000E+00 0. -1.
         21   -1    0    0  501  503 -0.00000000000E+00 -0.00000000000E+00 -0.16114152137E+03  0.16114152137E+03  0.00000000000E+00 0. -1.
          6    2    1    2  501    0  0.20257980500E+02 -0.13213489829E+02 -0.50851314943E+02  0.18159440316E+03  0.17264324181E+03 0.  0.
         24    2    3    3    0    0 -0.38316519631E+02 -0.51158418864E+02 -0.44922564543E+02  0.11139447591E+03  0.79406252657E+02 0.  0.
         -6    2    1    2    0  502 -0.20257980500E+02  0.13213489829E+02  0.12715809810E+03  0.21699542273E+03  0.17416328398E+03 0.  0.
        -24    2    5    5    0    0  0.16332744049E+02  0.44518547518E+01 -0.28289515528E+00  0.84033232112E+02  0.82309941870E+02 0.  0.
          5    1    3    3  501    0  0.58574500131E+02  0.37944929035E+02 -0.59287503995E+01  0.70199927253E+02  0.47000000000E+01 0. -1.
        -13    1    4    4    0    0  0.11812263578E+02 -0.37005683363E+02 -0.44813551930E+02  0.59306025062E+02  0.00000000000E+00 0.  1.
         14    1    4    4    0    0 -0.50128783208E+02 -0.14152735501E+02 -0.10901261310E+00  0.52088450849E+02  0.00000000000E+00 0. -1.
         -5    1    5    5    0  502 -0.36590724549E+02  0.87616350769E+01  0.12744099325E+03  0.13296219062E+03  0.47000000000E+01 0.  1.
         11    1    6    6    0    0 -0.24257916785E+02 -0.24042884116E+02 -0.35125707681E+01  0.34334311654E+02  0.00000000000E+00 0. -1.
        -12    1    6    6    0    0  0.40590660834E+02  0.28494738868E+02  0.32296756128E+01  0.49698920458E+02  0.00000000000E+00 0.  1.
</event>
<event>
12    1  0.8451514E-002  0.4748714E+03  0.7818608E-02  0.1020577E+00
         21   -1    0    0  503  502  0.00000000000E+00  0.00000000000E+00  0.13712324365E+04  0.13712324365E+04  0.00000000000E+00 0.  1.
         21   -1    0    0  501  503 -0.00000000000E+00 -0.00000000000E+00 -0.16671052617E+03  0.16671052617E+03  0.00000000000E+00 0. -1.
          6    2    1    2  501    0  0.22550349415E+03 -0.38057966315E+03  0.51078267724E+03  0.69742513550E+03  0.17265622021E+03 0.  0.
         24    2    3    3    0    0  0.16113952799E+03 -0.36326277470E+03  0.46373613915E+03  0.61570572831E+03  0.78208350907E+02 0.  0.
         -6    2    1    2    0  502 -0.22550349415E+03  0.38057966315E+03  0.69373923313E+03  0.84051782722E+03  0.17176550411E+03 0.  0.
        -24    2    5    5    0    0 -0.34335423997E+02  0.90112074752E+02  0.21819220176E+03  0.25137971098E+03  0.79276824013E+02 0.  0.
          5    1    3    3  501    0  0.64363966159E+02 -0.17316888450E+02  0.47046538089E+02  0.81719407190E+02  0.47000000000E+01 0. -1.
        -13    1    4    4    0    0  0.60343774926E+02 -0.63744079176E+02  0.12132605431E+03  0.14974875711E+03  0.00000000000E+00 0.  1.
         14    1    4    4    0    0  0.10079575307E+03 -0.29951869552E+03  0.34241008484E+03  0.46595697120E+03  0.00000000000E+00 0. -1.
         -5    1    5    5    0  502 -0.19116807015E+03  0.29046758840E+03  0.47554703138E+03  0.58913811624E+03  0.47000000000E+01 0.  1.
         11    1    6    6    0    0 -0.37094057703E+02  0.39818116127E+02  0.18034232790E+03  0.18837411373E+03  0.00000000000E+00 0. -1.
        -12    1    6    6    0    0  0.27586337054E+01  0.50293958625E+02  0.37849873857E+02  0.63005597252E+02  0.00000000000E+00 0.  1.
</event>
<event>
12    1  0.8451514E-002  0.1999772E+03  0.7818608E-02  0.1150884E+00
         21   -1    0    0  503  502  0.00000000000E+00  0.00000000000E+00  0.51656683072E+03  0.51656683072E+03  0.00000000000E+00 0. -1.
         21   -1    0    0  501  503 -0.00000000000E+00 -0.00000000000E+00 -0.83850782596E+02  0.83850782596E+02  0.00000000000E+00 0. -1.
          6    2    1    2  501    0 -0.68928568835E+02 -0.55833790416E+02  0.11842554398E+03  0.22789994647E+03  0.17333556005E+03 0.  0.
         24    2    3    3    0    0 -0.21311461356E+00 -0.46420955564E+02  0.27894999793E+01  0.92977006309E+02  0.80510818272E+02 0.  0.
         -6    2    1    2    0  502  0.68928568835E+02  0.55833790416E+02  0.31429050414E+03  0.37251766685E+03  0.17922703860E+03 0.  0.
        -24    2    5    5    0    0  0.93086235003E+02  0.27497911154E+02  0.31119180155E+03  0.33485857968E+03  0.76607759211E+02 0.  0.
          5    1    3    3  501    0 -0.68715454222E+02 -0.94128348528E+01  0.11563604400E+03  0.13492294016E+03  0.47000000000E+01 0. -1.
        -11    1    4    4    0    0 -0.10954100253E+02 -0.19312357434E+02 -0.37298060214E+02  0.43406275557E+02  0.00000000000E+00 0.  1.
         12    1    4    4    0    0  0.10740985640E+02 -0.27108598129E+02  0.40087560193E+02  0.49570730752E+02  0.00000000000E+00 0. -1.
         -5    1    5    5    0  502 -0.24157666168E+02  0.28335879262E+02  0.30987025944E+01  0.37659087164E+02  0.47000000000E+01 0.  1.
         13    1    6    6    0    0  0.73878116998E+02  0.51459087183E+02  0.26016703396E+03  0.27530510236E+03  0.00000000000E+00 0. -1.
        -14    1    6    6    0    0  0.19208118005E+02 -0.23961176029E+02  0.51024767588E+02  0.59553477324E+02  0.00000000000E+00 0.  1.
</event>
<event>
12    1  0.8451514E-002  0.1955588E+03  0.7818608E-02  0.1153634E+00
         21   -1    0    0  503  502  0.00000000000E+00  0.00000000000E+00  0.30820415175E+03  0.30820415175E+03  0.00000000000E+00 0. -1.
         21   -1    0    0  501  503 -0.00000000000E+00 -0.00000000000E+00 -0.24886828528E+03  0.24886828528E+03  0.00000000000E+00 0. -1.
          6    2    1    2  501    0 -0.81292051994E+02 -0.45668570814E+02 -0.16776217378E+03  0.25765750765E+03  0.17189888952E+03 0.  0.
         24    2    3    3    0    0  0.12181392606E+02 -0.88599363250E+01 -0.38258587919E+02  0.93689738956E+02  0.84185288730E+02 0.  0.
         -6    2    1    2    0  502  0.81292051994E+02  0.45668570814E+02  0.22709804025E+03  0.29941492938E+03  0.17141109641E+03 0.  0.
        -24    2    5    5    0    0  0.77749803588E+02  0.87266786731E+02  0.12197613475E+03  0.18620863932E+03  0.78325959211E+02 0.  0.
          5    1    3    3  501    0 -0.93473444600E+02 -0.36808634489E+02 -0.12950358586E+03  0.16396776869E+03  0.47000000000E+01 0. -1.
        -11    1    4    4    0    0  0.10203509833E+02 -0.42455601725E+02 -0.41036453592E+02  0.59921450701E+02  0.00000000000E+00 0.  1.
         12    1    4    4    0    0  0.19778827731E+01  0.33595665400E+02  0.27778656730E+01  0.33768288255E+02  0.00000000000E+00 0. -1.
         -5    1    5    5    0  502  0.35422484058E+01 -0.41598215917E+02  0.10512190550E+03  0.11320629006E+03  0.47000000000E+01 0.  1.
         11    1    6    6    0    0 -0.90220307128E+01  0.36040981768E+02  0.50383236274E+02  0.62600478452E+02  0.00000000000E+00 0. -1.
        -12    1    6    6    0    0  0.86771834301E+02  0.51225804963E+02  0.71592898473E+02  0.12360816087E+03  0.00000000000E+00 0.  1.
</event>
<event>
12    1  0.8451514E-002  0.2254760E+03  0.7818608E-02  0.1129894E+00
         21   -1    0    0  503  502  0.00000000000E+00  0.00000000000E+00  0.55011287498E+02  0.55011287498E+02  0.00000000000E+00 0.  1.
         21   -1    0    0  501  503 -0.00000000000E+00 -0.00000000000E+00 -0.14012748575E+04  0.14012748575E+04  0.00000000000E+00 0.  1.
          6    2    1    2  501    0 -0.14477644501E+03  0.14754824919E+02 -0.10981449957E+04  0.11210216945E+04  0.17201535976E+03 0.  0.
         24    2    3    3    0    0 -0.11070118682E+03 -0.86239323467E+01 -0.10435958372E+04  0.10524258476E+04  0.78605142098E+02 0.  0.
         -6    2    1    2    0  502  0.14477644501E+03 -0.14754824919E+02 -0.24811857425E+03  0.33526445048E+03  0.17222514620E+03 0.  0.
        -24    2    5    5    0    0  0.12141601513E+03  0.52003132961E+02 -0.17347805359E+03  0.23232936439E+03  0.80225456760E+02 0.  0.
          5    1    3    3  501    0 -0.34075258183E+02  0.23378757266E+02 -0.54549158555E+02  0.68595846890E+02  0.47000000000E+01 0. -1.
        -13    1    4    4    0    0 -0.55800778708E+01 -0.19564632547E+02 -0.37282651260E+03  0.37338120014E+03  0.00000000000E+00 0.  1.
         14    1    4    4    0    0 -0.10512110895E+03  0.10940700200E+02 -0.67076932459E+03  0.67904464748E+03  0.00000000000E+00 0. -1.
         -5    1    5    5    0  502  0.23360429873E+02 -0.66757957880E+02 -0.74640520657E+02  0.10293508609E+03  0.47000000000E+01 0.  1.
         11    1    6    6    0    0  0.10639481122E+03  0.14833342053E+02 -0.15397988332E+03  0.18774900362E+03  0.00000000000E+00 0. -1.
        -12    1    6    6    0    0  0.15021203910E+02  0.37169790908E+02 -0.19498170275E+02  0.44580360778E+02  0.00000000000E+00 0.  1.
</event>
<event>
12    1  0.8451514E-002  0.1809631E+03  0.7818608E-02  0.1166939E+00
         21   -1    0    0  501  502  0.00000000000E+00  0.00000000000E+00  0.21789572057E+03  0.21789572057E+03  0.00000000000E+00 0.  1.
         21   -1    0    0  502  503 -0.00000000000E+00 -0.00000000000E+00 -0.15644472020E+03  0.15644472020E+03  0.00000000000E+00 0.  1.
         -6    2    1    2    0  503  0.48475080136E+02  0.22702870775E+02 -0.70455849762E+01  0.18110015838E+03  0.17286518840E+03 0.  0.
        -24    2    3    3    0    0 -0.19507004925E+02 -0.25039249775E+02 -0.36899625979E+02  0.92702037766E+02  0.78896122453E+02 0.  0.
          6    2    1    2  501    0 -0.48475080136E+02 -0.22702870775E+02  0.68496585343E+02  0.19324028239E+03  0.17258264919E+03 0.  0.
         24    2    5    5    0    0 -0.82263729775E+02  0.24451208837E+02  0.26122849985E+02  0.12124859179E+03  0.81569815918E+02 0.  0.
          5    1    5    5  501    0  0.33788649638E+02 -0.47154079612E+02  0.42373735358E+02  0.71991690608E+02  0.47000000000E+01 0. -1.
        -13    1    6    6    0    0 -0.16066961095E+02 -0.47806569318E+01  0.43679349901E+02  0.46785548274E+02  0.00000000000E+00 0.  1.
         14    1    6    6    0    0 -0.66196768679E+02  0.29231865769E+02 -0.17556499916E+02  0.74463043513E+02  0.00000000000E+00 0. -1.
         -5    1    3    3    0  503  0.67982085061E+02  0.47742120550E+02  0.29854041003E+02  0.88398120614E+02  0.47000000000E+01 0.  1.
         13    1    4    4    0    0 -0.19366083200E+02 -0.36814033853E+01  0.22302067983E+02  0.29765418622E+02  0.00000000000E+00 0. -1.
        -14    1    4    4    0    0 -0.14092172557E+00 -0.21357846389E+02 -0.59201693962E+02  0.62936619144E+02  0.00000000000E+00 0.  1.
</event>
<event>
12    1  0.8451514E-002  0.2483774E+03  0.7818608E-02  0.1114598E+00
         21   -1    0    0  501  502  0.00000000000E+00  0.00000000000E+00  0.13634883989E+03  0.13634883989E+03  0.00000000000E+00 0. -1.
         21   -1    0    0  502  503 -0.00000000000E+00 -0.00000000000E+00 -0.45574444681E+03  0.45574444681E+03  0.00000000000E+00 0. -1.
         -6    2    1    2    0  503  0.14785429383E+02  0.17613443061E+03 -0.19395191349E+03  0.31383537116E+03  0.17214339626E+03 0.  0.
        -24    2    3    3    0    0 -0.54807529110E+01  0.13084697754E+03 -0.50164236448E+02  0.16165568257E+03  0.80406087486E+02 0.  0.
          6    2    1    2  501    0 -0.14785429383E+02 -0.17613443061E+03 -0.12544369343E+03  0.27825791554E+03  0.17449756667E+03 0.  0.
         24    2    5    5    0    0  0.56682057627E+02 -0.12702465903E+03 -0.96339437171E+02  0.18666905652E+03  0.78841168504E+02 0.  0.
          5    1    5    5  501    0 -0.71467487010E+02 -0.49109771582E+02 -0.29104256258E+02  0.91588859020E+02  0.47000000000E+01 0. -1.
        -13    1    6    6    0    0  0.24063304678E+02 -0.86640359491E+01  0.66423580426E+01  0.26424024510E+02  0.00000000000E+00 0.  1.
         14    1    6    6    0    0  0.32618752949E+02 -0.11836062308E+03 -0.10298179521E+03  0.16024503201E+03  0.00000000000E+00 0. -1.
         -5    1    3    3    0  503  0.20266182294E+02  0.45287453072E+02 -0.14378767704E+03  0.15217968859E+03  0.47000000000E+01 0.  1.
         13    1    4    4    0    0 -0.17105194959E+02  0.10103278747E+03 -0.69916299410E+02  0.12405039605E+03  0.00000000000E+00 0. -1.
        -14    1    4    4    0    0  0.11624442048E+02  0.29814190072E+02  0.19752062962E+02  0.37605286515E+02  0.00000000000E+00 0.  1.
</event>
<event>
12    1  0.8451514E-002  0.1914050E+03  0.7818608E-02  0.1158811E+00
         21   -1    0    0  501  502  0.00000000000E+00  0.00000000000E+00  0.74547125482E+03  0.74547125482E+03  0.00000000000E+00 0. -1.
         21   -1    0    0  502  503 -0.00000000000E+00 -0.00000000000E+00 -0.59127385498E+02  0.59127385498E+02  0.00000000000E+00 0. -1.
         -6    2    1    2    0  503  0.37246027038E+02  0.70764828296E+02  0.16879398909E+03  0.25520046541E+03  0.17389922180E+03 0.  0.
        -24    2    3    3    0    0  0.86846922384E+02  0.24457883297E+02  0.84058399593E+02  0.14654140182E+03  0.79170650638E+02 0.  0.
          6    2    1    2  501    0 -0.37246027038E+02 -0.70764828296E+02  0.51754988023E+03  0.54939817490E+03  0.16608897797E+03 0.  0.
         24    2    5    5    0    0 -0.28384749978E+01  0.15744142214E+02  0.15596955150E+03  0.17599476605E+03  0.79948244054E+02 0.  0.
          5    1    5    5  501    0 -0.34407552040E+02 -0.86508970510E+02  0.36158032874E+03  0.37340340886E+03  0.47000000000E+01 0. -1.
        -11    1    6    6    0    0  0.36639483144E+02  0.67836324772E+00  0.94920111474E+02  0.10174841259E+03  0.00000000000E+00 0.  1.
         12    1    6    6    0    0 -0.39477958142E+02  0.15065778967E+02  0.61049440021E+02  0.74246353458E+02  0.00000000000E+00 0. -1.
         -5    1    3    3    0  503 -0.49600895346E+02  0.46306944998E+02  0.84735589494E+02  0.10865906359E+03  0.47000000000E+01 0.  1.
         13    1    4    4    0    0  0.67996759331E+02  0.35104133071E+02  0.20245740576E+02  0.79156487098E+02  0.00000000000E+00 0. -1.
        -14    1    4    4    0    0  0.18850163052E+02 -0.10646249774E+02  0.63812659016E+02  0.67384914722E+02  0.00000000000E+00 0.  1.
</event>
<event>
12    1  0.8451514E-002  0.2093545E+03  0.7818608E-02  0.1142621E+00
         21   -1    0    0  501  502  0.00000000000E+00  0.00000000000E+00  0.15141844128E+04  0.15141844128E+04  0.00000000000E+00 0.  1.
         21   -1    0    0  502  503 -0.00000000000E+00 -0.00000000000E+00 -0.28579403771E+02  0.28579403771E+02  0.00000000000E+00 0.  1.
         -6    2    1    2    0  503 -0.98167122529E+02 -0.69960304051E+02  0.75047042990E+03  0.77839992154E+03  0.16783725336E+03 0.  0.
        -24    2    3    3    0    0 -0.19440792964E+02 -0.42670765706E+02  0.19128728077E+03  0.21302355297E+03  0.81175560723E+02 0.  0.
          6    2    1    2  501    0  0.98167122529E+02  0.69960304051E+02  0.73513457910E+03  0.76436389500E+03  0.17116683820E+03 0.  0.
         24    2    5    5    0    0  0.74311860502E+02  0.11164045613E+03  0.62762174085E+03  0.64651904363E+03  0.78051137984E+02 0.  0.
          5    1    5    5  501    0  0.23855262027E+02 -0.41680152081E+02  0.10751283825E+03  0.11784485136E+03  0.47000000000E+01 0. -1.
        -11    1    6    6    0    0  0.40346566595E+02  0.74991192566E+02  0.22099973939E+03  0.23683836093E+03  0.00000000000E+00 0.  1.
         12    1    6    6    0    0  0.33965293907E+02  0.36649263566E+02  0.40662200146E+03  0.40968068270E+03  0.00000000000E+00 0. -1.
         -5    1    3    3    0  503 -0.78726329565E+02 -0.27289538344E+02  0.55918314913E+03  0.56537636858E+03  0.47000000000E+01 0.  1.
         13    1    4    4    0    0  0.24256652566E+02 -0.17552033094E+01  0.19713264465E+02  0.31306209100E+02  0.00000000000E+00 0. -1.
        -14    1    4    4    0    0 -0.43697445530E+02 -0.40915562397E+02  0.17157401630E+03  0.18171734387E+03  0.00000000000E+00 0.  1.
</event>
<event>
12    1  0.8451514E-002  0.1932811E+03  0.7818608E-02  0.1155640E+00
         21   -1    0    0  501  502  0.00000000000E+00  0.00000000000E+00  0.40344704082E+02  0.40344704082E+02  0.00000000000E+00 0.  1.
         21   -1    0    0  502  503 -0.00000000000E+00 -0.00000000000E+00 -0.96847231598E+03  0.96847231598E+03  0.00000000000E+00 0.  1.
         -6    2    1    2    0  503 -0.17766447965E+02 -0.84810352429E+02 -0.35614120311E+03  0.40520876725E+03  0.17276905380E+03 0.  0.
        -24    2    3    3    0    0  0.32459204586E+02 -0.10887115149E+03 -0.24455080082E+03  0.28040473643E+03  0.76910301278E+02 0.  0.
          6    2    1    2  501    0  0.17766447965E+02  0.84810352429E+02 -0.57198640879E+03  0.60360825281E+03  0.17223828980E+03 0.  0.
         24    2    5    5    0    0 -0.42695700906E+02  0.57175536364E+02 -0.19837049945E+03  0.22409502220E+03  0.75998415017E+02 0.  0.
          5    1    5    5  501    0  0.60462148871E+02  0.27634816066E+02 -0.37361590934E+03  0.37951323062E+03  0.47000000000E+01 0. -1.
        -13    1    6    6    0    0  0.74271595624E+01  0.20281939466E+02 -0.67628965219E+01  0.22633085009E+02  0.00000000000E+00 0.  1.
         14    1    6    6    0    0 -0.50122860469E+02  0.36893596898E+02 -0.19160760293E+03  0.20146193719E+03  0.00000000000E+00 0. -1.
         -5    1    3    3    0  503 -0.50225652551E+02  0.24060799059E+02 -0.11159040229E+03  0.12480403082E+03  0.47000000000E+01 0.  1.
         13    1    4    4    0    0  0.32545990852E+02 -0.83582854464E+01 -0.38199169310E+02  0.50875131372E+02  0.00000000000E+00 0. -1.
        -14    1    4    4    0    0 -0.86786266085E-01 -0.10051286604E+03 -0.20635163151E+03  0.22952960506E+03  0.00000000000E+00 0.  1.
</event>
<event>
12    1  0.8451514E-002  0.1865730E+03  0.7818608E-02  0.1161838E+00
         21   -1    0    0  503  502  0.00000000000E+00  0.00000000000E+00  0.20128416970E+03  0.20128416970E+03  0.00000000000E+00 0. -1.
         21   -1    0    0  501  503 -0.00000000000E+00 -0.00000000000E+00 -0.37815468447E+03  0.37815468447E+03  0.00000000000E+00 0. -1.
          6    2    1    2  501    0  0.64425369198E+02  0.25113926095E+02 -0.30249429582E+03  0.35540439756E+03  0.17328632180E+03 0.  0.
         24    2    3    3    0    0  0.52119526033E+02 -0.42466077008E+02 -0.11300704133E+03  0.15379586548E+03  0.79766936491E+02 0.  0.
         -6    2    1    2    0  502 -0.64425369198E+02 -0.25113926095E+02  0.12562378105E+03  0.22403445660E+03  0.17213008424E+03 0.  0.
        -24    2    5    5    0    0 -0.43872976986E+02 -0.39238521484E+02  0.15538760908E+03  0.18492077001E+03  0.81153449997E+02 0.  0.
          5    1    3    3  501    0  0.12305843165E+02  0.67580003103E+02 -0.18948725449E+03  0.20160853209E+03  0.47000000000E+01 0. -1.
        -11    1    4    4    0    0 -0.21007725515E+02 -0.51875444765E+01 -0.17242131170E+02  0.27668144793E+02  0.00000000000E+00 0.  1.
         12    1    4    4    0    0  0.73127251548E+02 -0.37278532531E+02 -0.95764910159E+02  0.12612772068E+03  0.00000000000E+00 0. -1.
         -5    1    5    5    0  502 -0.20552392211E+02  0.14124595389E+02 -0.29763828028E+02  0.39113686599E+02  0.47000000000E+01 0.  1.
         11    1    6    6    0    0 -0.27246065086E+02  0.21462497730E+02  0.36184108753E+02  0.50122615631E+02  0.00000000000E+00 0. -1.
        -12    1    6    6    0    0 -0.16626911901E+02 -0.60701019214E+02  0.11920350033E+03  0.13479815437E+03  0.00000000000E+00 0.  1.
</event>
<event>
12    1  0.8451514E-002  0.1956129E+03  0.7818608E-02  0.1153635E+00
         21   -1    0    0  501  502  0.00000000000E+00  0.00000000000E+00  0.94830520412E+03  0.94830520412E+03  0.00000000000E+00 0.  1.
         21   -1    0    0  502  503 -0.00000000000E+00 -0.00000000000E+00 -0.41054207424E+02  0.41054207424E+02  0.00000000000E+00 0.  1.
         -6    2    1    2    0  503 -0.91691806634E+02 -0.76463126016E+01  0.38369938841E+03  0.43068506763E+03  0.17262257477E+03 0.  0.
        -24    2    3    3    0    0 -0.83697692294E+02  0.29412669895E+02  0.14379898915E+03  0.18776210533E+03  0.81890476087E+02 0.  0.
          6    2    1    2  501    0  0.91691806634E+02  0.76463126016E+01  0.52355160829E+03  0.55867434391E+03  0.17188624873E+03 0.  0.
         24    2    5    5    0    0  0.83204570205E+02  0.62116112398E+02  0.24951160160E+03  0.27910501881E+03  0.69729192368E+02 0.  0.
          5    1    5    5  501    0  0.84872364292E+01 -0.54469799797E+02  0.27404000668E+03  0.27956932510E+03  0.47000000000E+01 0. -1.
        -11    1    6    6    0    0  0.33042680990E+02  0.20064337618E+02  0.26967671449E+02  0.47134400542E+02  0.00000000000E+00 0.  1.
         12    1    6    6    0    0  0.50161889215E+02  0.42051774781E+02  0.22254393015E+03  0.23197061827E+03  0.00000000000E+00 0. -1.
         -5    1    3    3    0  503 -0.79941143402E+01 -0.37058982497E+02  0.23990039926E+03  0.24292296230E+03  0.47000000000E+01 0.  1.
         13    1    4    4    0    0 -0.29336279561E+02  0.21705822794E+02  0.29762090868E+01  0.36614448817E+02  0.00000000000E+00 0. -1.
        -14    1    4    4    0    0 -0.54361412734E+02  0.77068471016E+01  0.14082278006E+03  0.15114765652E+03  0.00000000000E+00 0.  1.
</event>
<event>
12    1  0.8451514E-002  0.2064962E+03  0.7818608E-02  0.1144501E+00
         21   -1    0    0  501  502  0.00000000000E+00  0.00000000000E+00  0.49984660162E+03  0.49984660162E+03  0.00000000000E+00 0.  1.
         21   -1    0    0  502  503 -0.00000000000E+00 -0.00000000000E+00 -0.11586100443E+03  0.11586100443E+03  0.00000000000E+00 0.  1.
         -6    2    1    2    0  503  0.10040484564E+03  0.92970656051E+01  0.33438186318E+02  0.20918601604E+03  0.18020296487E+03 0.  0.
        -24    2    3    3    0    0  0.19962692408E+02  0.19783823553E+02 -0.45380240615E+02  0.95981128638E+02  0.79769054488E+02 0.  0.
          6    2    1    2  501    0 -0.10040484564E+03 -0.92970656051E+01  0.35054741087E+03  0.40652159001E+03  0.17946795653E+03 0.  0.
         24    2    5    5    0    0 -0.51876900839E+02  0.49623117451E+02  0.28934569726E+03  0.30857114771E+03  0.79633875017E+02 0.  0.
          5    1    5    5  501    0 -0.48527944796E+02 -0.58920183056E+02  0.61201713606E+02  0.97950442295E+02  0.47000000000E+01 0. -1.
        -13    1    6    6    0    0 -0.32720876862E+02  0.53217457771E+02  0.97889175010E+02  0.11612512294E+03  0.00000000000E+00 0.  1.
         14    1    6    6    0    0 -0.19156023978E+02 -0.35943403202E+01  0.19145652225E+03  0.19244602477E+03  0.00000000000E+00 0. -1.
         -5    1    3    3    0  503  0.80442153227E+02 -0.10486757948E+02  0.78818426933E+02  0.11320488740E+03  0.47000000000E+01 0.  1.
         13    1    4    4    0    0 -0.23118343494E+02 -0.69005679180E-01  0.80988514605E+01  0.24495998911E+02  0.00000000000E+00 0. -1.
        -14    1    4    4    0    0  0.43081035902E+02  0.19852829233E+02 -0.53479092076E+02  0.71485129727E+02  0.00000000000E+00 0.  1.
</event>
<event>
12    1  0.8451514E-002  0.2303311E+03  0.7818608E-02  0.1126430E+00
         21   -1    0    0  501  502  0.00000000000E+00  0.00000000000E+00  0.62445950953E+03  0.62445950953E+03  0.00000000000E+00 0. -1.
         21   -1    0    0  502  503 -0.00000000000E+00 -0.00000000000E+00 -0.11811360193E+03  0.11811360193E+03  0.00000000000E+00 0. -1.
         -6    2    1    2    0  503 -0.14823413759E+03  0.34948476284E+02  0.56264456768E+02  0.23697866565E+03  0.17262225620E+03 0.  0.
        -24    2    3    3    0    0 -0.27576056202E+02 -0.11816291666E+02  0.65703087590E+02  0.10714610472E+03  0.79141192901E+02 0.  0.
          6    2    1    2  501    0  0.14823413759E+03 -0.34948476284E+02  0.45008145083E+03  0.50559444581E+03  0.17279373750E+03 0.  0.
         24    2    5    5    0    0  0.27908288376E+02 -0.42033455409E+02  0.28917706022E+03  0.30449541589E+03  0.80922198506E+02 0.  0.
          5    1    5    5  501    0  0.12032584921E+03  0.70849791244E+01  0.16090439061E+03  0.20109902992E+03  0.47000000000E+01 0. -1.
        -13    1    6    6    0    0 -0.43311336566E+01 -0.18478297234E+02  0.81649406297E+01  0.20660891629E+02  0.00000000000E+00 0.  1.
         14    1    6    6    0    0  0.32239422033E+02 -0.23555158174E+02  0.28101211959E+03  0.28383452426E+03  0.00000000000E+00 0. -1.
         -5    1    3    3    0  503 -0.12065808138E+03  0.46764767951E+02 -0.94386308219E+01  0.12983256093E+03  0.47000000000E+01 0.  1.
         13    1    4    4    0    0 -0.53207754391E+02 -0.89312356372E+01  0.26223881626E+02  0.59987699280E+02  0.00000000000E+00 0. -1.
        -14    1    4    4    0    0  0.25631698188E+02 -0.28850560292E+01  0.39479205964E+02  0.47158405442E+02  0.00000000000E+00 0.  1.
</event>
<event>
12    1  0.8451514E-002  0.2172256E+03  0.7818608E-02  0.1136199E+00
         21   -1    0    0  503  502  0.00000000000E+00  0.00000000000E+00  0.30887005467E+03  0.30887005467E+03  0.00000000000E+00 0. -1.
         21   -1    0    0  501  503 -0.00000000000E+00 -0.00000000000E+00 -0.17438620921E+03  0.17438620921E+03  0.00000000000E+00 0.  1.
          6    2    1    2  501    0  0.12875679095E+03  0.27649840403E+02  0.15380548028E+03  0.26517306878E+03  0.17122443095E+03 0.  0.
         24    2    3    3    0    0  0.11058021258E+03  0.24387274587E+02  0.32864947953E+02  0.14274049675E+03  0.80448878371E+02 0.  0.
         -6    2    1    2    0  502 -0.12875679095E+03 -0.27649840403E+02 -0.19321634814E+02  0.21808319510E+03  0.17275453547E+03 0.  0.
        -24    2    5    5    0    0 -0.69538538604E+00 -0.25024292827E+02 -0.23232798637E+02  0.89849017533E+02  0.83104658273E+02 0.  0.
          5    1    3    3  501    0  0.18176578367E+02  0.32625658165E+01  0.12094053232E+03  0.12243257204E+03  0.47000000000E+01 0. -1.
        -11    1    4    4    0    0  0.57497844464E+02 -0.23427990556E+02 -0.42489958653E+01  0.62232843623E+02  0.00000000000E+00 0.  1.
         12    1    4    4    0    0  0.53082368116E+02  0.47815265143E+02  0.37113943819E+02  0.80507653123E+02  0.00000000000E+00 0. -1.
         -5    1    5    5    0  502 -0.12806140556E+03 -0.26255475763E+01  0.39111638237E+01  0.12823417757E+03  0.47000000000E+01 0.  1.
         11    1    6    6    0    0  0.26559004525E+02  0.70978998115E+01  0.16398629805E+02  0.32010560173E+02  0.00000000000E+00 0. -1.
        -12    1    6    6    0    0 -0.27254389911E+02 -0.32122192639E+02 -0.39631428442E+02  0.57838457360E+02  0.00000000000E+00 0.  1.
</event>
<event>
12    1  0.8451514E-002  0.2709119E+03  0.7818608E-02  0.1101459E+00
         21   -1    0    0  501  502  0.00000000000E+00  0.00000000000E+00  0.55276035532E+02  0.55276035532E+02  0.00000000000E+00 0.  1.
         21   -1    0    0  502  503 -0.00000000000E+00 -0.00000000000E+00 -0.14028318438E+04  0.14028318438E+04  0.00000000000E+00 0. -1.
         -6    2    1    2    0  503  0.20381991786E+03 -0.47518868241E+02 -0.48595156731E+03  0.55636514127E+03  0.17202512288E+03 0.  0.
        -24    2    3    3    0    0  0.22475894515E+03 -0.59685843181E+02 -0.42693526014E+03  0.49240036460E+03  0.78137183237E+02 0.  0.
          6    2    1    2  501    0 -0.20381991786E+03  0.47518868241E+02 -0.86160424101E+03  0.90174273810E+03  0.16424827503E+03 0.  0.
         24    2    5    5    0    0 -0.81242973633E+02  0.71682560079E+02 -0.34649894874E+03  0.37168185163E+03  0.79668482868E+02 0.  0.
          5    1    5    5  501    0 -0.12257694423E+03 -0.24163691838E+02 -0.51510529226E+03  0.53006088648E+03  0.47000000000E+01 0. -1.
        -11    1    6    6    0    0 -0.85750260047E+02  0.32694497111E+02 -0.27775205082E+03  0.29252049325E+03  0.00000000000E+00 0.  1.
         12    1    6    6    0    0  0.45072864145E+01  0.38988062968E+02 -0.68746897926E+02  0.79161358372E+02  0.00000000000E+00 0. -1.
         -5    1    3    3    0  503 -0.20939027295E+02  0.12166974940E+02 -0.59016307165E+02  0.63964776671E+02  0.47000000000E+01 0.  1.
         11    1    4    4    0    0  0.12317525102E+03 -0.36102557406E+02 -0.15557149949E+03  0.20168794849E+03  0.00000000000E+00 0. -1.
        -12    1    4    4    0    0  0.10158369413E+03 -0.23583285775E+02 -0.27136376066E+03  0.29071241611E+03  0.00000000000E+00 0.  1.
</event>
<event>
12    1  0.8451514E-002  0.2502285E+03  0.7818608E-02  0.1113238E+00
         21   -1    0    0  501  502  0.00000000000E+00  0.00000000000E+00  0.14092603011E+04  0.14092603011E+04  0.00000000000E+00 0. -1.
         21   -1    0    0  502  503 -0.00000000000E+00 -0.00000000000E+00 -0.44371288820E+02  0.44371288820E+02  0.00000000000E+00 0. -1.
         -6    2    1    2    0  503  0.13571635260E+03  0.12016761151E+03  0.69998745094E+03  0.74320326635E+03  0.17178323672E+03 0.  0.
        -24    2    3    3    0    0  0.54493226161E+02  0.13156917298E+03  0.49471911146E+03  0.52210515901E+03  0.86987578717E+02 0.  0.
          6    2    1    2  501    0 -0.13571635260E+03 -0.12016761151E+03  0.66490156137E+03  0.71042832360E+03  0.17249676357E+03 0.  0.
         24    2    5    5    0    0 -0.91254756605E+02 -0.26360484245E+02  0.20938582963E+03  0.24320965691E+03  0.79285596617E+02 0.  0.
          5    1    5    5  501    0 -0.44461595996E+02 -0.93807127267E+02  0.45551573173E+03  0.46721866669E+03  0.47000000000E+01 0. -1.
        -13    1    6    6    0    0 -0.77362472666E+02  0.15628622999E+02  0.14515306877E+03  0.16522293850E+03  0.00000000000E+00 0.  1.
         14    1    6    6    0    0 -0.13892283940E+02 -0.41989107244E+02  0.64232760863E+02  0.77986718409E+02  0.00000000000E+00 0. -1.
         -5    1    3    3    0  503  0.81223126441E+02 -0.11401561471E+02  0.20526833948E+03  0.22109810733E+03  0.47000000000E+01 0.  1.
         11    1    4    4    0    0  0.57812699297E+02  0.13184484097E+03  0.49740921922E+03  0.51782362021E+03  0.00000000000E+00 0. -1.
        -12    1    4    4    0    0 -0.33194731360E+01 -0.27566798208E+00 -0.26901077600E+01  0.42815388001E+01  0.00000000000E+00 0.  1.
</event>
<event>
12    1  0.8451514E-002  0.1797653E+03  0.7818608E-02  0.1169707E+00
         21   -1    0    0  501  502  0.00000000000E+00  0.00000000000E+00  0.48689558242E+03  0.48689558242E+03  0.00000000000E+00 0. -1.
         21   -1    0    0  502  503 -0.00000000000E+00 -0.00000000000E+00 -0.76109726051E+02  0.76109726051E+02  0.00000000000E+00 0. -1.
         -6    2    1    2    0  503  0.75482641404E+01  0.12531376269E+02  0.95935345710E+02  0.20376249947E+03  0.17916906527E+03 0.  0.
        -24    2    3    3    0    0  0.12553363940E+02 -0.48018279778E+02  0.58673549216E+01  0.95016718697E+02  0.80810945045E+02 0.  0.
          6    2    1    2  501    0 -0.75482641404E+01 -0.12531376269E+02  0.31485051066E+03  0.35924280900E+03  0.17236745654E+03 0.  0.
         24    2    5    5    0    0  0.33355455547E+02 -0.62116845653E+02  0.22146545943E+03  0.24577611410E+03  0.79924086562E+02 0.  0.
          5    1    5    5  501    0 -0.40903719688E+02  0.49585469383E+02  0.93385051225E+02  0.11346669490E+03  0.47000000000E+01 0. -1.
        -13    1    6    6    0    0  0.15597186454E+01  0.17775999379E+02  0.63071041802E+02  0.65546740500E+02  0.00000000000E+00 0.  1.
         14    1    6    6    0    0  0.31795736902E+02 -0.79892845032E+02  0.15839441763E+03  0.18022937360E+03  0.00000000000E+00 0. -1.
         -5    1    3    3    0  503 -0.50050997996E+01  0.60549656048E+02  0.90067990788E+02  0.10874578077E+03  0.47000000000E+01 0.  1.
         13    1    4    4    0    0 -0.87250695129E+01  0.81323357071E+01 -0.24853415510E+02  0.27567262914E+02  0.00000000000E+00 0. -1.
        -14    1    4    4    0    0  0.21278433453E+02 -0.56150615486E+02  0.30720770431E+02  0.67449455784E+02  0.00000000000E+00 0.  1.
</event>
<event>
12    1  0.8451514E-002  0.1756069E+03  0.7818608E-02  0.1173888E+00
         21   -1    0    0  503  502  0.00000000000E+00  0.00000000000E+00  0.17558142089E+03  0.17558142089E+03  0.00000000000E+00 0. -1.
         21   -1    0    0  501  503 -0.00000000000E+00 -0.00000000000E+00 -0.69097378360E+03  0.69097378360E+03  0.00000000000E+00 0. -1.
          6    2    1    2  501    0 -0.22233711143E+02 -0.27628467185E+02 -0.63559896388E+03  0.65941171493E+03  0.17198865310E+03 0.  0.
         24    2    3    3    0    0 -0.68459880403E+02 -0.25101151140E+02 -0.27942197437E+03  0.30020789549E+03  0.82044608206E+02 0.  0.
         -6    2    1    2    0  502  0.22233711143E+02  0.27628467185E+02  0.12020660117E+03  0.20714348956E+03  0.16492764532E+03 0.  0.
        -24    2    5    5    0    0  0.16540017815E+02 -0.14225329152E+02  0.13723546942E+03  0.16135887680E+03  0.82019393293E+02 0.  0.
          5    1    3    3  501    0  0.46226169260E+02 -0.25273160445E+01 -0.35617698951E+03  0.35920381945E+03  0.47000000000E+01 0. -1.
        -13    1    4    4    0    0 -0.48080353640E+02 -0.41198538933E+02 -0.96281707563E+02  0.11523544258E+03  0.00000000000E+00 0.  1.
         14    1    4    4    0    0 -0.20379526763E+02  0.16097387793E+02 -0.18314026681E+03  0.18497245290E+03  0.00000000000E+00 0. -1.
         -5    1    5    5    0  502  0.56936933286E+01  0.41853796336E+02 -0.17028868251E+02  0.45784612758E+02  0.47000000000E+01 0.  1.
         13    1    6    6    0    0  0.93382937967E+01 -0.45267830491E+02  0.11044537565E+03  0.11972702790E+03  0.00000000000E+00 0. -1.
        -14    1    6    6    0    0  0.72017240180E+01  0.31042501339E+02  0.26790093773E+02  0.41631848897E+02  0.00000000000E+00 0.  1.
</event>
<event>
12    1  0.8451514E-002  0.3278531E+03  0.7818608E-02  0.1072113E+00
         21   -1    0    0  501  502  0.00000000000E+00  0.00000000000E+00  0.62540275366E+02  0.62540275366E+02  0.00000000000E+00 0. -1.
         21   -1    0    0  502  503 -0.00000000000E+00 -0.00000000000E+00 -0.17244696397E+04  0.17244696397E+04  0.00000000000E+00 0.  1.
         -6    2    1    2    0  503 -0.94125633821E+02  0.26283408400E+03 -0.77444533227E+03  0.84090444000E+03  0.17150310169E+03 0.  0.
        -24    2    3    3    0    0  0.53653997351E+01  0.10208230400E+03 -0.22776252984E+03  0.26243769334E+03  0.80920878507E+02 0.  0.
          6    2    1    2  501    0  0.94125633821E+02 -0.26283408400E+03 -0.88748403210E+03  0.94610547510E+03  0.17189029093E+03 0.  0.
         24    2    5    5    0    0  0.11691017790E+03 -0.17607099957E+03 -0.49180957074E+03  0.54036252982E+03  0.73797175926E+02 0.  0.
          5    1    5    5  501    0 -0.22784544078E+02 -0.86763084433E+02 -0.39567446136E+03  0.40574294528E+03  0.47000000000E+01 0. -1.
        -11    1    6    6    0    0  0.39762013816E+02 -0.16762514539E+02 -0.14055451244E+03  0.14702914882E+03  0.00000000000E+00 0.  1.
         12    1    6    6    0    0  0.77148164084E+02 -0.15930848503E+03 -0.35125505830E+03  0.39333338100E+03  0.00000000000E+00 0. -1.
         -5    1    3    3    0  503 -0.99491033557E+02  0.16075178000E+03 -0.54668280242E+03  0.57846674666E+03  0.47000000000E+01 0.  1.
         11    1    4    4    0    0 -0.31404689156E+02  0.14269578242E+02 -0.49282561291E+02  0.60155184412E+02  0.00000000000E+00 0. -1.
        -12    1    4    4    0    0  0.36770088891E+02  0.87812725762E+02 -0.17847996855E+03  0.20228250892E+03  0.00000000000E+00 0.  1.
</event>
<event>
12    1  0.8451514E-002  0.1841053E+03  0.7818608E-02  0.1163901E+00
         21   -1    0    0  503  502  0.00000000000E+00  0.00000000000E+00  0.77707330225E+03  0.77707330225E+03  0.00000000000E+00 0.  1.
         21   -1    0    0  501  503 -0.00000000000E+00 -0.00000000000E+00 -0.45731677959E+02  0.45731677959E+02  0.00000000000E+00 0.  1.
          6    2    1    2  501    0  0.24054454477E+01 -0.65144206902E+02  0.27701050296E+03  0.33261022523E+03  0.17217778404E+03 0.  0.
         24    2    3    3    0    0  0.21660241357E+02 -0.92242680115E+02  0.27163874991E+03  0.29860992895E+03  0.80015005619E+02 0.  0.
         -6    2    1    2    0  502 -0.24054454477E+01  0.65144206902E+02  0.45433112133E+03  0.49019475498E+03  0.17211791348E+03 0.  0.
        -24    2    5    5    0    0  0.25293686844E+02 -0.13550462626E+02  0.12517302022E+03  0.15059611177E+03  0.78660779674E+02 0.  0.
          5    1    3    3  501    0 -0.19254795909E+02  0.27098473213E+02  0.53717530469E+01  0.34000296275E+02  0.47000000000E+01 0. -1.
        -13    1    4    4    0    0 -0.24686182883E+02 -0.65241029501E+02  0.16820774906E+03  0.18209790333E+03  0.00000000000E+00 0.  1.
         14    1    4    4    0    0  0.46346424240E+02 -0.27001650614E+02  0.10343100086E+03  0.11651202562E+03  0.00000000000E+00 0. -1.
         -5    1    5    5    0  502 -0.27699132291E+02  0.78694669528E+02  0.32915810111E+03  0.33959864321E+03  0.47000000000E+01 0.  1.
         13    1    6    6    0    0  0.45888229045E+02 -0.12978719171E+02  0.12032544448E+03  0.12943102142E+03  0.00000000000E+00 0. -1.
        -14    1    6    6    0    0 -0.20594542201E+02 -0.57174345489E+00  0.48475757354E+01  0.21165090351E+02  0.00000000000E+00 0.  1.
</event>
<event>
12    1  0.8451514E-002  0.1757211E+03  0.7818608E-02  0.1172115E+00
         21   -1    0    0  503  502  0.00000000000E+00  0.00000000000E+00  0.32798360324E+03  0.32798360324E+03  0.00000000000E+00 0. -1.
         21   -1    0    0  501  503 -0.00000000000E+00 -0.00000000000E+00 -0.10068005839E+03  0.10068005839E+03  0.00000000000E+00 0. -1.
          6    2    1    2  501    0 -0.21230849965E+02 -0.26518657294E+02  0.57979597474E+02  0.18463803718E+03  0.17197552988E+03 0.  0.
         24    2    3    3    0    0 -0.62980413937E+02  0.19153432434E+00  0.78252599766E+02  0.13088354853E+03  0.83907476910E+02 0.  0.
         -6    2    1    2    0  502  0.21230849965E+02  0.26518657294E+02  0.16932394738E+03  0.24402562445E+03  0.17240625875E+03 0.  0.
        -24    2    5    5    0    0  0.84687360757E+01  0.83076182037E+02  0.12731943389E+03  0.17227540278E+03  0.80592832464E+02 0.  0.
          5    1    3    3  501    0  0.41749563972E+02 -0.26710191618E+02 -0.20273002291E+02  0.53754488650E+02  0.47000000000E+01 0. -1.
        -13    1    4    4    0    0 -0.20861401173E+02  0.37462796223E+02  0.55688200256E+02  0.70283958394E+02  0.00000000000E+00 0.  1.
         14    1    4    4    0    0 -0.42119012764E+02 -0.37271261899E+02  0.22564399510E+02  0.60599590139E+02  0.00000000000E+00 0. -1.
         -5    1    5    5    0  502  0.12762113890E+02 -0.56557524743E+02  0.42004513496E+02  0.71750221673E+02  0.47000000000E+01 0.  1.
         11    1    6    6    0    0  0.11471028460E+02  0.20673484433E+01  0.74759809102E+02  0.75662986199E+02  0.00000000000E+00 0. -1.
        -12    1    6    6    0    0 -0.30022923845E+01  0.81008833593E+02  0.52559624783E+02  0.96612416578E+02  0.00000000000E+00 0.  1.
</event>
<event>
12    1  0.8451514E-002  0.1914266E+03  0.7818608E-02  0.1157498E+00
         21   -1    0    0  503  502  0.00000000000E+00  0.00000000000E+00  0.16047757951E+03  0.16047757951E+03  0.00000000000E+00 0.  1.
         21   -1    0    0  501  503 -0.00000000000E+00 -0.00000000000E+00 -0.37929780257E+03  0.37929780257E+03  0.00000000000E+00 0.  1.
          6    2    1    2  501    0 -0.80176087413E+02  0.47882227838E+01 -0.28037507155E+03  0.33869544713E+03  0.17220131559E+03 0.  0.
         24    2    3    3    0    0 -0.94567297137E+02 -0.24301956190E+02 -0.11700351103E+03  0.17206501108E+03  0.79893602270E+02 0.  0.
         -6    2    1    2    0  502  0.80176087413E+02 -0.47882227838E+01  0.61554848485E+02  0.20107993495E+03  0.17376135588E+03 0.  0.
        -24    2    5    5    0    0  0.10028361384E+03 -0.53606832455E+02  0.48874586846E+02  0.14657811567E+03  0.78523391821E+02 0.  0.
          5    1    3    3  501    0  0.14391209724E+02  0.29090178974E+02 -0.16337156052E+03  0.16663043605E+03  0.47000000000E+01 0. -1.
        -11    1    4    4    0    0 -0.39242785190E+02 -0.50962227514E+02 -0.52774729679E+02  0.83200462230E+02  0.00000000000E+00 0.  1.
         12    1    4    4    0    0 -0.55324511947E+02  0.26660271324E+02 -0.64228781349E+02  0.88864548853E+02  0.00000000000E+00 0. -1.
         -5    1    5    5    0  502 -0.20107526428E+02  0.48818609671E+02  0.12680261639E+02  0.54501819277E+02  0.47000000000E+01 0.  1.
         13    1    6    6    0    0  0.38925869261E+02 -0.41601647746E+02  0.60370163149E+02  0.83008897063E+02  0.00000000000E+00 0. -1.
        -14    1    6    6    0    0  0.61357744580E+02 -0.12005184709E+02 -0.11495576303E+02  0.63569218607E+02  0.00000000000E+00 0.  1.
</event>
<event>
12    1  0.8451514E-002  0.2068933E+03  0.7818608E-02  0.1144759E+00
         21   -1    0    0  501  502  0.00000000000E+00  0.00000000000E+00  0.12195133795E+04  0.12195133795E+04  0.00000000000E+00 0.  1.
         21   -1    0    0  502  503 -0.00000000000E+00 -0.00000000000E+00 -0.34563813947E+02  0.34563813947E+02  0.00000000000E+00 0. -1.
         -6    2    1    2    0  503 -0.58636079104E+01 -0.11485090402E+03  0.56322596826E+03  0.59883291425E+03  0.16778633977E+03 0.  0.
        -24    2    3    3    0    0 -0.85551246705E+01 -0.98526899357E+02  0.56593568839E+03  0.58142171171E+03  0.89371490987E+02 0.  0.
          6    2    1    2  501    0  0.58636079104E+01  0.11485090402E+03  0.62172359727E+03  0.65524427918E+03  0.17198756332E+03 0.  0.
         24    2    5    5    0    0  0.15521269649E+02  0.36276279519E+02  0.13644348072E+03  0.16352675501E+03  0.81038866649E+02 0.  0.
          5    1    5    5  501    0 -0.96576617387E+01  0.78574624505E+02  0.48528011656E+03  0.49171752417E+03  0.47000000000E+01 0. -1.
        -13    1    6    6    0    0  0.36468779950E+02 -0.10964161422E+02  0.65354248168E+02  0.75639688658E+02  0.00000000000E+00 0.  1.
         14    1    6    6    0    0 -0.20947510301E+02  0.47240440941E+02  0.71089232548E+02  0.87887066354E+02  0.00000000000E+00 0. -1.
         -5    1    3    3    0  503  0.26915167600E+01 -0.16324004667E+02 -0.27097201241E+01  0.17411202543E+02  0.47000000000E+01 0.  1.
         13    1    4    4    0    0 -0.12815475852E+02 -0.14056571234E+02  0.15531400526E+02  0.24557036027E+02  0.00000000000E+00 0. -1.
        -14    1    4    4    0    0  0.42603511818E+01 -0.84470328123E+02  0.55040428786E+03  0.55686467568E+03  0.00000000000E+00 0.  1.
</event>
<event>
12    1  0.8451514E-002  0.2371803E+03  0.7818608E-02  0.1122025E+00
         21   -1    0    0  503  502  0.00000000000E+00  0.00000000000E+00  0.19607960903E+03  0.19607960903E+03  0.00000000000E+00 0.  1.
         21   -1    0    0  501  503 -0.00000000000E+00 -0.00000000000E+00 -0.39170602260E+03  0.39170602260E+03  0.00000000000E+00 0.  1.
          6    2    1    2  501    0 -0.14017436911E+03  0.84737026144E+02 -0.25187786937E+03  0.34597250668E+03  0.17153803352E+03 0.  0.
         24    2    3    3    0    0 -0.67714491068E+02 -0.21837874587E+02 -0.10572821189E+03  0.15106110175E+03  0.81110151053E+02 0.  0.
         -6    2    1    2    0  502  0.14017436911E+03 -0.84737026144E+02  0.56251455795E+02  0.24181312495E+03  0.16876061082E+03 0.  0.
        -24    2    5    5    0    0  0.19009432691E+02 -0.18805258932E+02 -0.19352230377E+02  0.84441122655E+02  0.77722571238E+02 0.  0.
          5    1    3    3  501    0 -0.72459878039E+02  0.10657490073E+03 -0.14614965747E+03  0.19491140493E+03  0.47000000000E+01 0. -1.
        -11    1    4    4    0    0 -0.16337469094E+02  0.46226643492E+01 -0.89414096302E+02  0.91011881310E+02  0.00000000000E+00 0.  1.
         12    1    4    4    0    0 -0.51377021974E+02 -0.26460538936E+02 -0.16314115593E+02  0.60049220438E+02  0.00000000000E+00 0. -1.
         -5    1    5    5    0  502  0.12116493642E+03 -0.65931767212E+02  0.75603686172E+02  0.15737200230E+03  0.47000000000E+01 0.  1.
         11    1    6    6    0    0 -0.57692823118E+01  0.50500338424E+01  0.26235724562E+02  0.27333142949E+02  0.00000000000E+00 0. -1.
        -12    1    6    6    0    0  0.24778715003E+02 -0.23855292775E+02 -0.45587954939E+02  0.57107979706E+02  0.00000000000E+00 0.  1.
</event>
<event>
12    1  0.8451514E-002  0.1789183E+03  0.7818608E-02  0.1169473E+00
         21   -1    0    0  503  502  0.00000000000E+00  0.00000000000E+00  0.25791484231E+03  0.25791484231E+03  0.00000000000E+00 0. -1.
         21   -1    0    0  501  503 -0.00000000000E+00 -0.00000000000E+00 -0.12655395335E+03  0.12655395335E+03  0.00000000000E+00 0. -1.
          6    2    1    2  501    0 -0.40446928325E+02 -0.32573649530E+02  0.30302793031E+02  0.17898275400E+03  0.16858104967E+03 0.  0.
         24    2    3    3    0    0 -0.17924537595E+01 -0.75013690184E+02 -0.81268698036E+01  0.10974219911E+03  0.79668297635E+02 0.  0.
         -6    2    1    2    0  502  0.40446928325E+02  0.32573649530E+02  0.10105809593E+03  0.20548604166E+03  0.17121558898E+03 0.  0.
        -24    2    5    5    0    0  0.20004281220E+02  0.75499240225E+02  0.24522374237E+02  0.11526234825E+03  0.81140344743E+02 0.  0.
          5    1    3    3  501    0 -0.38654474566E+02  0.42440040655E+02  0.38429662834E+02  0.69240554881E+02  0.47000000000E+01 0. -1.
        -13    1    4    4    0    0 -0.37776919500E+02 -0.31156671222E+02 -0.17976807486E+02  0.52163199825E+02  0.00000000000E+00 0.  1.
         14    1    4    4    0    0  0.35984465740E+02 -0.43857018962E+02  0.98499376824E+01  0.57578999290E+02  0.00000000000E+00 0. -1.
         -5    1    5    5    0  502  0.20442647105E+02 -0.42925590696E+02  0.76535721693E+02  0.90223693409E+02  0.47000000000E+01 0.  1.
         11    1    6    6    0    0 -0.11107129667E+02  0.64397937740E+02 -0.11537725651E+02  0.66359489358E+02  0.00000000000E+00 0. -1.
        -12    1    6    6    0    0  0.31111410887E+02  0.11101302485E+02  0.36060099888E+02  0.48902858896E+02  0.00000000000E+00 0.  1.
</event>
<event>
12    1  0.8451514E-002  0.1855792E+03  0.7818608E-02  0.1164742E+00
         21   -1    0    0  501  502  0.00000000000E+00  0.00000000000E+00  0.13574510494E+04  0.13574510494E+04  0.00000000000E+00 0. -1.
         21   -1    0    0  502  503 -0.00000000000E+00 -0.00000000000E+00 -0.34266652095E+02  0.34266652095E+02  0.00000000000E+00 0. -1.
         -6    2    1    2    0  503 -0.42475213889E+02 -0.35540115964E+01  0.29485619662E+03  0.34839605033E+03  0.18061798472E+03 0.  0.
        -24    2    3    3    0    0 -0.57120740979E+02 -0.92322057975E+01  0.31073756740E+03  0.32556972143E+03  0.78037138850E+02 0.  0.
          6    2    1    2  501    0  0.42475213889E+02  0.35540115964E+01  0.10283282007E+04  0.10433216511E+04  0.17100995493E+03 0.  0.
         24    2    5    5    0    0  0.46679435713E+02  0.46900824801E+02  0.93077140231E+03  0.93638222624E+03  0.78087215106E+02 0.  0.
          5    1    5    5  501    0 -0.42042218242E+01 -0.43346813205E+02  0.97556798342E+02  0.10693942490E+03  0.47000000000E+01 0. -1.
        -13    1    6    6    0    0  0.50177721052E+02 -0.63791213702E-01  0.33309052866E+03  0.33684879107E+03  0.00000000000E+00 0.  1.
         14    1    6    6    0    0 -0.34982853388E+01  0.46964616015E+02  0.59768087365E+03  0.59953343517E+03  0.00000000000E+00 0. -1.
         -5    1    3    3    0  503  0.14645527091E+02  0.56781942011E+01 -0.15881370781E+02  0.22826328900E+02  0.47000000000E+01 0.  1.
         11    1    4    4    0    0 -0.26801679851E+01  0.28869038271E+02  0.68492299593E+02  0.74376069906E+02  0.00000000000E+00 0. -1.
        -12    1    4    4    0    0 -0.54440572994E+02 -0.38101244069E+02  0.24224526781E+03  0.25119365152E+03  0.00000000000E+00 0.  1.
</event>
<event>
12    1  0.8451514E-002  0.1836917E+03  0.7818608E-02  0.1164316E+00
         21   -1    0    0  501  502  0.00000000000E+00  0.00000000000E+00  0.40852028518E+03  0.40852028518E+03  0.00000000000E+00 0. -1.
         21   -1    0    0  502  503 -0.00000000000E+00 -0.00000000000E+00 -0.16875451367E+03  0.16875451367E+03  0.00000000000E+00 0. -1.
         -6    2    1    2    0  503 -0.63233319700E+02 -0.16995837986E+02 -0.86472080140E+02  0.20287692306E+03  0.17144770059E+03 0.  0.
        -24    2    3    3    0    0  0.31732722930E+02  0.52281517310E+01 -0.43334258759E+02  0.96127606412E+02  0.79550986526E+02 0.  0.
          6    2    1    2  501    0  0.63233319700E+02  0.16995837986E+02  0.32623785165E+03  0.37439787579E+03  0.17162552932E+03 0.  0.
         24    2    5    5    0    0  0.25695276747E+01  0.54804500235E+02  0.10774049541E+03  0.14445706756E+03  0.79055008052E+02 0.  0.
          5    1    5    5  501    0  0.60663792026E+02 -0.37808662249E+02  0.21849735624E+03  0.22994080823E+03  0.47000000000E+01 0. -1.
        -11    1    6    6    0    0 -0.14523275738E+02 -0.29694783965E+01 -0.58026382576E+01  0.15918980836E+02  0.00000000000E+00 0.  1.
         12    1    6    6    0    0  0.17092803412E+02  0.57773978631E+02  0.11354313367E+03  0.12853808672E+03  0.00000000000E+00 0. -1.
         -5    1    3    3    0  503 -0.94966042631E+02 -0.22223989717E+02 -0.43137821380E+02  0.10674931665E+03  0.47000000000E+01 0.  1.
         13    1    4    4    0    0  0.21348828376E+02 -0.29526531935E+02 -0.47224518551E+02  0.59646824840E+02  0.00000000000E+00 0. -1.
        -14    1    4    4    0    0  0.10383894555E+02  0.34754683666E+02  0.38902597918E+01  0.36480781572E+02  0.00000000000E+00 0.  1.
</event>
<event>
12    1  0.8451514E-002  0.1773062E+03  0.7818608E-02  0.1171677E+00
         21   -1    0    0  501  502  0.00000000000E+00  0.00000000000E+00  0.22444663155E+03  0.22444663155E+03  0.00000000000E+00 0.  1.
         21   -1    0    0  502  503 -0.00000000000E+00 -0.00000000000E+00 -0.39181183971E+03  0.39181183971E+03  0.00000000000E+00 0.  1.
         -6    2    1    2    0  503 -0.32208174387E+02 -0.26241306171E+02 -0.33214814520E+03  0.37420290269E+03  0.16727058729E+03 0.  0.
        -24    2    3    3    0    0 -0.56380648439E+01  0.44362288770E+02 -0.13026971842E+03  0.15863892717E+03  0.78716638887E+02 0.  0.
          6    2    1    2  501    0  0.32208174387E+02  0.26241306171E+02  0.16478293705E+03  0.24205556857E+03  0.17237026799E+03 0.  0.
         24    2    5    5    0    0 -0.63619512742E+01 -0.42449333185E+02  0.53073704249E+02  0.10528166309E+03  0.80156036502E+02 0.  0.
          5    1    5    5  501    0  0.38570125661E+02  0.68690639356E+02  0.11170923280E+03  0.13677390548E+03  0.47000000000E+01 0. -1.
        -11    1    6    6    0    0  0.36827966179E+02 -0.15434136085E+02  0.21575668965E+02  0.45387455765E+02  0.00000000000E+00 0.  1.
         12    1    6    6    0    0 -0.43189917453E+02 -0.27015197100E+02  0.31498035284E+02  0.59894207321E+02  0.00000000000E+00 0. -1.
         -5    1    3    3    0  503 -0.26570109543E+02 -0.70603594941E+02 -0.20187842679E+03  0.21556397552E+03  0.47000000000E+01 0.  1.
         11    1    4    4    0    0  0.42760914618E+01  0.65923466636E+02 -0.10428242183E+03  0.12344639288E+03  0.00000000000E+00 0. -1.
        -12    1    4    4    0    0 -0.99141563057E+01 -0.21561177866E+02 -0.25987296586E+02  0.35192534294E+02  0.00000000000E+00 0.  1.
</event>
<event>
12    1  0.8451514E-002  0.1931597E+03  0.7818608E-02  0.1155671E+00
         21   -1    0    0  503  502  0.00000000000E+00  0.00000000000E+00  0.44008920312E+03  0.44008920312E+03  0.00000000000E+00 0.  1.
         21   -1    0    0  501  503 -0.00000000000E+00 -0.00000000000E+00 -0.94469642621E+02  0.94469642621E+02  0.00000000000E+00 0.  1.
          6    2    1    2  501    0  0.87157030344E+02 -0.14792401718E+02  0.87006571271E+02  0.21185087991E+03  0.17174250722E+03 0.  0.
         24    2    3    3    0    0  0.93437181100E+02 -0.67100822861E+02  0.50716685339E+02  0.14770528741E+03  0.77534782623E+02 0.  0.
         -6    2    1    2    0  502 -0.87157030344E+02  0.14792401718E+02  0.25861298923E+03  0.32270796584E+03  0.17159425960E+03 0.  0.
        -24    2    5    5    0    0 -0.42549780130E+02  0.72322675050E+02  0.19230727210E+03  0.22412765723E+03  0.78803976522E+02 0.  0.
          5    1    3    3  501    0 -0.62801507560E+01  0.52308421143E+02  0.36289885932E+02  0.64145592498E+02  0.47000000000E+01 0. -1.
        -11    1    4    4    0    0  0.56425345687E+02 -0.31842488472E+02 -0.12934769606E+02  0.66068691320E+02  0.00000000000E+00 0.  1.
         12    1    4    4    0    0  0.37011835413E+02 -0.35258334390E+02  0.63651454944E+02  0.81636596090E+02  0.00000000000E+00 0. -1.
         -5    1    5    5    0  502 -0.44607250214E+02 -0.57530273331E+02  0.66305717130E+02  0.98580308609E+02  0.47000000000E+01 0.  1.
         13    1    6    6    0    0 -0.32133994147E+02 -0.87890238618E+01  0.53714803693E+02  0.63206966832E+02  0.00000000000E+00 0. -1.
        -14    1    6    6    0    0 -0.10415785984E+02  0.81111698911E+02  0.13859246841E+03  0.16092069040E+03  0.00000000000E+00 0.  1.
</event>
<event>
12    1  0.8451514E-002  0.2151376E+03  0.7818608E-02  0.1137712E+00
         21   -1    0    0  503  502  0.00000000000E+00  0.00000000000E+00  0.63030481693E+03  0.63030481693E+03  0.00000000000E+00 0. -1.
         21   -1    0    0  501  503 -0.00000000000E+00 -0.00000000000E+00 -0.12202137272E+03  0.12202137272E+03  0.00000000000E+00 0. -1.
          6    2    1    2  501    0  0.50069555271E+02  0.11814700984E+03  0.16395151021E+02  0.21576136882E+03  0.17268031445E+03 0.  0.
         24    2    3    3    0    0 -0.52401774374E+01  0.82851333229E+02  0.67101653857E+02  0.13270602131E+03  0.78844487850E+02 0.  0.
         -6    2    1    2    0  502 -0.50069555271E+02 -0.11814700984E+03  0.49188829318E+03  0.53656482083E+03  0.17170334210E+03 0.  0.
        -24    2    5    5    0    0 -0.43401551446E+02 -0.29039346965E+02  0.11569306975E+03  0.14987428049E+03  0.79689618043E+02 0.  0.
          5    1    3    3  501    0  0.55309732708E+02  0.35295676611E+02 -0.50706502836E+02  0.83055347507E+02  0.47000000000E+01 0. -1.
        -11    1    4    4    0    0  0.10680878817E+02  0.78814902994E+02  0.18854288963E+02  0.81739551739E+02  0.00000000000E+00 0.  1.
         12    1    4    4    0    0 -0.15921056254E+02  0.40364302350E+01  0.48247364894E+02  0.50966469571E+02  0.00000000000E+00 0. -1.
         -5    1    5    5    0  502 -0.66680038247E+01 -0.89107662875E+02  0.37619522344E+03  0.38669054035E+03  0.47000000000E+01 0.  1.
         13    1    6    6    0    0 -0.35991039357E+02 -0.56361115230E+02  0.78193280543E+02  0.10288886891E+03  0.00000000000E+00 0. -1.
        -14    1    6    6    0    0 -0.74105120895E+01  0.27321768264E+02  0.37499789202E+02  0.46985411574E+02  0.00000000000E+00 0.  1.
</event>
<event>
12    1  0.8451514E-002  0.1785302E+03  0.7818608E-02  0.1170237E+00
         21   -1    0    0  501  502  0.00000000000E+00  0.00000000000E+00  0.19776038422E+03  0.19776038422E+03  0.00000000000E+00 0. -1.
         21   -1    0    0  502  503 -0.00000000000E+00 -0.00000000000E+00 -0.15950305446E+03  0.15950305446E+03  0.00000000000E+00 0. -1.
         -6    2    1    2    0  503 -0.47544182925E+02  0.85503616445E+01 -0.51581497355E+00  0.17853098088E+03  0.17187055319E+03 0.  0.
        -24    2    3    3    0    0 -0.43152893359E+02  0.73132606694E+02 -0.44321781221E+01  0.11351115544E+03  0.75196993551E+02 0.  0.
          6    2    1    2  501    0  0.47544182925E+02 -0.85503616445E+01  0.38773144738E+02  0.17873245780E+03  0.16765552990E+03 0.  0.
         24    2    5    5    0    0  0.69862994240E+02 -0.10975956958E+02  0.78610608681E+02  0.13276370336E+03  0.80282398684E+02 0.  0.
          5    1    5    5  501    0 -0.22318811315E+02  0.24255953139E+01 -0.39837463943E+02  0.45968754438E+02  0.47000000000E+01 0. -1.
        -13    1    6    6    0    0  0.24846240723E+02 -0.26622183018E+02 -0.47675132137E+01  0.36726087308E+02  0.00000000000E+00 0.  1.
         14    1    6    6    0    0  0.45016753518E+02  0.15646226059E+02  0.83378121895E+02  0.96037616057E+02  0.00000000000E+00 0. -1.
         -5    1    3    3    0  503 -0.43912895669E+01 -0.64582245050E+02  0.39163631485E+01  0.65019825438E+02  0.47000000000E+01 0.  1.
         11    1    4    4    0    0  0.10725197690E+02  0.55678056607E+02 -0.44535394667E+01  0.56876268046E+02  0.00000000000E+00 0. -1.
        -12    1    4    4    0    0 -0.53878091049E+02  0.17454550087E+02  0.21361344609E-01  0.56634887394E+02  0.00000000000E+00 0.  1.
</event>
<event>
12    1  0.8451514E-002  0.2514940E+03  0.7818608E-02  0.1112594E+00
         21   -1    0    0  501  502  0.00000000000E+00  0.00000000000E+00  0.64894566243E+02  0.64894566243E+02  0.00000000000E+00 0. -1.
         21   -1    0    0  502  503 -0.00000000000E+00 -0.00000000000E+00 -0.17835780386E+04  0.17835780386E+04  0.00000000000E+00 0. -1.
         -6    2    1    2    0  503  0.18036080486E+03 -0.32597426413E+02 -0.14825855444E+04  0.15035212404E+04  0.17006943180E+03 0.  0.
        -24    2    3    3    0    0  0.74663954431E+02 -0.10741372266E+02 -0.37841928721E+03  0.39408231695E+03  0.80060180019E+02 0.  0.
          6    2    1    2  501    0 -0.18036080486E+03  0.32597426413E+02 -0.23609792789E+03  0.34495136441E+03  0.17221091753E+03 0.  0.
         24    2    5    5    0    0 -0.36220284415E+02 -0.38545567359E+01 -0.16901973501E+03  0.18177412743E+03  0.56101657460E+02 0.  0.
          5    1    5    5  501    0 -0.14414052044E+03  0.36451983149E+02 -0.67078192886E+02  0.16317723698E+03  0.47000000000E+01 0. -1.
        -13    1    6    6    0    0 -0.10530518553E+02 -0.34592733389E+01 -0.27804612745E+00  0.11087637380E+02  0.00000000000E+00 0.  1.
         14    1    6    6    0    0 -0.25689765862E+02 -0.39528339699E+00 -0.16874168888E+03  0.17068649005E+03  0.00000000000E+00 0. -1.
         -5    1    3    3    0  503  0.10569685043E+03 -0.21856054148E+02 -0.11041662572E+04  0.11094389235E+04  0.47000000000E+01 0.  1.
         13    1    4    4    0    0  0.89854975437E+01  0.17253403923E+02 -0.21334341916E+03  0.21422846126E+03  0.00000000000E+00 0. -1.
        -14    1    4    4    0    0  0.65678456887E+02 -0.27994776189E+02 -0.16507586805E+03  0.17985385569E+03  0.00000000000E+00 0.  1.
</event>
<event>
12    1  0.8451514E-002  0.1980532E+03  0.7818608E-02  0.1151435E+00
         21   -1    0    0  501  502  0.00000000000E+00  0.00000000000E+00  0.31487706221E+03  0.31487706221E+03  0.00000000000E+00 0. -1.
         21   -1    0    0  502  503 -0.00000000000E+00 -0.00000000000E+00 -0.12470167700E+03  0.12470167700E+03  0.00000000000E+00 0.  1.
         -6    2    1    2    0  503 -0.74628130841E+02  0.63410066610E+02  0.85196956974E+02  0.21560056655E+03  0.17214786771E+03 0.  0.
        -24    2    3    3    0    0  0.13155918941E+02  0.13100354254E+02  0.79373311025E+02  0.11414559424E+03  0.79902419844E+02 0.  0.
          6    2    1    2  501    0  0.74628130841E+02 -0.63410066610E+02  0.10497842823E+03  0.22397817266E+03  0.17191729689E+03 0.  0.
         24    2    5    5    0    0 -0.61611003076E+01  0.18655961894E+02  0.53576017040E+02  0.97779793980E+02  0.79400846581E+02 0.  0.
          5    1    5    5  501    0  0.80789231148E+02 -0.82066028504E+02  0.51402411193E+02  0.12619837868E+03  0.47000000000E+01 0. -1.
        -13    1    6    6    0    0  0.15464402912E+02  0.21581718329E+02  0.67061972790E+02  0.72126461981E+02  0.00000000000E+00 0.  1.
         14    1    6    6    0    0 -0.21625503219E+02 -0.29257564349E+01 -0.13485955749E+02  0.25653331999E+02  0.00000000000E+00 0. -1.
         -5    1    3    3    0  503 -0.87784049782E+02  0.50309712356E+02  0.58236459491E+01  0.10145497231E+03  0.47000000000E+01 0.  1.
         11    1    4    4    0    0  0.29342261851E+02  0.32219392918E+02  0.77641482265E+02  0.89035146873E+02  0.00000000000E+00 0. -1.
        -12    1    4    4    0    0 -0.16186342909E+02 -0.19119038664E+02  0.17318287605E+01  0.25110447369E+02  0.00000000000E+00 0.  1.
</event>
<event>
12    1  0.8451514E-002  0.2330240E+03  0.7818608E-02  0.1124590E+00
         21   -1    0    0  503  502  0.00000000000E+00  0.00000000000E+00  0.75029590381E+03  0.75029590381E+03  0.00000000000E+00 0. -1.
         21   -1    0    0  501  503 -0.00000000000E+00 -0.00000000000E+00 -0.10855135957E+03  0.10855135957E+03  0.00000000000E+00 0. -1.
          6    2    1    2  501    0  0.15048311142E+03 -0.40533045758E+02  0.72422951770E+02  0.24368286292E+03  0.17276619785E+03 0.  0.
         24    2    3    3    0    0  0.14336895988E+03  0.18256902718E+02  0.82033352136E+02  0.18350546692E+03  0.77825525219E+02 0.  0.
         -6    2    1    2    0  502 -0.15048311142E+03  0.40533045758E+02  0.56932159247E+03  0.61516440045E+03  0.17323991834E+03 0.  0.
        -24    2    5    5    0    0 -0.84434382303E+02  0.56507137041E+02  0.50393360430E+03  0.52074361244E+03  0.83081952982E+02 0.  0.
          5    1    3    3  501    0  0.71141515432E+01 -0.58789948476E+02 -0.96104003658E+01  0.60177395999E+02  0.47000000000E+01 0. -1.
        -11    1    4    4    0    0  0.67698811112E+02  0.44037661742E+02  0.22516748437E+02  0.83841807220E+02  0.00000000000E+00 0.  1.
         12    1    4    4    0    0  0.75670148764E+02 -0.25780759024E+02  0.59516603699E+02  0.99663659704E+02  0.00000000000E+00 0. -1.
         -5    1    5    5    0  502 -0.66048729116E+02 -0.15974091282E+02  0.65387988179E+02  0.94420788009E+02  0.47000000000E+01 0.  1.
         11    1    6    6    0    0 -0.22722221713E+02 -0.21835221161E+02  0.12190769490E+03  0.12591490110E+03  0.00000000000E+00 0. -1.
        -12    1    6    6    0    0 -0.61712160590E+02  0.78342358202E+02  0.38202590939E+03  0.39482871134E+03  0.00000000000E+00 0.  1.
</event>
<event>
12    1  0.8451514E-002  0.2146997E+03  0.7818608E-02  0.1138691E+00
         21   -1    0    0  503  502  0.00000000000E+00  0.00000000000E+00  0.49750147798E+02  0.49750147798E+02  0.00000000000E+00 0.  1.
         21   -1    0    0  501  503 -0.00000000000E+00 -0.00000000000E+00 -0.96439428683E+03  0.96439428683E+03  0.00000000000E+00 0. -1.
          6    2    1    2  501    0 -0.34884772010E+02  0.11513220370E+03 -0.58297448810E+03  0.62125295228E+03  0.17783027104E+03 0.  0.
         24    2    3    3    0    0  0.45613529714E+02  0.38214715582E+02 -0.21885477415E+03  0.24046228453E+03  0.79898307455E+02 0.  0.
         -6    2    1    2    0  502  0.34884772010E+02 -0.11513220370E+03 -0.33166965093E+03  0.39289148235E+03  0.17287737822E+03 0.  0.
        -24    2    5    5    0    0  0.57074901722E+02 -0.10655615927E+03 -0.14386182360E+03  0.20352458872E+03  0.78193826093E+02 0.  0.
          5    1    3    3  501    0 -0.80498301725E+02  0.76917488120E+02 -0.36411971395E+03  0.38079066775E+03  0.47000000000E+01 0. -1.
        -13    1    4    4    0    0  0.27563796921E+02 -0.86280965651E+01 -0.19414618293E+02  0.34801355641E+02  0.00000000000E+00 0.  1.
         14    1    4    4    0    0  0.18049732794E+02  0.46842812147E+02 -0.19944015586E+03  0.20566092889E+03  0.00000000000E+00 0. -1.
         -5    1    5    5    0  502 -0.22190129712E+02 -0.85760444365E+01 -0.18780782733E+03  0.18936689363E+03  0.47000000000E+01 0.  1.
         11    1    6    6    0    0  0.49890244908E+02 -0.20586520143E+02 -0.78624440461E+02  0.95365842870E+02  0.00000000000E+00 0. -1.
        -12    1    6    6    0    0  0.71846568140E+01 -0.85969639122E+02 -0.65237383140E+02  0.10815874585E+03  0.00000000000E+00 0.  1.
</event>
<event>
12    1  0.8451514E-002  0.3268107E+03  0.7818608E-02  0.1072672E+00
         21   -1    0    0  501  502  0.00000000000E+00  0.00000000000E+00  0.13768416393E+03  0.13768416393E+03  0.00000000000E+00 0. -1.
         21   -1    0    0  502  503 -0.00000000000E+00 -0.00000000000E+00 -0.12965973451E+04  0.12965973451E+04  0.00000000000E+00 0. -1.
         -6    2    1    2    0  503  0.25940327363E+03  0.98662577236E+02 -0.10345096062E+04  0.10845938601E+04  0.17061463439E+03 0.  0.
        -24    2    3    3    0    0  0.22102380564E+03  0.11634568404E+03 -0.98699793795E+03  0.10208355316E+04  0.74514510036E+02 0.  0.
          6    2    1    2  501    0 -0.25940327363E+03 -0.98662577236E+02 -0.12440357497E+03  0.34968764896E+03  0.17257126022E+03 0.  0.
         24    2    5    5    0    0 -0.64721866345E+02 -0.82603590435E+02 -0.40716846677E+02  0.13712165946E+03  0.78308459023E+02 0.  0.
          5    1    5    5  501    0 -0.19468140728E+03 -0.16058986801E+02 -0.83686728294E+02  0.21256598950E+03  0.47000000000E+01 0. -1.
        -13    1    6    6    0    0 -0.42542365837E+02 -0.34328886947E+02 -0.59475022480E+02  0.80781208638E+02  0.00000000000E+00 0.  1.
         14    1    6    6    0    0 -0.22179500508E+02 -0.48274703488E+02  0.18758175803E+02  0.56340450824E+02  0.00000000000E+00 0. -1.
         -5    1    3    3    0  503  0.38379467987E+02 -0.17683106807E+02 -0.47511668249E+02  0.63758328469E+02  0.47000000000E+01 0.  1.
         13    1    4    4    0    0  0.22089854645E+03  0.10093487871E+03 -0.88663649002E+03  0.91929771184E+03  0.00000000000E+00 0. -1.
        -14    1    4    4    0    0  0.12525919519E+00  0.15410805337E+02 -0.10036144792E+03  0.10153781975E+03  0.00000000000E+00 0.  1.
</event>
<event>
12    1  0.8451514E-002  0.2309876E+03  0.7818608E-02  0.1126083E+00
         21   -1    0    0  501  502  0.00000000000E+00  0.00000000000E+00  0.16190238031E+03  0.16190238031E+03  0.00000000000E+00 0. -1.
         21   -1    0    0  502  503 -0.00000000000E+00 -0.00000000000E+00 -0.33062442627E+03  0.33062442627E+03  0.00000000000E+00 0.  1.
         -6    2    1    2    0  503  0.72705100975E+02 -0.13584737632E+03 -0.10452293210E+03  0.25353563605E+03  0.17208931998E+03 0.  0.
        -24    2    3    3    0    0  0.86237333340E+02 -0.87946754439E+02 -0.13213766660E+03  0.19641948728E+03  0.77128093264E+02 0.  0.
          6    2    1    2  501    0 -0.72705100975E+02  0.13584737632E+03 -0.64199113865E+02  0.23899117053E+03  0.17104008889E+03 0.  0.
         24    2    5    5    0    0 -0.64002158802E+01  0.20564797563E+02 -0.65896345476E+02  0.10590705672E+03  0.80063116687E+02 0.  0.
          5    1    5    5  501    0 -0.66304885095E+02  0.11528257876E+03  0.16972316117E+01  0.13308411381E+03  0.47000000000E+01 0. -1.
        -13    1    6    6    0    0  0.27337598142E+02 -0.63448822024E+01 -0.11388190295E+01  0.28087340762E+02  0.00000000000E+00 0.  1.
         14    1    6    6    0    0 -0.33737814022E+02  0.26909679765E+02 -0.64757526447E+02  0.77819715957E+02  0.00000000000E+00 0. -1.
         -5    1    3    3    0  503 -0.13532232365E+02 -0.47900621884E+02  0.27614734497E+02  0.57116148775E+02  0.47000000000E+01 0.  1.
         11    1    4    4    0    0  0.69370605719E+02 -0.15717883690E+02 -0.62792160109E+02  0.94879861807E+02  0.00000000000E+00 0. -1.
        -12    1    4    4    0    0  0.16866727621E+02 -0.72228870750E+02 -0.69345506487E+02  0.10153962547E+03  0.00000000000E+00 0.  1.
</event>
<event>
12    1  0.8451514E-002  0.2494187E+03  0.7818608E-02  0.1114321E+00
         21   -1    0    0  503  502  0.00000000000E+00  0.00000000000E+00  0.21728508631E+04  0.21728508631E+04  0.00000000000E+00 0. -1.
         21   -1    0    0  501  503 -0.00000000000E+00 -0.00000000000E+00 -0.29284857258E+02  0.29284857258E+02  0.00000000000E+00 0.  1.
          6    2    1    2  501    0  0.17120039633E+03 -0.35421414031E+02  0.86512000005E+03  0.90035676387E+03  0.17789163973E+03 0.  0.
         24    2    3    3    0    0  0.17197745848E+03 -0.47046079036E+02  0.54341688928E+03  0.57840844793E+03  0.86399289895E+02 0.  0.
         -6    2    1    2    0  502 -0.17120039633E+03  0.35421414031E+02  0.12784460058E+04  0.13017789565E+04  0.17216274150E+03 0.  0.
        -24    2    5    5    0    0 -0.12941694083E+03  0.79364331576E+02  0.11192020924E+04  0.11313162007E+04  0.64927503096E+02 0.  0.
          5    1    3    3  501    0 -0.77706215734E+00  0.11624665005E+02  0.32170311076E+03  0.32194831594E+03  0.47000000000E+01 0. -1.
        -11    1    4    4    0    0  0.12299469357E+03 -0.64819402551E+02  0.31828375975E+03  0.34732377015E+03  0.00000000000E+00 0.  1.
         12    1    4    4    0    0  0.48982764915E+02  0.17773323515E+02  0.22513312954E+03  0.23108467778E+03  0.00000000000E+00 0. -1.
         -5    1    5    5    0  502 -0.41783455491E+02 -0.43942917545E+02  0.15924391339E+03  0.17046275578E+03  0.47000000000E+01 0.  1.
         13    1    6    6    0    0 -0.59369136498E+02  0.26976506165E+02  0.70321929043E+03  0.70623636035E+03  0.00000000000E+00 0. -1.
        -14    1    6    6    0    0 -0.70047804337E+02  0.52387825411E+02  0.41598280199E+03  0.42507984038E+03  0.00000000000E+00 0.  1.
</event>
<event>
12    1  0.8451514E-002  0.1850263E+03  0.7818608E-02  0.1163353E+00
         21   -1    0    0  501  502  0.00000000000E+00  0.00000000000E+00  0.17176255274E+03  0.17176255274E+03  0.00000000000E+00 0.  1.
         21   -1    0    0  502  503 -0.00000000000E+00 -0.00000000000E+00 -0.22627177962E+03  0.22627177962E+03  0.00000000000E+00 0.  1.
         -6    2    1    2    0  503 -0.11277855873E+02  0.63443750349E+02 -0.97929866162E+02  0.20934419771E+03  0.17344288667E+03 0.  0.
        -24    2    3    3    0    0  0.35405993826E+00 -0.19222711055E+02 -0.87832312197E+02  0.12512367822E+03  0.87015985927E+02 0.  0.
          6    2    1    2  501    0  0.11277855873E+02 -0.63443750349E+02  0.43420639282E+02  0.18869013465E+03  0.17194858390E+03 0.  0.
         24    2    5    5    0    0 -0.45812280084E+02 -0.56196463815E+02  0.66190437799E+02  0.12662274780E+03  0.79970861269E+02 0.  0.
          5    1    5    5  501    0  0.57090135956E+02 -0.72472865334E+01 -0.22769798517E+02  0.62067386848E+02  0.47000000000E+01 0. -1.
        -13    1    6    6    0    0 -0.27018670130E+02 -0.74891874274E+02  0.59181219884E+02  0.99202914044E+02  0.00000000000E+00 0.  1.
         14    1    6    6    0    0 -0.18793609954E+02  0.18695410459E+02  0.70092179153E+01  0.27419833754E+02  0.00000000000E+00 0. -1.
         -5    1    3    3    0  503 -0.11631915811E+02  0.82666461404E+02 -0.10097553965E+02  0.84220519487E+02  0.47000000000E+01 0.  1.
         13    1    4    4    0    0 -0.32177604404E+02 -0.31668780463E+02 -0.21071608530E+02  0.49822912071E+02  0.00000000000E+00 0. -1.
        -14    1    4    4    0    0  0.32531664342E+02  0.12446069408E+02 -0.66760703668E+02  0.75300766150E+02  0.00000000000E+00 0.  1.
</event>
<event>
12    1  0.8451514E-002  0.2280928E+03  0.7818608E-02  0.1128044E+00
         21   -1    0    0  503  502  0.00000000000E+00  0.00000000000E+00  0.20799210509E+03  0.20799210509E+03  0.00000000000E+00 0.  1.
         21   -1    0    0  501  503 -0.00000000000E+00 -0.00000000000E+00 -0.38835336777E+03  0.38835336777E+03  0.00000000000E+00 0.  1.
          6    2    1    2  501    0  0.12899017442E+03 -0.76582753631E+02 -0.26824136294E+03  0.35190889559E+03  0.17141487321E+03 0.  0.
         24    2    3    3    0    0  0.11886707448E+03 -0.94178323691E+02 -0.14110088244E+03  0.22307228193E+03  0.82781917660E+02 0.  0.
         -6    2    1    2    0  502 -0.12899017442E+03  0.76582753631E+02  0.87880100262E+02  0.24443657726E+03  0.17182242296E+03 0.  0.
        -24    2    5    5    0    0 -0.14133294981E+03  0.64163445722E+02  0.21842673062E+02  0.17595581278E+03  0.79946202015E+02 0.  0.
          5    1    3    3  501    0  0.10123099936E+02  0.17595570060E+02 -0.12714048050E+03  0.12883661367E+03  0.47000000000E+01 0. -1.
        -13    1    4    4    0    0  0.41013899478E+02 -0.18480614879E+02 -0.94982804098E+02  0.10509712723E+03  0.00000000000E+00 0.  1.
         14    1    4    4    0    0  0.77853175003E+02 -0.75697708812E+02 -0.46118078337E+02  0.11797515470E+03  0.00000000000E+00 0. -1.
         -5    1    5    5    0  502  0.12342775389E+02  0.12419307910E+02  0.66037427200E+02  0.68480764485E+02  0.47000000000E+01 0.  1.
         13    1    6    6    0    0 -0.64157753501E+02  0.28328045483E+02 -0.30040311958E+02  0.76296237376E+02  0.00000000000E+00 0. -1.
        -14    1    6    6    0    0 -0.77175196305E+02  0.35835400239E+02  0.51882985020E+02  0.99659575404E+02  0.00000000000E+00 0.  1.
</event>
<event>
12    1  0.8451514E-002  0.2643794E+03  0.7818608E-02  0.1104937E+00
         21   -1    0    0  501  502  0.00000000000E+00  0.00000000000E+00  0.16960064005E+03  0.16960064005E+03  0.00000000000E+00 0. -1.
         21   -1    0    0  502  503 -0.00000000000E+00 -0.00000000000E+00 -0.42824906350E+03  0.42824906350E+03  0.00000000000E+00 0.  1.
         -6    2    1    2    0  503  0.16979761652E+03 -0.10638417559E+03 -0.19503616516E+03  0.32853549053E+03  0.17247504002E+03 0.  0.
        -24    2    3    3    0    0  0.65351615325E+01 -0.10688855068E+02 -0.77641220166E+02  0.10578925221E+03  0.70754836266E+02 0.  0.
          6    2    1    2  501    0 -0.16979761652E+03  0.10638417559E+03 -0.63612258291E+02  0.26931421301E+03  0.16832944642E+03 0.  0.
         24    2    5    5    0    0 -0.13354798612E+03  0.11421640064E+03 -0.99726225959E+02  0.21733644743E+03  0.80058481545E+02 0.  0.
          5    1    5    5  501    0 -0.36249630402E+02 -0.78322250498E+01  0.36113967668E+02  0.51977765576E+02  0.47000000000E+01 0. -1.
        -13    1    6    6    0    0 -0.55579038418E+02  0.77496235759E+02 -0.15105817636E+02  0.96555071305E+02  0.00000000000E+00 0.  1.
         14    1    6    6    0    0 -0.77968947703E+02  0.36720164878E+02 -0.84620408323E+02  0.12078137613E+03  0.00000000000E+00 0. -1.
         -5    1    3    3    0  503  0.16326245499E+03 -0.95695320519E+02 -0.11739494499E+03  0.22274623833E+03  0.47000000000E+01 0.  1.
         13    1    4    4    0    0 -0.27082212838E+02  0.77110426629E+01 -0.13871429020E+02  0.31389854638E+02  0.00000000000E+00 0. -1.
        -14    1    4    4    0    0  0.33617374370E+02 -0.18399897731E+02 -0.63769791146E+02  0.74399397570E+02  0.00000000000E+00 0.  1.
</event>
<event>
12    1  0.8451514E-002  0.1825803E+03  0.7818608E-02  0.1166766E+00
         21   -1    0    0  501  502  0.00000000000E+00  0.00000000000E+00  0.84680119867E+03  0.84680119867E+03  0.00000000000E+00 0. -1.
         21   -1    0    0  502  503 -0.00000000000E+00 -0.00000000000E+00 -0.57835638333E+02  0.57835638333E+02  0.00000000000E+00 0. -1.
         -6    2    1    2    0  503  0.17316838619E+01  0.50023633922E+02  0.12594966788E+03  0.21694094076E+03  0.16939507153E+03 0.  0.
        -24    2    3    3    0    0  0.38702082156E+00  0.64259253745E+02  0.15454371360E+03  0.18462731451E+03  0.77936412361E+02 0.  0.
          6    2    1    2  501    0 -0.17316838619E+01 -0.50023633922E+02  0.66301589246E+03  0.68769589624E+03  0.17558533361E+03 0.  0.
         24    2    5    5    0    0  0.13915098061E+01 -0.35838243442E+02  0.66636198163E+03  0.67206688622E+03  0.79682450962E+02 0.  0.
          5    1    5    5  501    0 -0.31231936679E+01 -0.14185390480E+02 -0.33460891714E+01  0.15629010029E+02  0.47000000000E+01 0. -1.
        -13    1    6    6    0    0  0.35603942969E+02 -0.39075809745E+02  0.38415781886E+03  0.38777801569E+03  0.00000000000E+00 0.  1.
         14    1    6    6    0    0 -0.34212433163E+02  0.32375663027E+01  0.28220416277E+03  0.28428887052E+03  0.00000000000E+00 0. -1.
         -5    1    3    3    0  503  0.13446630403E+01 -0.14235619823E+02 -0.28594045726E+02  0.32313626250E+02  0.47000000000E+01 0.  1.
         13    1    4    4    0    0  0.14969020167E+02  0.57950123241E+02  0.47498497202E+02  0.76409394611E+02  0.00000000000E+00 0. -1.
        -14    1    4    4    0    0 -0.14581999346E+02  0.63091305037E+01  0.10704521640E+03  0.10821791990E+03  0.00000000000E+00 0.  1.
</event>
<event>
12    1  0.8451514E-002  0.1939989E+03  0.7818608E-02  0.1155149E+00
         21   -1    0    0  503  502  0.00000000000E+00  0.00000000000E+00  0.17640899199E+04  0.17640899199E+04  0.00000000000E+00 0.  1.
         21   -1    0    0  501  503 -0.00000000000E+00 -0.00000000000E+00 -0.21341378236E+02  0.21341378236E+02  0.00000000000E+00 0.  1.
          6    2    1    2  501    0  0.48366519056E+02 -0.73077516505E+02  0.94348173259E+03  0.96322030803E+03  0.17307783941E+03 0.  0.
         24    2    3    3    0    0  0.30514944634E+02 -0.60556424780E+02  0.93532043354E+03  0.93946839759E+03  0.56376539967E+02 0.  0.
         -6    2    1    2    0  502 -0.48366519056E+02  0.73077516505E+02  0.79926680909E+03  0.82221099012E+03  0.17182501731E+03 0.  0.
        -24    2    5    5    0    0 -0.90798383571E+02  0.40629976289E+02  0.67247632425E+03  0.68454754894E+03  0.80534456265E+02 0.  0.
          5    1    3    3  501    0  0.17851574422E+02 -0.12521091725E+02  0.81612990546E+01  0.23751910441E+02  0.47000000000E+01 0. -1.
        -11    1    4    4    0    0  0.22566629287E+02 -0.67216037050E+02  0.63094920594E+03  0.63492058469E+03  0.00000000000E+00 0.  1.
         12    1    4    4    0    0  0.79483153471E+01  0.66596122701E+01  0.30437122760E+03  0.30454781290E+03  0.00000000000E+00 0. -1.
         -5    1    5    5    0  502  0.42431864514E+02  0.32447540215E+02  0.12679048484E+03  0.13766344118E+03  0.47000000000E+01 0.  1.
         11    1    6    6    0    0 -0.68573998185E+02  0.27088234949E+02  0.63290539194E+03  0.63718553095E+03  0.00000000000E+00 0. -1.
        -12    1    6    6    0    0 -0.22224385385E+02  0.13541741340E+02  0.39570932310E+02  0.47362017991E+02  0.00000000000E+00 0.  1.
</event>
<event>
12    1  0.8451514E-002  0.2355656E+03  0.7818608E-02  0.1123532E+00
         21   -1    0    0  501  502  0.00000000000E+00  0.00000000000E+00  0.18678724568E+04  0.18678724568E+04  0.00000000000E+00 0.  1.
         21   -1    0    0  502  503 -0.00000000000E+00 -0.00000000000E+00 -0.30216293824E+02  0.30216293824E+02  0.00000000000E+00 0.  1.
         -6    2    1    2    0  503  0.39927386434E+01 -0.15507522859E+03  0.73334894655E+03  0.76893616116E+03  0.17145808252E+03 0.  0.
        -24    2    3    3    0    0 -0.21215757703E+02 -0.17311113184E+03  0.68443715311E+03  0.71083955515E+03  0.80131668255E+02 0.  0.
          6    2    1    2  501    0 -0.39927386434E+01  0.15507522859E+03  0.11043072164E+04  0.11291525894E+04  0.17727626332E+03 0.  0.
         24    2    5    5    0    0 -0.47578688941E+02  0.16475427453E+03  0.93209480771E+03  0.95118455101E+03  0.80892625710E+02 0.  0.
          5    1    5    5  501    0  0.43585950297E+02 -0.96790459401E+01  0.17221240867E+03  0.17796803841E+03  0.47000000000E+01 0. -1.
        -11    1    6    6    0    0 -0.14070641869E+02  0.14077038667E+03  0.81161623250E+03  0.82385386665E+03  0.00000000000E+00 0.  1.
         12    1    6    6    0    0 -0.33508047072E+02  0.23983887863E+02  0.12047857521E+03  0.12733068436E+03  0.00000000000E+00 0. -1.
         -5    1    3    3    0  503  0.25208496347E+02  0.18035903248E+02  0.48911793433E+02  0.58096606018E+02  0.47000000000E+01 0.  1.
         11    1    4    4    0    0 -0.35263798229E+02 -0.42961244226E+02  0.13439384571E+03  0.14543352343E+03  0.00000000000E+00 0. -1.
        -12    1    4    4    0    0  0.14048040525E+02 -0.13014988761E+03  0.55004330740E+03  0.56540603172E+03  0.00000000000E+00 0.  1.
</event>
<event>
12    1  0.8451514E-002  0.1753783E+03  0.7818608E-02  0.1173367E+00
         21   -1    0    0  503  502  0.00000000000E+00  0.00000000000E+00  0.10154123717E+04  0.10154123717E+04  0.00000000000E+00 0.  1.
         21   -1    0    0  501  503 -0.00000000000E+00 -0.00000000000E+00 -0.61085370745E+02  0.61085370745E+02  0.00000000000E+00 0.  1.
          6    2    1    2  501    0  0.21350160663E+01 -0.20166188966E+01  0.86088957679E+03  0.87778161987E+03  0.17135076222E+03 0.  0.
         24    2    3    3    0    0  0.42902295296E+02 -0.39461396063E+02  0.34198183166E+03  0.35590862732E+03  0.79508295784E+02 0.  0.
         -6    2    1    2    0  502 -0.21350160663E+01  0.20166188966E+01  0.93437424179E+02  0.19871612259E+03  0.17535369997E+03 0.  0.
        -24    2    5    5    0    0 -0.55673659398E+02  0.34546303334E+02  0.87653393855E+02  0.13562799608E+03  0.80117616301E+02 0.  0.
          5    1    3    3  501    0 -0.40767279230E+02  0.37444777167E+02  0.51890774513E+03  0.52187299255E+03  0.47000000000E+01 0. -1.
        -13    1    4    4    0    0  0.44013307818E+02 -0.59867531800E+02  0.30199632765E+03  0.31100333526E+03  0.00000000000E+00 0.  1.
         14    1    4    4    0    0 -0.11110125217E+01  0.20406135736E+02  0.39985504002E+02  0.44905292058E+02  0.00000000000E+00 0. -1.
         -5    1    5    5    0  502  0.53538643331E+02 -0.32529684437E+02  0.57840303243E+01  0.63088126507E+02  0.47000000000E+01 0.  1.
         11    1    6    6    0    0 -0.46212858581E+02 -0.46825140136E+01  0.91239293160E+01  0.47337092453E+02  0.00000000000E+00 0. -1.
        -12    1    6    6    0    0 -0.94608008163E+01  0.39228817347E+02  0.78529464539E+02  0.88290903627E+02  0.00000000000E+00 0.  1.
</event>
<event>
12    1  0.8451514E-002  0.2132597E+03  0.7818608E-02  0.1139294E+00
         21   -1    0    0  503  502  0.00000000000E+00  0.00000000000E+00  0.21014113578E+03  0.21014113578E+03  0.00000000000E+00 0. -1.
         21   -1    0    0  501  503 -0.00000000000E+00 -0.00000000000E+00 -0.33312725378E+03  0.33312725378E+03  0.00000000000E+00 0. -1.
          6    2    1    2  501    0  0.10802023842E+03 -0.61086153267E+02 -0.22314501091E+03  0.30765961544E+03  0.17164164137E+03 0.  0.
         24    2    3    3    0    0  0.11966786411E+03 -0.65145144797E+01 -0.20169780323E+03  0.24769459513E+03  0.79421483413E+02 0.  0.
         -6    2    1    2    0  502 -0.10802023842E+03  0.61086153267E+02  0.10015889290E+03  0.23560877412E+03  0.17343529221E+03 0.  0.
        -24    2    5    5    0    0 -0.22343327951E+02  0.70831526852E+02  0.75417315551E+01  0.10897728566E+03  0.79390437549E+02 0.  0.
          5    1    3    3  501    0 -0.11647625691E+02 -0.54571638787E+02 -0.21447207676E+02  0.59965020314E+02  0.47000000000E+01 0. -1.
        -11    1    4    4    0    0  0.35613494058E+02  0.14493181853E+02 -0.13918166821E+02  0.40891180552E+02  0.00000000000E+00 0.  1.
         12    1    4    4    0    0  0.84054370054E+02 -0.21007696333E+02 -0.18777963641E+03  0.20680341458E+03  0.00000000000E+00 0. -1.
         -5    1    5    5    0  502 -0.85676910470E+02 -0.97453735849E+01  0.92617161346E+02  0.12663148846E+03  0.47000000000E+01 0.  1.
         13    1    6    6    0    0  0.24180622996E+02  0.20510052604E+02  0.22438904033E+02  0.38844165592E+02  0.00000000000E+00 0. -1.
        -14    1    6    6    0    0 -0.46523950948E+02  0.50321474248E+02 -0.14897172478E+02  0.70133120065E+02  0.00000000000E+00 0.  1.
</event>
<event>
12    1  0.8451514E-002  0.1921122E+03  0.7818608E-02  0.1156960E+00
         21   -1    0    0  501  502  0.00000000000E+00  0.00000000000E+00  0.54031558719E+03  0.54031558719E+03  0.00000000000E+00 0. -1.
         21   -1    0    0  502  503 -0.00000000000E+00 -0.00000000000E+00 -0.23067431641E+03  0.23067431641E+03  0.00000000000E+00 0. -1.
         -6    2    1    2    0  503  0.80619102330E+01 -0.81405919380E+02 -0.16900879471E+03  0.25587313444E+03  0.17382511365E+03 0.  0.
        -24    2    3    3    0    0 -0.57036502777E+02 -0.80623371861E+02 -0.11861951620E+03  0.17341353739E+03  0.79046660833E+02 0.  0.
          6    2    1    2  501    0 -0.80619102330E+01  0.81405919380E+02  0.47865006549E+03  0.51511676915E+03  0.17189381189E+03 0.  0.
         24    2    5    5    0    0  0.27648933735E+02  0.52235860661E+02  0.11338002289E+03  0.14691784096E+03  0.72365556222E+02 0.  0.
          5    1    5    5  501    0 -0.35710843968E+02  0.29170058719E+02  0.36527004260E+03  0.36819892819E+03  0.47000000000E+01 0. -1.
        -11    1    6    6    0    0  0.22179834070E+02 -0.36246430075E+01  0.24635601167E+01  0.22608675431E+02  0.00000000000E+00 0.  1.
         12    1    6    6    0    0  0.54690996646E+01  0.55860503668E+02  0.11091646277E+03  0.12430916553E+03  0.00000000000E+00 0. -1.
         -5    1    3    3    0  503  0.65098413010E+02 -0.78254751881E+00 -0.50389278514E+02  0.82459597053E+02  0.47000000000E+01 0.  1.
         11    1    4    4    0    0 -0.20886893190E+02  0.37727766380E+01 -0.62033716216E+02  0.65564305062E+02  0.00000000000E+00 0. -1.
        -12    1    4    4    0    0 -0.36149609587E+02 -0.84396148499E+02 -0.56585799981E+02  0.10784923233E+03  0.00000000000E+00 0.  1.
</event>
<event>
12    1  0.8451514E-002  0.2012408E+03  0.7818608E-02  0.1149153E+00
         21   -1    0    0  501  502  0.00000000000E+00  0.00000000000E+00  0.31899731865E+02  0.31899731865E+02  0.00000000000E+00 0. -1.
         21   -1    0    0  502  503 -0.00000000000E+00 -0.00000000000E+00 -0.14812849954E+04  0.14812849954E+04  0.00000000000E+00 0. -1.
         -6    2    1    2    0  503  0.71702836372E+02  0.71211200781E+02 -0.10164951783E+04  0.10358047254E+04  0.17151282706E+03 0.  0.
        -24    2    3    3    0    0  0.67524299705E+02  0.10375776710E+03 -0.60478354463E+03  0.62276078292E+03  0.82113650476E+02 0.  0.
          6    2    1    2  501    0 -0.71702836372E+02 -0.71211200781E+02 -0.43289008522E+03  0.47738000182E+03  0.17402732084E+03 0.  0.
         24    2    5    5    0    0  0.13606029977E+02 -0.65711141432E+01 -0.27138829554E+03  0.28357375438E+03  0.80834173616E+02 0.  0.
          5    1    5    5  501    0 -0.85308866349E+02 -0.64640086638E+02 -0.16150178967E+03  0.19380624744E+03  0.47000000000E+01 0. -1.
        -11    1    6    6    0    0 -0.22692876050E+01  0.27659610724E+02 -0.37451860611E+02  0.46613791895E+02  0.00000000000E+00 0.  1.
         12    1    6    6    0    0  0.15875317582E+02 -0.34230724867E+02 -0.23393643493E+03  0.23695996249E+03  0.00000000000E+00 0. -1.
         -5    1    3    3    0  503  0.41785366672E+01 -0.32546566318E+02 -0.41171163367E+03  0.41304394251E+03  0.47000000000E+01 0.  1.
         11    1    4    4    0    0  0.39710032294E+02  0.18003054328E+02 -0.34573249047E+03  0.34847087625E+03  0.00000000000E+00 0. -1.
        -12    1    4    4    0    0  0.27814267411E+02  0.85754712771E+02 -0.25905105417E+03  0.27428990667E+03  0.00000000000E+00 0.  1.
</event>
<event>
12    1  0.8451514E-002  0.1931837E+03  0.7818608E-02  0.1156974E+00
         21   -1    0    0  503  502  0.00000000000E+00  0.00000000000E+00  0.14543221945E+03  0.14543221945E+03  0.00000000000E+00 0.  1.
         21   -1    0    0  501  503 -0.00000000000E+00 -0.00000000000E+00 -0.29611938019E+03  0.29611938019E+03  0.00000000000E+00 0.  1.
          6    2    1    2  501    0 -0.25914043291E+02 -0.80044326574E+02 -0.16471604870E+03  0.25387260552E+03  0.17390023369E+03 0.  0.
         24    2    3    3    0    0 -0.45945254888E+02 -0.11683692328E+03 -0.14023771524E+03  0.20512608340E+03  0.81536864201E+02 0.  0.
         -6    2    1    2    0  502  0.25914043291E+02  0.80044326574E+02  0.14028887970E+02  0.18767899412E+03  0.16717644355E+03 0.  0.
        -24    2    5    5    0    0  0.80147492654E+02  0.46393874433E+02  0.19963110224E+02  0.12340672208E+03  0.79086541972E+02 0.  0.
          5    1    3    3  501    0  0.20031211597E+02  0.36792596709E+02 -0.24478333457E+02  0.48746522127E+02  0.47000000000E+01 0. -1.
        -11    1    4    4    0    0 -0.43690207574E+02 -0.36451122713E+02 -0.19676141950E+02  0.60205225247E+02  0.00000000000E+00 0.  1.
         12    1    4    4    0    0 -0.22550473136E+01 -0.80385800570E+02 -0.12056157330E+03  0.14492085815E+03  0.00000000000E+00 0. -1.
         -5    1    5    5    0  502 -0.54233449363E+02  0.33650452141E+02 -0.59342222538E+01  0.64272272037E+02  0.47000000000E+01 0.  1.
         13    1    6    6    0    0 -0.66131736139E+01 -0.13535681702E+02  0.86077420905E+01  0.17350561037E+02  0.00000000000E+00 0. -1.
        -14    1    6    6    0    0  0.86760666268E+02  0.59929556135E+02  0.11355368134E+02  0.10605616104E+03  0.00000000000E+00 0.  1.
</event>
<event>
12    1  0.8451514E-002  0.2007877E+03  0.7818608E-02  0.1149244E+00
         21   -1    0    0  503  502  0.00000000000E+00  0.00000000000E+00  0.34975281317E+03  0.34975281317E+03  0.00000000000E+00 0. -1.
         21   -1    0    0  501  503 -0.00000000000E+00 -0.00000000000E+00 -0.12480711645E+03  0.12480711645E+03  0.00000000000E+00 0.  1.
          6    2    1    2  501    0 -0.26495742331E+00  0.10373213074E+03  0.45525800893E+02  0.20588419190E+03  0.17191648198E+03 0.  0.
         24    2    3    3    0    0  0.42825450634E+02  0.18819217540E+02 -0.16851873974E+02  0.91954167684E+02  0.77352447455E+02 0.  0.
         -6    2    1    2    0  502  0.26495742331E+00 -0.10373213074E+03  0.17941989583E+03  0.26867573773E+03  0.17098165946E+03 0.  0.
        -24    2    5    5    0    0  0.83960441892E+01  0.11675061811E+02  0.94645271994E+02  0.12517047123E+03  0.80641916713E+02 0.  0.
          5    1    3    3  501    0 -0.43090408057E+02  0.84912913203E+02  0.62377674867E+02  0.11393002421E+03  0.47000000000E+01 0. -1.
        -13    1    4    4    0    0  0.27938601574E+02 -0.69393293697E+01 -0.43400509861E+02  0.52079977018E+02  0.00000000000E+00 0.  1.
         14    1    4    4    0    0  0.14886849060E+02  0.25758546910E+02  0.26548635887E+02  0.39874190666E+02  0.00000000000E+00 0. -1.
         -5    1    5    5    0  502 -0.81310867659E+01 -0.11540719255E+03  0.84774623837E+02  0.14350526650E+03  0.47000000000E+01 0.  1.
         11    1    6    6    0    0  0.40352956807E+02  0.20033385628E+02  0.72650962196E+02  0.85486022078E+02  0.00000000000E+00 0. -1.
        -12    1    6    6    0    0 -0.31956912618E+02 -0.83583238170E+01  0.21994309798E+02  0.39684449153E+02  0.00000000000E+00 0.  1.
</event>
<event>
12    1  0.8451514E-002  0.1761553E+03  0.7818608E-02  0.1171781E+00
         21   -1    0    0  501  502  0.00000000000E+00  0.00000000000E+00  0.10447942980E+04  0.10447942980E+04  0.00000000000E+00 0.  1.
         21   -1    0    0  502  503 -0.00000000000E+00 -0.00000000000E+00 -0.32143518137E+02  0.32143518137E+02  0.00000000000E+00 0.  1.
         -6    2    1    2    0  503  0.23082326422E+02  0.25907504872E+02  0.65998637158E+03  0.68309054901E+03  0.17270406735E+03 0.  0.
        -24    2    3    3    0    0 -0.55348278640E+02 -0.13776802161E+02  0.23478470189E+03  0.24887314501E+03  0.59672052400E+02 0.  0.
          6    2    1    2  501    0 -0.23082326422E+02 -0.25907504872E+02  0.35266440825E+03  0.39384726709E+03  0.17187056859E+03 0.  0.
         24    2    5    5    0    0 -0.62693333711E+02  0.10753937778E+02  0.30384450269E+03  0.32091876475E+03  0.81371189497E+02 0.  0.
          5    1    5    5  501    0  0.39611007289E+02 -0.36661442650E+02  0.48819905559E+02  0.72928502346E+02  0.47000000000E+01 0. -1.
        -11    1    6    6    0    0 -0.60049084621E+02 -0.11770140478E+02  0.11103541456E+03  0.12678048769E+03  0.00000000000E+00 0.  1.
         12    1    6    6    0    0 -0.26442490894E+01  0.22524078256E+02  0.19280908813E+03  0.19413827706E+03  0.00000000000E+00 0. -1.
         -5    1    3    3    0  503  0.78430605062E+02  0.39684307033E+02  0.42520166969E+03  0.43421740400E+03  0.47000000000E+01 0.  1.
         13    1    4    4    0    0  0.36465968196E+01 -0.21409950656E+02  0.44683764418E+02  0.49682214706E+02  0.00000000000E+00 0. -1.
        -14    1    4    4    0    0 -0.58994875459E+02  0.76331484953E+01  0.19010093747E+03  0.19919093030E+03  0.00000000000E+00 0.  1.
</event>
<event>
12    1  0.8451514E-002  0.2071766E+03  0.7818608E-02  0.1143919E+00
         21   -1    0    0  503  502  0.00000000000E+00  0.00000000000E+00  0.78952856341E+03  0.78952856341E+03  0.00000000000E+00 0. -1.
         21   -1    0    0  501  503 -0.00000000000E+00 -0.00000000000E+00 -0.10742950604E+03  0.10742950604E+03  0.00000000000E+00 0. -1.
          6    2    1    2  501    0 -0.34365498651E+02  0.11079589028E+03  0.25675674996E+02  0.20876159145E+03  0.17165501734E+03 0.  0.
         24    2    3    3    0    0 -0.14338352430E+02  0.35722911801E+00 -0.25991654761E+02  0.85111328896E+02  0.79766259949E+02 0.  0.
         -6    2    1    2    0  502  0.34365498651E+02 -0.11079589028E+03  0.65642338238E+03  0.68819647801E+03  0.17107313818E+03 0.  0.
        -24    2    5    5    0    0  0.77489572848E+02 -0.46635719203E+02  0.29998746701E+03  0.32344332162E+03  0.80271898776E+02 0.  0.
          5    1    3    3  501    0 -0.20027146221E+02  0.11043866116E+03  0.51667329757E+02  0.12365026255E+03  0.47000000000E+01 0. -1.
        -13    1    4    4    0    0 -0.18783611679E+02 -0.37423891348E+02 -0.20676775727E+02  0.46700115265E+02  0.00000000000E+00 0.  1.
         14    1    4    4    0    0  0.44452592491E+01  0.37781120466E+02 -0.53148790337E+01  0.38411213631E+02  0.00000000000E+00 0. -1.
         -5    1    5    5    0  502 -0.43124074197E+02 -0.64160171076E+02  0.35643591537E+03  0.36475315638E+03  0.47000000000E+01 0.  1.
         11    1    6    6    0    0  0.71115300108E+02 -0.36041718353E+02  0.30066984303E+03  0.31106067877E+03  0.00000000000E+00 0. -1.
        -12    1    6    6    0    0  0.63742727397E+01 -0.10594000849E+02 -0.68237601694E+00  0.12382642851E+02  0.00000000000E+00 0.  1.
</event>
<event>
12    1  0.8451514E-002  0.2929346E+03  0.7818608E-02  0.1088990E+00
         21   -1    0    0  501  502  0.00000000000E+00  0.00000000000E+00  0.20603003975E+03  0.20603003975E+03  0.00000000000E+00 0. -1.
         21   -1    0    0  502  503 -0.00000000000E+00 -0.00000000000E+00 -0.44377227968E+03  0.44377227968E+03  0.00000000000E+00 0. -1.
         -6    2    1    2    0  503 -0.10911964450E+03 -0.20998999028E+03 -0.20226460525E+03  0.35597983958E+03  0.17264930587E+03 0.  0.
        -24    2    3    3    0    0 -0.99455102641E+02 -0.13768368941E+03 -0.62863520807E+02  0.19857476705E+03  0.81437092836E+02 0.  0.
          6    2    1    2  501    0  0.10911964450E+03  0.20998999028E+03 -0.35477634690E+02  0.29382247985E+03  0.17049954331E+03 0.  0.
         24    2    5    5    0    0  0.88138595213E+02  0.19242629799E+03 -0.81042259420E+02  0.24046601124E+03  0.80372648473E+02 0.  0.
          5    1    5    5  501    0  0.20981049291E+02  0.17563692285E+02  0.45564624730E+02  0.53356468613E+02  0.47000000000E+01 0. -1.
        -11    1    6    6    0    0  0.28733910773E+02  0.84699726438E+02  0.61930705572E+01  0.89655091378E+02  0.00000000000E+00 0.  1.
         12    1    6    6    0    0  0.59404684440E+02  0.10772657156E+03 -0.87235329978E+02  0.15081091986E+03  0.00000000000E+00 0. -1.
         -5    1    3    3    0  503 -0.96645418633E+01 -0.72306300866E+02 -0.13940108444E+03  0.15740507253E+03  0.47000000000E+01 0.  1.
         11    1    4    4    0    0 -0.72048346020E+02 -0.13842324799E+03 -0.68764626139E+02  0.17053015439E+03  0.00000000000E+00 0. -1.
        -12    1    4    4    0    0 -0.27406756622E+02  0.73955857256E+00  0.59011053319E+01  0.28044612665E+02  0.00000000000E+00 0.  1.
</event>
<event>
12    1  0.8451514E-002  0.2505866E+03  0.7818608E-02  0.1112949E+00
         21   -1    0    0  501  502  0.00000000000E+00  0.00000000000E+00  0.43535270177E+03  0.43535270177E+03  0.00000000000E+00 0. -1.
         21   -1    0    0  502  503 -0.00000000000E+00 -0.00000000000E+00 -0.30029220462E+03  0.30029220462E+03  0.00000000000E+00 0. -1.
         -6    2    1    2    0  503  0.40370308100E+00  0.18197256789E+03 -0.19766780188E+03  0.31916484218E+03  0.17227727112E+03 0.  0.
        -24    2    3    3    0    0 -0.42345919640E+02  0.87678068935E+02 -0.17002693612E+03  0.21190305851E+03  0.80703943629E+02 0.  0.
          6    2    1    2  501    0 -0.40370308100E+00 -0.18197256789E+03  0.33272829904E+03  0.41648006421E+03  0.17214338343E+03 0.  0.
         24    2    5    5    0    0 -0.20255925667E+01 -0.10000526795E+03  0.30392262692E+03  0.32945635749E+03  0.78532615467E+02 0.  0.
          5    1    5    5  501    0  0.16218894857E+01 -0.81967299938E+02  0.28805672117E+02  0.87023706717E+02  0.47000000000E+01 0. -1.
        -11    1    6    6    0    0  0.29504333059E+02 -0.84281732489E+02  0.24545333160E+03  0.26119198704E+03  0.00000000000E+00 0.  1.
         12    1    6    6    0    0 -0.31529925626E+02 -0.15723535463E+02  0.58469295324E+02  0.68264370452E+02  0.00000000000E+00 0. -1.
         -5    1    3    3    0  503  0.42749622721E+02  0.94294498955E+02 -0.27640865758E+02  0.10726178367E+03  0.47000000000E+01 0.  1.
         13    1    4    4    0    0 -0.11245239912E+02 -0.14138412390E+02 -0.39727320044E+02  0.43641838681E+02  0.00000000000E+00 0. -1.
        -14    1    4    4    0    0 -0.31100679729E+02  0.10181648132E+03 -0.13029961608E+03  0.16826121983E+03  0.00000000000E+00 0.  1.
</event>
<event>
12    1  0.8451514E-002  0.1806795E+03  0.7818608E-02  0.1167562E+00
         21   -1    0    0  501  502  0.00000000000E+00  0.00000000000E+00  0.67343755451E+03  0.67343755451E+03  0.00000000000E+00 0.  1.
         21   -1    0    0  502  503 -0.00000000000E+00 -0.00000000000E+00 -0.14196404422E+03  0.14196404422E+03  0.00000000000E+00 0.  1.
         -6    2    1    2    0  503  0.49281841052E+02 -0.23923767957E+02 -0.66352540771E+02  0.19086890506E+03  0.17037380292E+03 0.  0.
        -24    2    3    3    0    0  0.62535037902E+02 -0.34433671485E+01 -0.10392826853E+03  0.14582315765E+03  0.80875339654E+02 0.  0.
          6    2    1    2  501    0 -0.49281841052E+02  0.23923767957E+02  0.59782605106E+03  0.62453269366E+03  0.17217448012E+03 0.  0.
         24    2    5    5    0    0 -0.89294251847E+02 -0.12247834581E+02  0.32326439721E+03  0.34468350283E+03  0.78634431103E+02 0.  0.
          5    1    5    5  501    0  0.40012410795E+02  0.36171602538E+02  0.27456165385E+03  0.27984919083E+03  0.47000000000E+01 0. -1.
        -13    1    6    6    0    0 -0.56894876407E+02  0.16669890768E+02  0.26756726842E+03  0.27405684693E+03  0.00000000000E+00 0.  1.
         14    1    6    6    0    0 -0.32399375440E+02 -0.28917725349E+02  0.55697128794E+02  0.70626655904E+02  0.00000000000E+00 0. -1.
         -5    1    3    3    0  503 -0.13253196850E+02 -0.20480400808E+02  0.37575727755E+02  0.45045747417E+02  0.47000000000E+01 0.  1.
         13    1    4    4    0    0 -0.12016288214E+02  0.19063935914E+02 -0.36072170625E+02  0.42532650147E+02  0.00000000000E+00 0. -1.
        -14    1    4    4    0    0  0.74551326116E+02 -0.22507303063E+02 -0.67856097901E+02  0.10329050750E+03  0.00000000000E+00 0.  1.
</event>
<event>
12    1  0.8451514E-002  0.2498886E+03  0.7818608E-02  0.1114249E+00
         21   -1    0    0  503  502  0.00000000000E+00  0.00000000000E+00  0.79525158018E+03  0.79525158018E+03  0.00000000000E+00 0. -1.
         21   -1    0    0  501  503 -0.00000000000E+00 -0.00000000000E+00 -0.10208083862E+03  0.10208083862E+03  0.00000000000E+00 0. -1.
          6    2    1    2  501    0 -0.18108204848E+03 -0.36885596111E+01  0.12049738089E+03  0.27251318983E+03  0.16413258688E+03 0.  0.
         24    2    3    3    0    0 -0.19755652179E+02  0.12905263174E+01  0.37132741044E+02  0.90791560357E+02  0.80450703685E+02 0.  0.
         -6    2    1    2    0  502  0.18108204848E+03  0.36885596111E+01  0.57267336068E+03  0.62481922898E+03  0.17216264729E+03 0.  0.
        -24    2    5    5    0    0  0.17469306755E+03 -0.30495268058E+02  0.36013875953E+03  0.40940706629E+03  0.80415114175E+02 0.  0.
          5    1    3    3  501    0 -0.16132639630E+03 -0.49790859285E+01  0.83364639841E+02  0.18172162947E+03  0.47000000000E+01 0. -1.
        -13    1    4    4    0    0 -0.85030613417E+01  0.12977877449E+02  0.60436606470E+02  0.62396400192E+02  0.00000000000E+00 0.  1.
         14    1    4    4    0    0 -0.11252590837E+02 -0.11687351132E+02 -0.23303865426E+02  0.28395160165E+02  0.00000000000E+00 0. -1.
         -5    1    5    5    0  502  0.63889809327E+01  0.34183827669E+02  0.21253460114E+03  0.21541216269E+03  0.47000000000E+01 0.  1.
         13    1    6    6    0    0  0.12724426370E+03  0.10934650279E+02  0.27767898983E+03  0.30564078690E+03  0.00000000000E+00 0. -1.
        -14    1    6    6    0    0  0.47448803852E+02 -0.41429918337E+02  0.82459769703E+02  0.10376627940E+03  0.00000000000E+00 0.  1.
</event>
<event>
12    1  0.8451514E-002  0.2002803E+03  0.7818608E-02  0.1149886E+00
         21   -1    0    0  503  502  0.00000000000E+00  0.00000000000E+00  0.32688644453E+03  0.32688644453E+03  0.00000000000E+00 0. -1.
         21   -1    0    0  501  503 -0.00000000000E+00 -0.00000000000E+00 -0.12754256217E+03  0.12754256217E+03  0.00000000000E+00 0. -1.
          6    2    1    2  501    0  0.60575175463E+02  0.81469967834E+02  0.51064614046E+02  0.20668762525E+03  0.17264261375E+03 0.  0.
         24    2    3    3    0    0 -0.22074710145E+02  0.62270342939E+02  0.62847464147E+02  0.12089394982E+03  0.79376664805E+02 0.  0.
         -6    2    1    2    0  502 -0.60575175463E+02 -0.81469967834E+02  0.14827926831E+03  0.24774138145E+03  0.17053546004E+03 0.  0.
        -24    2    5    5    0    0 -0.63105682785E+02 -0.71215545137E+01  0.26233573656E+02  0.10473322919E+03  0.79043058967E+02 0.  0.
          5    1    3    3  501    0  0.82649885608E+02  0.19199624895E+02 -0.11782850100E+02  0.85793675429E+02  0.47000000000E+01 0. -1.
        -13    1    4    4    0    0 -0.13060676430E+01  0.18403506017E+02 -0.18525725367E+02  0.26145694613E+02  0.00000000000E+00 0.  1.
         14    1    4    4    0    0 -0.20768642502E+02  0.43866836921E+02  0.81373189514E+02  0.94748255206E+02  0.00000000000E+00 0. -1.
         -5    1    5    5    0  502  0.25305073212E+01 -0.74348413320E+02  0.12204569466E+03  0.14300815227E+03  0.47000000000E+01 0.  1.
         13    1    6    6    0    0 -0.44991392437E+02 -0.22891748879E+02  0.49924293893E+02  0.70997835748E+02  0.00000000000E+00 0. -1.
        -14    1    6    6    0    0 -0.18114290348E+02  0.15770194366E+02 -0.23690720238E+02  0.33735393439E+02  0.00000000000E+00 0.  1.
</event>
<event>
12    1  0.8451514E-002  0.2102746E+03  0.7818608E-02  0.1141495E+00
         21   -1    0    0  503  502  0.00000000000E+00  0.00000000000E+00  0.11563690581E+04  0.11563690581E+04  0.00000000000E+00 0.  1.
         21   -1    0    0  501  503 -0.00000000000E+00 -0.00000000000E+00 -0.66729483854E+02  0.66729483854E+02  0.00000000000E+00 0.  1.
          6    2    1    2  501    0 -0.41843834374E+02 -0.11274161888E+03  0.14371524824E+03  0.25408448859E+03  0.17159042999E+03 0.  0.
         24    2    3    3    0    0 -0.13667673630E+02 -0.87490374171E+02  0.17126139710E+03  0.20704831410E+03  0.75479582411E+02 0.  0.
         -6    2    1    2    0  502  0.41843834374E+02  0.11274161888E+03  0.94592432597E+03  0.96901405333E+03  0.17249297369E+03 0.  0.
        -24    2    5    5    0    0 -0.36261883334E+02  0.97625850023E+02  0.59942218253E+03  0.61346544200E+03  0.78658533172E+02 0.  0.
          5    1    3    3  501    0 -0.28176160744E+02 -0.25251244705E+02 -0.27546148863E+02  0.47036174489E+02  0.47000000000E+01 0. -1.
        -13    1    4    4    0    0 -0.38258701222E+02 -0.73871017836E+02  0.97821152844E+02  0.12841196766E+03  0.00000000000E+00 0.  1.
         14    1    4    4    0    0  0.24591027591E+02 -0.13619356335E+02  0.73440244258E+02  0.78636346441E+02  0.00000000000E+00 0. -1.
         -5    1    5    5    0  502  0.78105717708E+02  0.15115768853E+02  0.34650214344E+03  0.35554861133E+03  0.47000000000E+01 0.  1.
         11    1    6    6    0    0 -0.66132828747E+01  0.63808252701E+02  0.17010786503E+03  0.18180185468E+03  0.00000000000E+00 0. -1.
        -12    1    6    6    0    0 -0.29648600459E+02  0.33817597322E+02  0.42931431751E+03  0.43166358731E+03  0.00000000000E+00 0.  1.
</event>
<event>
12    1  0.8451514E-002  0.2006581E+03  0.7818608E-02  0.1149582E+00
         21   -1    0    0  503  502  0.00000000000E+00  0.00000000000E+00  0.32827189370E+03  0.32827189370E+03  0.00000000000E+00 0. -1.
         21   -1    0    0  501  503 -0.00000000000E+00 -0.00000000000E+00 -0.14163631181E+03  0.14163631181E+03  0.00000000000E+00 0. -1.
          6    2    1    2  501    0 -0.63591646760E+02 -0.74425006271E+02  0.43634365362E+01  0.19882372082E+03  0.17299957597E+03 0.  0.
         24    2    3    3    0    0  0.81417739119E+01 -0.66479601645E+02  0.60462374601E+02  0.10729233851E+03  0.58052745354E+02 0.  0.
         -6    2    1    2    0  502  0.63591646760E+02  0.74425006271E+02  0.18227214535E+03  0.27108448469E+03  0.17515902425E+03 0.  0.
        -24    2    5    5    0    0  0.72792010816E+02  0.15776714080E+01  0.16216423514E+03  0.19480998733E+03  0.79702735949E+02 0.  0.
          5    1    3    3  501    0 -0.71733420672E+02 -0.79454046261E+01 -0.56098938065E+02  0.91531382312E+02  0.47000000000E+01 0. -1.
        -13    1    4    4    0    0 -0.80311459215E+01 -0.23314745710E+02  0.55745985560E+02  0.60956472818E+02  0.00000000000E+00 0.  1.
         14    1    4    4    0    0  0.16172919833E+02 -0.43164855935E+02  0.47163890410E+01  0.46335865692E+02  0.00000000000E+00 0. -1.
         -5    1    5    5    0  502 -0.92003640566E+01  0.72847334863E+02  0.20107910209E+02  0.76274497366E+02  0.47000000000E+01 0.  1.
         11    1    6    6    0    0  0.65331266170E+02  0.11039222689E+02  0.52634054064E+02  0.84619042917E+02  0.00000000000E+00 0. -1.
        -12    1    6    6    0    0  0.74607446463E+01 -0.94615512812E+01  0.10953018108E+03  0.11019094441E+03  0.00000000000E+00 0.  1.
</event>
<event>
12    1  0.8451514E-002  0.1893867E+03  0.7818608E-02  0.1159155E+00
         21   -1    0    0  501  502  0.00000000000E+00  0.00000000000E+00  0.57153375395E+03  0.57153375395E+03  0.00000000000E+00 0. -1.
         21   -1    0    0  502  503 -0.00000000000E+00 -0.00000000000E+00 -0.12283652765E+03  0.12283652765E+03  0.00000000000E+00 0. -1.
         -6    2    1    2    0  503 -0.65479959402E+02 -0.40307186882E+02 -0.18685226117E+02  0.19030620437E+03  0.17307518409E+03 0.  0.
        -24    2    3    3    0    0 -0.53711822273E+02 -0.41333571941E+02 -0.76793694772E+02  0.13082320976E+03  0.81388061993E+02 0.  0.
          6    2    1    2  501    0  0.65479959402E+02  0.40307186882E+02  0.46738245242E+03  0.50406407723E+03  0.17240052993E+03 0.  0.
         24    2    5    5    0    0  0.31700512896E+02  0.84638759251E+02  0.24628056290E+03  0.27599725617E+03  0.85742216367E+02 0.  0.
          5    1    5    5  501    0  0.33779446507E+02 -0.44331572369E+02  0.22110188953E+03  0.22806682106E+03  0.47000000000E+01 0. -1.
        -11    1    6    6    0    0 -0.27403717039E+02  0.41433688288E+02  0.77929468705E+02  0.92415996047E+02  0.00000000000E+00 0.  1.
         12    1    6    6    0    0  0.59104229934E+02  0.43205070963E+02  0.16835109419E+03  0.18358126012E+03  0.00000000000E+00 0. -1.
         -5    1    3    3    0  503 -0.11768137129E+02  0.10263850591E+01  0.58108468655E+02  0.59482994605E+02  0.47000000000E+01 0.  1.
         11    1    4    4    0    0 -0.38044924351E+02  0.19487239705E+02 -0.36445783183E+02  0.56173515931E+02  0.00000000000E+00 0. -1.
        -12    1    4    4    0    0 -0.15666897922E+02 -0.60820811646E+02 -0.40347911589E+02  0.74649693833E+02  0.00000000000E+00 0.  1.
</event>
<event>
12    1  0.8451514E-002  0.2042161E+03  0.7818608E-02  0.1148721E+00
         21   -1    0    0  501  502  0.00000000000E+00  0.00000000000E+00  0.49579587194E+03  0.49579587194E+03  0.00000000000E+00 0.  1.
         21   -1    0    0  502  503 -0.00000000000E+00 -0.00000000000E+00 -0.92959922348E+02  0.92959922348E+02  0.00000000000E+00 0.  1.
         -6    2    1    2    0  503 -0.60651626969E+02 -0.66139272561E+02  0.93886648119E+02  0.22476412242E+03  0.18344259266E+03 0.  0.
        -24    2    3    3    0    0  0.32977250488E+01 -0.22131954139E+02 -0.21375488965E+02  0.85718755926E+02  0.79938071058E+02 0.  0.
          6    2    1    2  501    0  0.60651626969E+02  0.66139272561E+02  0.30894930148E+03  0.36399167187E+03  0.17025640393E+03 0.  0.
         24    2    5    5    0    0  0.56603610346E+02  0.98579866419E+02  0.15673721359E+03  0.20823741586E+03  0.76644037415E+02 0.  0.
          5    1    5    5  501    0  0.40480166237E+01 -0.32440593858E+02  0.15221208788E+03  0.15575425601E+03  0.47000000000E+01 0. -1.
        -11    1    6    6    0    0  0.72306286710E+02  0.65419686138E+02  0.13149118130E+03  0.16370053510E+03  0.00000000000E+00 0.  1.
         12    1    6    6    0    0 -0.15702676365E+02  0.33160180281E+02  0.25246032296E+02  0.44536880762E+02  0.00000000000E+00 0. -1.
         -5    1    3    3    0  503 -0.63949352018E+02 -0.44007318422E+02  0.11526213708E+03  0.13904536649E+03  0.47000000000E+01 0.  1.
         13    1    4    4    0    0  0.17076721973E+01  0.30398977365E+02 -0.72363629765E+01  0.31295030250E+02  0.00000000000E+00 0. -1.
        -14    1    4    4    0    0  0.15900528515E+01 -0.52530931504E+02 -0.14139125988E+02  0.54423725676E+02  0.00000000000E+00 0.  1.
</event>
<event>
12    1  0.8451514E-002  0.1842051E+03  0.7818608E-02  0.1165283E+00
         21   -1    0    0  503  502  0.00000000000E+00  0.00000000000E+00  0.44499511498E+02  0.44499511498E+02  0.00000000000E+00 0.  1.
         21   -1    0    0  501  503 -0.00000000000E+00 -0.00000000000E+00 -0.74037447797E+03  0.74037447797E+03  0.00000000000E+00 0. -1.
          6    2    1    2  501    0  0.49172671554E+02  0.24721932798E+01 -0.36862345361E+03  0.40934094418E+03  0.17103419150E+03 0.  0.
         24    2    3    3    0    0 -0.10079958165E+02  0.15623630343E+02 -0.68839111274E+02  0.10343805708E+03  0.74932669978E+02 0.  0.
         -6    2    1    2    0  502 -0.49172671554E+02 -0.24721932798E+01 -0.32725151286E+03  0.37553304529E+03  0.17750338607E+03 0.  0.
        -24    2    5    5    0    0 -0.98432994070E+02 -0.20512427902E+02 -0.20274582722E+03  0.24034508281E+03  0.80932529673E+02 0.  0.
          5    1    3    3  501    0  0.59252629720E+02 -0.13151437063E+02 -0.29978434233E+03  0.30590288710E+03  0.47000000000E+01 0. -1.
        -13    1    4    4    0    0  0.88804261325E+01  0.11822786025E+02  0.12789479958E+02  0.19550218292E+02  0.00000000000E+00 0.  1.
         14    1    4    4    0    0 -0.18960384298E+02  0.38008443179E+01 -0.81628591232E+02  0.83887838789E+02  0.00000000000E+00 0. -1.
         -5    1    5    5    0  502  0.49260322515E+02  0.18040234622E+02 -0.12450568565E+03  0.13518796247E+03  0.47000000000E+01 0.  1.
         13    1    6    6    0    0 -0.93997875769E+02 -0.25631160942E+02 -0.10837526225E+03  0.14573178969E+03  0.00000000000E+00 0. -1.
        -14    1    6    6    0    0 -0.44351183006E+01  0.51187330399E+01 -0.94370564972E+02  0.94613293122E+02  0.00000000000E+00 0.  1.
</event>
<event>
12    1  0.8451514E-002  0.2040728E+03  0.7818608E-02  0.1146416E+00
         21   -1    0    0  503  502  0.00000000000E+00  0.00000000000E+00  0.60695765949E+02  0.60695765949E+02  0.00000000000E+00 0. -1.
         21   -1    0    0  501  503 -0.00000000000E+00 -0.00000000000E+00 -0.75446806742E+03  0.75446806742E+03  0.00000000000E+00 0. -1.
          6    2    1    2  501    0 -0.10345249721E+03 -0.28297294751E+02 -0.22297476067E+03  0.30204001783E+03  0.17322607312E+03 0.  0.
         24    2    3    3    0    0 -0.93034650252E-01  0.13681713978E+02 -0.45625234530E+02  0.92468168350E+02  0.79255928354E+02 0.  0.
         -6    2    1    2    0  502  0.10345249721E+03  0.28297294751E+02 -0.47079754080E+03  0.51312381554E+03  0.17361615586E+03 0.  0.
        -24    2    5    5    0    0  0.12081074703E+02  0.49825103540E+02 -0.14426898761E+03  0.17333686839E+03  0.81262758065E+02 0.  0.
          5    1    3    3  501    0 -0.10335946256E+03 -0.41979008729E+02 -0.17734952614E+03  0.20957184948E+03  0.47000000000E+01 0. -1.
        -13    1    4    4    0    0  0.26844524859E+00 -0.19795447798E+02  0.13889083155E+02  0.24183433322E+02  0.00000000000E+00 0.  1.
         14    1    4    4    0    0 -0.36147989884E+00  0.33477161776E+02 -0.59514317685E+02  0.68284735028E+02  0.00000000000E+00 0. -1.
         -5    1    5    5    0  502  0.91371422505E+02 -0.21527808790E+02 -0.32652855319E+03  0.33978694715E+03  0.47000000000E+01 0.  1.
         11    1    6    6    0    0  0.45360224008E+02  0.14820215789E+02 -0.74875847431E+02  0.88789533429E+02  0.00000000000E+00 0. -1.
        -12    1    6    6    0    0 -0.33279149305E+02  0.35004887752E+02 -0.69393140179E+02  0.84547334960E+02  0.00000000000E+00 0.  1.
</event>
<event>
12    1  0.8451514E-002  0.1755776E+03  0.7818608E-02  0.1172363E+00
         21   -1    0    0  501  502  0.00000000000E+00  0.00000000000E+00  0.61998675663E+03  0.61998675663E+03  0.00000000000E+00 0.  1.
         21   -1    0    0  502  503 -0.00000000000E+00 -0.00000000000E+00 -0.71132155864E+02  0.71132155864E+02  0.00000000000E+00 0.  1.
         -6    2    1    2    0  503  0.38027101798E+02  0.28245341707E+01  0.83344275390E+02  0.19359771539E+03  0.17052791179E+03 0.  0.
        -24    2    3    3    0    0  0.55866102730E+02  0.12335400643E+02  0.11784810705E+03  0.15333245822E+03  0.79683642400E+02 0.  0.
          6    2    1    2  501    0 -0.38027101798E+02 -0.28245341707E+01  0.46551032538E+03  0.49752119711E+03  0.17138681418E+03 0.  0.
         24    2    5    5    0    0 -0.26043868131E+02 -0.52237020341E+02  0.41343253181E+03  0.42458712920E+03  0.77076472172E+02 0.  0.
          5    1    5    5  501    0 -0.11983233666E+02  0.49412486170E+02  0.52077793566E+02  0.72934067906E+02  0.47000000000E+01 0. -1.
        -11    1    6    6    0    0 -0.32955629332E+01 -0.25313887408E+02  0.35792626512E+03  0.35883542870E+03  0.00000000000E+00 0.  1.
         12    1    6    6    0    0 -0.22748305198E+02 -0.26923132933E+02  0.55506266692E+02  0.65751700498E+02  0.00000000000E+00 0. -1.
         -5    1    3    3    0  503 -0.17839000932E+02 -0.95108664727E+01 -0.34503831660E+02  0.40265257164E+02  0.47000000000E+01 0.  1.
         13    1    4    4    0    0  0.40386592737E+02 -0.18598169862E+02  0.18541919333E+02  0.48174387050E+02  0.00000000000E+00 0. -1.
        -14    1    4    4    0    0  0.15479509993E+02  0.30933570505E+02  0.99306187717E+02  0.10515807117E+03  0.00000000000E+00 0.  1.
</event>
<event>
12    1  0.8451514E-002  0.1766452E+03  0.7818608E-02  0.1171351E+00
         21   -1    0    0  503  502  0.00000000000E+00  0.00000000000E+00  0.94662790293E+02  0.94662790293E+02  0.00000000000E+00 0.  1.
         21   -1    0    0  501  503 -0.00000000000E+00 -0.00000000000E+00 -0.41393480118E+03  0.41393480118E+03  0.00000000000E+00 0.  1.
          6    2    1    2  501    0  0.24850496089E+02 -0.25505709194E+02 -0.27610193999E+03  0.32777403445E+03  0.17301863493E+03 0.  0.
         24    2    3    3    0    0 -0.21660838434E+02 -0.44924155554E+02 -0.77605835682E+02  0.12292488575E+03  0.81243400531E+02 0.  0.
         -6    2    1    2    0  502 -0.24850496089E+02  0.25505709194E+02 -0.43170070892E+02  0.18082355702E+03  0.17194596650E+03 0.  0.
        -24    2    5    5    0    0 -0.18064389158E+02  0.21322485296E+02 -0.96265817012E+02  0.12692737102E+03  0.77861925574E+02 0.  0.
          5    1    3    3  501    0  0.46511334522E+02  0.19418446360E+02 -0.19849610431E+03  0.20484914870E+03  0.47000000000E+01 0. -1.
        -11    1    4    4    0    0 -0.41585139238E+02 -0.39708551770E+02 -0.83609209997E+02  0.10147212861E+03  0.00000000000E+00 0.  1.
         12    1    4    4    0    0  0.19924300804E+02 -0.52156037847E+01  0.60033743152E+01  0.21452757132E+02  0.00000000000E+00 0. -1.
         -5    1    5    5    0  502 -0.67861069304E+01  0.41832238982E+01  0.53095746120E+02  0.53896186002E+02  0.47000000000E+01 0.  1.
         13    1    6    6    0    0  0.30665373327E+02  0.90324327529E+01 -0.44361666963E+02  0.54680046255E+02  0.00000000000E+00 0. -1.
        -14    1    6    6    0    0 -0.48729762485E+02  0.12290052543E+02 -0.51904150050E+02  0.72247324765E+02  0.00000000000E+00 0.  1.
</event>
<event>
12    1  0.8451514E-002  0.2379524E+03  0.7818608E-02  0.1122254E+00
         21   -1    0    0  503  502  0.00000000000E+00  0.00000000000E+00  0.55728103349E+03  0.55728103349E+03  0.00000000000E+00 0. -1.
         21   -1    0    0  501  503 -0.00000000000E+00 -0.00000000000E+00 -0.10517839012E+03  0.10517839012E+03  0.00000000000E+00 0. -1.
          6    2    1    2  501    0 -0.12432083602E+03  0.10402440957E+03  0.14800833238E+03  0.28022816041E+03  0.17419703607E+03 0.  0.
         24    2    3    3    0    0 -0.12879919896E+03  0.23363133362E+02  0.72111713042E+02  0.16928365157E+03  0.79509659012E+02 0.  0.
         -6    2    1    2    0  502  0.12432083602E+03 -0.10402440957E+03  0.30409431099E+03  0.38223126320E+03  0.16538029065E+03 0.  0.
        -24    2    5    5    0    0  0.14523619512E+03 -0.66969898401E+02  0.28248736320E+03  0.33427879468E+03  0.79778960510E+02 0.  0.
          5    1    3    3  501    0  0.44783629450E+01  0.80661276211E+02  0.75896619343E+02  0.11094450884E+03  0.47000000000E+01 0. -1.
        -11    1    4    4    0    0  0.98177275690E+01 -0.39469964337E+01 -0.17548743295E+00  0.10582880104E+02  0.00000000000E+00 0.  1.
         12    1    4    4    0    0 -0.13861692653E+03  0.27310129796E+02  0.72287200475E+02  0.15870077146E+03  0.00000000000E+00 0. -1.
         -5    1    5    5    0  502 -0.20915359104E+02 -0.37054511172E+02  0.21606947794E+02  0.47952468525E+02  0.47000000000E+01 0.  1.
         11    1    6    6    0    0  0.17571959189E+02 -0.91422719267E+01  0.10024100877E+01  0.19833298054E+02  0.00000000000E+00 0. -1.
        -12    1    6    6    0    0  0.12766423593E+03 -0.57827626475E+02  0.28148495311E+03  0.31444549662E+03  0.00000000000E+00 0.  1.
</event>
<event>
12    1  0.8451514E-002  0.1905515E+03  0.7818608E-02  0.1158323E+00
         21   -1    0    0  501  502  0.00000000000E+00  0.00000000000E+00  0.40039000147E+02  0.40039000147E+02  0.00000000000E+00 0.  1.
         21   -1    0    0  502  503 -0.00000000000E+00 -0.00000000000E+00 -0.92088366993E+03  0.92088366993E+03  0.00000000000E+00 0.  1.
         -6    2    1    2    0  503  0.24663157797E+02 -0.76492940996E+02 -0.51571513681E+03  0.54979265860E+03  0.17277275175E+03 0.  0.
        -24    2    3    3    0    0  0.15611429864E+02 -0.38492748309E+02 -0.10781778731E+03  0.14000211924E+03  0.79060165172E+02 0.  0.
          6    2    1    2  501    0 -0.24663157797E+02  0.76492940996E+02 -0.36512953298E+03  0.41113001148E+03  0.17102300754E+03 0.  0.
         24    2    5    5    0    0 -0.27976504087E+02  0.50670146400E+02 -0.85507099990E+02  0.13025888442E+03  0.79408842730E+02 0.  0.
          5    1    5    5  501    0  0.33133462901E+01  0.25822794595E+02 -0.27962243299E+03  0.28087112706E+03  0.47000000000E+01 0. -1.
        -11    1    6    6    0    0 -0.27887299138E+02  0.58420617466E+02 -0.96866751904E+02  0.11650681363E+03  0.00000000000E+00 0.  1.
         12    1    6    6    0    0 -0.89204949329E-01 -0.77504710656E+01  0.11359651914E+02  0.13752070785E+02  0.00000000000E+00 0. -1.
         -5    1    3    3    0  503  0.90517279336E+01 -0.38000192687E+02 -0.40789734950E+03  0.40979053936E+03  0.47000000000E+01 0.  1.
         13    1    4    4    0    0 -0.43326469023E+01 -0.54153348394E+02 -0.99411414834E+02  0.11328718538E+03  0.00000000000E+00 0. -1.
        -14    1    4    4    0    0  0.19944076766E+02  0.15660600085E+02 -0.84063724722E+01  0.26714933861E+02  0.00000000000E+00 0.  1.
</event>
<event>
12    1  0.8451514E-002  0.2192903E+03  0.7818608E-02  0.1134474E+00
         21   -1    0    0  501  502  0.00000000000E+00  0.00000000000E+00  0.29228857284E+03  0.29228857284E+03  0.00000000000E+00 0. -1.
         21   -1    0    0  502  503 -0.00000000000E+00 -0.00000000000E+00 -0.42081301315E+03  0.42081301315E+03  0.00000000000E+00 0. -1.
         -6    2    1    2    0  503  0.88289945192E+02  0.10263331004E+03 -0.34262953693E+03  0.40662281686E+03  0.17209998508E+03 0.  0.
        -24    2    3    3    0    0  0.73919472818E+02  0.24631646732E+01 -0.23304357873E+03  0.25738562065E+03  0.80423208641E+02 0.  0.
          6    2    1    2  501    0 -0.88289945192E+02 -0.10263331004E+03  0.21410509662E+03  0.30647876913E+03  0.17250951504E+03 0.  0.
         24    2    5    5    0    0 -0.94067077629E+02 -0.57620037321E+02  0.22060959410E+03  0.26039223675E+03  0.83467599437E+02 0.  0.
          5    1    5    5  501    0  0.57771324371E+01 -0.45013272715E+02 -0.65044974778E+01  0.46086532384E+02  0.47000000000E+01 0. -1.
        -11    1    6    6    0    0 -0.25410841292E+02  0.12275062051E+02  0.13511240920E+02  0.31288042999E+02  0.00000000000E+00 0.  1.
         12    1    6    6    0    0 -0.68656236337E+02 -0.69895099372E+02  0.20709835318E+03  0.22910419375E+03  0.00000000000E+00 0. -1.
         -5    1    3    3    0  503  0.14370472374E+02  0.10017014536E+03 -0.10958595820E+03  0.14923719621E+03  0.47000000000E+01 0.  1.
         11    1    4    4    0    0  0.78824612137E+02  0.23823381327E+02 -0.14595803962E+03  0.16758467205E+03  0.00000000000E+00 0. -1.
        -12    1    4    4    0    0 -0.49051393198E+01 -0.21360216654E+02 -0.87085539110E+02  0.89800948600E+02  0.00000000000E+00 0.  1.
</event>
<event>
12    1  0.8451514E-002  0.2001212E+03  0.7818608E-02  0.1149740E+00
         21   -1    0    0  501  502  0.00000000000E+00  0.00000000000E+00  0.35972252819E+03  0.35972252819E+03  0.00000000000E+00 0.  1.
         21   -1    0    0  502  503 -0.00000000000E+00 -0.00000000000E+00 -0.15325481846E+03  0.15325481846E+03  0.00000000000E+00 0.  1.
         -6    2    1    2    0  503  0.10184743215E+03  0.82736039973E+01 -0.31442017279E+02  0.20209224688E+03  0.17149729980E+03 0.  0.
        -24    2    3    3    0    0  0.81904663669E+02 -0.53254500923E+02 -0.48169824334E+02  0.13511963129E+03  0.79953530157E+02 0.  0.
          6    2    1    2  501    0 -0.10184743215E+03 -0.82736039973E+01  0.23790972701E+03  0.31088509977E+03  0.17206729817E+03 0.  0.
         24    2    5    5    0    0 -0.11801388202E+03  0.37415715262E+02  0.20316979098E+03  0.25107020906E+03  0.80193976180E+02 0.  0.
          5    1    5    5  501    0  0.16166449865E+02 -0.45689319259E+02  0.34739936028E+02  0.59814890712E+02  0.47000000000E+01 0. -1.
        -11    1    6    6    0    0 -0.84691347950E+02 -0.37150839374E+01  0.16598501588E+03  0.18637985879E+03  0.00000000000E+00 0.  1.
         12    1    6    6    0    0 -0.33322534066E+02  0.41130799199E+02  0.37184775103E+02  0.64690350275E+02  0.00000000000E+00 0. -1.
         -5    1    3    3    0  503  0.19942768482E+02  0.61528104920E+02  0.16727807055E+02  0.66972615587E+02  0.47000000000E+01 0.  1.
         11    1    4    4    0    0  0.80076743643E+01 -0.11744055254E+02  0.21247059263E+02  0.25563317661E+02  0.00000000000E+00 0. -1.
        -12    1    4    4    0    0  0.73896989305E+02 -0.41510445669E+02 -0.69416883596E+02  0.10955631363E+03  0.00000000000E+00 0.  1.
</event>
<event>
12    1  0.8451514E-002  0.1745284E+03  0.7818608E-02  0.1173543E+00
         21   -1    0    0  503  502  0.00000000000E+00  0.00000000000E+00  0.87425831896E+03  0.87425831896E+03  0.00000000000E+00 0. -1.
         21   -1    0    0  501  503 -0.00000000000E+00 -0.00000000000E+00 -0.34838240121E+02  0.34838240121E+02  0.00000000000E+00 0. -1.
          6    2    1    2  501    0  0.27062665456E+02  0.96316510464E+01  0.46078327172E+03  0.49272851857E+03  0.17214822959E+03 0.  0.
         24    2    3    3    0    0  0.73617022817E+02 -0.49384301828E+01  0.20607169160E+03  0.23334526062E+03  0.80874065280E+02 0.  0.
         -6    2    1    2    0  502 -0.27062665456E+02 -0.96316510464E+01  0.37863680711E+03  0.41636804050E+03  0.17079624378E+03 0.  0.
        -24    2    5    5    0    0 -0.39576055670E+02  0.22030109964E+02  0.95922416182E+02  0.13157237887E+03  0.77836951564E+02 0.  0.
          5    1    3    3  501    0 -0.46554357360E+02  0.14570081229E+02  0.25471158012E+03  0.25938325795E+03  0.47000000000E+01 0. -1.
        -11    1    4    4    0    0  0.71351837405E+01  0.32169618480E+02  0.71518661783E+02  0.78744613678E+02  0.00000000000E+00 0.  1.
         12    1    4    4    0    0  0.66481839076E+02 -0.37108048663E+02  0.13455302982E+03  0.15460064695E+03  0.00000000000E+00 0. -1.
         -5    1    5    5    0  502  0.12513390213E+02 -0.31661761011E+02  0.28271439093E+03  0.28479566163E+03  0.47000000000E+01 0.  1.
         11    1    6    6    0    0 -0.61070880028E+02  0.11517747295E+02  0.84931665997E+02  0.10524114585E+03  0.00000000000E+00 0. -1.
        -12    1    6    6    0    0  0.21494824358E+02  0.10512362669E+02  0.10990750186E+02  0.26331233027E+02  0.00000000000E+00 0.  1.
</event>
<event>
12    1  0.8451514E-002  0.2715630E+03  0.7818608E-02  0.1100716E+00
         21   -1    0    0  503  502  0.00000000000E+00  0.00000000000E+00  0.57991486380E+03  0.57991486380E+03  0.00000000000E+00 0.  1.
         21   -1    0    0  501  503 -0.00000000000E+00 -0.00000000000E+00 -0.30023831819E+03  0.30023831819E+03  0.00000000000E+00 0.  1.
          6    2    1    2  501    0 -0.95740374789E+02 -0.18487884387E+03 -0.19556685561E+03  0.33279340088E+03  0.17075903016E+03 0.  0.
         24    2    3    3    0    0  0.15295120971E+02 -0.86368266861E+02 -0.65707794652E+02  0.13551521959E+03  0.79708482708E+02 0.  0.
         -6    2    1    2    0  502  0.95740374789E+02  0.18487884387E+03  0.47524340121E+03  0.54735978112E+03  0.17435605328E+03 0.  0.
        -24    2    5    5    0    0  0.52692554215E+02  0.87581689700E+02  0.12016083494E+03  0.17665023183E+03  0.79496040849E+02 0.  0.
          5    1    3    3  501    0 -0.11103549576E+03 -0.98510577007E+02 -0.12985906095E+03  0.19727818129E+03  0.47000000000E+01 0. -1.
        -13    1    4    4    0    0  0.93826302973E+01 -0.10165015610E+03 -0.57977408102E+02  0.11739747798E+03  0.00000000000E+00 0.  1.
         14    1    4    4    0    0  0.59124906734E+01  0.15281889238E+02 -0.77303865496E+01  0.18117741605E+02  0.00000000000E+00 0. -1.
         -5    1    5    5    0  502  0.43047820574E+02  0.97297154169E+02  0.35508256627E+03  0.37070954929E+03  0.47000000000E+01 0.  1.
         13    1    6    6    0    0 -0.15471186798E+02  0.12334895189E+02  0.59915135390E+00  0.19795611700E+02  0.00000000000E+00 0. -1.
        -14    1    6    6    0    0  0.68163741012E+02  0.75246794511E+02  0.11956168359E+03  0.15685462013E+03  0.00000000000E+00 0.  1.
</event>
<event>
12    1  0.8451514E-002  0.1778588E+03  0.7818608E-02  0.1169906E+00
         21   -1    0    0  501  502  0.00000000000E+00  0.00000000000E+00  0.17446079985E+03  0.17446079985E+03  0.00000000000E+00 0. -1.
         21   -1    0    0  502  503 -0.00000000000E+00 -0.00000000000E+00 -0.19878972757E+03  0.19878972757E+03  0.00000000000E+00 0. -1.
         -6    2    1    2    0  503  0.14887853258E+02 -0.43095940509E+02 -0.67577628573E+02  0.19020903300E+03  0.17185410116E+03 0.  0.
        -24    2    3    3    0    0 -0.11595105295E+02 -0.87549299540E+02 -0.70757220006E+02  0.13815475340E+03  0.79251658574E+02 0.  0.
          6    2    1    2  501    0 -0.14887853258E+02  0.43095940509E+02  0.43248700852E+02  0.18304149442E+03  0.17191518342E+03 0.  0.
         24    2    5    5    0    0  0.14194180886E+02 -0.24411729952E+02 -0.18810853878E+02  0.86726757155E+02  0.79814001608E+02 0.  0.
          5    1    5    5  501    0 -0.29082034144E+02  0.67507670461E+02  0.62059554731E+02  0.96314737265E+02  0.47000000000E+01 0. -1.
        -11    1    6    6    0    0 -0.25842211226E+02 -0.88701048112E+01  0.15806599968E+02  0.31564968604E+02  0.00000000000E+00 0.  1.
         12    1    6    6    0    0  0.40036392112E+02 -0.15541625141E+02 -0.34617453846E+02  0.55161788551E+02  0.00000000000E+00 0. -1.
         -5    1    3    3    0  503  0.26482958553E+02  0.44453359031E+02  0.31795914331E+01  0.52054279599E+02  0.47000000000E+01 0.  1.
         13    1    4    4    0    0 -0.32166516841E+02 -0.38254995298E+02 -0.68364475540E+02  0.84686663571E+02  0.00000000000E+00 0. -1.
        -14    1    4    4    0    0  0.20571411545E+02 -0.49294304242E+02 -0.23927444660E+01  0.53468089827E+02  0.00000000000E+00 0.  1.
</event>
<event>
12    1  0.8451514E-002  0.2097192E+03  0.7818608E-02  0.1142161E+00
         21   -1    0    0  503  502  0.00000000000E+00  0.00000000000E+00  0.59654126624E+03  0.59654126624E+03  0.00000000000E+00 0. -1.
         21   -1    0    0  501  503 -0.00000000000E+00 -0.00000000000E+00 -0.77620968090E+02  0.77620968090E+02  0.00000000000E+00 0.  1.
          6    2    1    2  501    0  0.13182485747E+02 -0.11885060533E+03  0.17678170523E+03  0.27286316562E+03  0.17000968069E+03 0.  0.
         24    2    3    3    0    0 -0.49181564593E+02 -0.81576095348E+02  0.68976070445E+02  0.14277546920E+03  0.80954621130E+02 0.  0.
         -6    2    1    2    0  502 -0.13182485747E+02  0.11885060533E+03  0.34213859292E+03  0.40129906871E+03  0.17228720633E+03 0.  0.
        -24    2    5    5    0    0 -0.39439291864E+02  0.53950341093E+02  0.30423542968E+03  0.32154818189E+03  0.79799370644E+02 0.  0.
          5    1    3    3  501    0  0.62364050339E+02 -0.37274509981E+02  0.10780563478E+03  0.13008769642E+03  0.47000000000E+01 0. -1.
        -13    1    4    4    0    0 -0.21581054186E+02 -0.91282431421E+02  0.62778419330E+02  0.11286874731E+03  0.00000000000E+00 0.  1.
         14    1    4    4    0    0 -0.27600510406E+02  0.97063360727E+01  0.61976511152E+01  0.29906721886E+02  0.00000000000E+00 0. -1.
         -5    1    5    5    0  502  0.26256806118E+02  0.64900264236E+02  0.37903163240E+02  0.79750886823E+02  0.47000000000E+01 0.  1.
         11    1    6    6    0    0 -0.20275677513E+01  0.48102506611E+02  0.25463176111E+03  0.25914338876E+03  0.00000000000E+00 0. -1.
        -12    1    6    6    0    0 -0.37411724113E+02  0.58478344813E+01  0.49603668569E+02  0.62404793123E+02  0.00000000000E+00 0.  1.
</event>
<event>
12    1  0.8451514E-002  0.1894274E+03  0.7818608E-02  0.1159120E+00
         21   -1    0    0  503  502  0.00000000000E+00  0.00000000000E+00  0.34466674704E+03  0.34466674704E+03  0.00000000000E+00 0. -1.
         21   -1    0    0  501  503 -0.00000000000E+00 -0.00000000000E+00 -0.12776673422E+03  0.12776673422E+03  0.00000000000E+00 0. -1.
          6    2    1    2  501    0 -0.76409985954E+02  0.22196532660E+02  0.59236905675E+01  0.18889557781E+03  0.17121704702E+03 0.  0.
         24    2    3    3    0    0 -0.78056712324E+02  0.74411849089E+02  0.18911284861E+02  0.13485930681E+03  0.78736410353E+02 0.  0.
         -6    2    1    2    0  502  0.76409985954E+02 -0.22196532660E+02  0.21097632224E+03  0.28353790345E+03  0.17190567801E+03 0.  0.
        -24    2    5    5    0    0  0.20593790830E+02 -0.64794473279E+02  0.17516386598E+03  0.20457807691E+03  0.80915892267E+02 0.  0.
          5    1    3    3  501    0  0.16467263697E+01 -0.52215316429E+02 -0.12987594294E+02  0.54036270995E+02  0.47000000000E+01 0. -1.
        -11    1    4    4    0    0 -0.35127948002E+01 -0.40842805745E+00  0.28582845712E+02  0.28800791826E+02  0.00000000000E+00 0.  1.
         12    1    4    4    0    0 -0.74543917523E+02  0.74820277147E+02 -0.96715608507E+01  0.10605851499E+03  0.00000000000E+00 0. -1.
         -5    1    5    5    0  502  0.55816195124E+02  0.42597940619E+02  0.35812456266E+02  0.78959826538E+02  0.47000000000E+01 0.  1.
         13    1    6    6    0    0  0.35835695485E+02 -0.70005109150E+02  0.17057111381E+03  0.18782815882E+03  0.00000000000E+00 0. -1.
        -14    1    6    6    0    0 -0.15241904655E+02  0.52106358713E+01  0.45927521629E+01  0.16749918093E+02  0.00000000000E+00 0.  1.
</event>
<event>
12    1  0.8451514E-002  0.2115052E+03  0.7818608E-02  0.1140530E+00
         21   -1    0    0  501  502  0.00000000000E+00  0.00000000000E+00  0.12068648667E+03  0.12068648667E+03  0.00000000000E+00 0. -1.
         21   -1    0    0  502  503 -0.00000000000E+00 -0.00000000000E+00 -0.56797142849E+03  0.56797142849E+03  0.00000000000E+00 0.  1.
         -6    2    1    2    0  503 -0.12229087023E+03  0.11124674053E+02 -0.42701140223E+03  0.47618327712E+03  0.17126867916E+03 0.  0.
        -24    2    3    3    0    0 -0.29202056973E+02  0.35347665709E+02 -0.96141961268E+02  0.13158357103E+03  0.77257632924E+02 0.  0.
          6    2    1    2  501    0  0.12229087023E+03 -0.11124674053E+02 -0.20273539591E+02  0.21247463803E+03  0.17220813014E+03 0.  0.
         24    2    5    5    0    0  0.75615424879E+02 -0.52766202985E+02 -0.63899271864E+02  0.13606842986E+03  0.77003480466E+02 0.  0.
          5    1    5    5  501    0  0.46675445350E+02  0.41641528932E+02  0.43625732273E+02  0.76406208169E+02  0.47000000000E+01 0. -1.
        -11    1    6    6    0    0  0.90206775311E+02 -0.52658074851E+02 -0.61694783567E+02  0.12131109380E+03  0.00000000000E+00 0.  1.
         12    1    6    6    0    0 -0.14591350432E+02 -0.10812813410E+00 -0.22044882968E+01  0.14757336066E+02  0.00000000000E+00 0. -1.
         -5    1    3    3    0  503 -0.93088813256E+02 -0.24222991656E+02 -0.33086944096E+03  0.34459970610E+03  0.47000000000E+01 0.  1.
         13    1    4    4    0    0  0.23089881959E+02  0.27922086021E+00 -0.44568019413E+02  0.50194909778E+02  0.00000000000E+00 0. -1.
        -14    1    4    4    0    0 -0.52291938933E+02  0.35068444848E+02 -0.51573941855E+02  0.81388661249E+02  0.00000000000E+00 0.  1.
</event>
<event>
12    1  0.8451514E-002  0.1914070E+03  0.7818608E-02  0.1157240E+00
         21   -1    0    0  501  502  0.00000000000E+00  0.00000000000E+00  0.36715671975E+03  0.36715671975E+03  0.00000000000E+00 0.  1.
         21   -1    0    0  502  503 -0.00000000000E+00 -0.00000000000E+00 -0.29570334534E+03  0.29570334534E+03  0.00000000000E+00 0.  1.
         -6    2    1    2    0  503 -0.43820126743E+02 -0.72966116851E+02  0.30556287615E+03  0.36046316315E+03  0.17123306628E+03 0.  0.
        -24    2    3    3    0    0 -0.72666346496E+02 -0.67809349164E+02  0.12461643079E+03  0.17709903706E+03  0.77177123278E+02 0.  0.
          6    2    1    2  501    0  0.43820126743E+02  0.72966116851E+02 -0.23410950174E+03  0.30239690194E+03  0.17144203039E+03 0.  0.
         24    2    5    5    0    0 -0.18800111248E+02  0.29591071760E+02 -0.35081175032E+02  0.89237211630E+02  0.74185681819E+02 0.  0.
          5    1    5    5  501    0  0.62620237990E+02  0.43375045091E+02 -0.19902832671E+03  0.21315969031E+03  0.47000000000E+01 0. -1.
        -11    1    6    6    0    0  0.23147517962E+01 -0.98760067414E+01 -0.42651570993E+02  0.43841191740E+02  0.00000000000E+00 0.  1.
         12    1    6    6    0    0 -0.21114863044E+02  0.39467078502E+02  0.75703959607E+01  0.45396019890E+02  0.00000000000E+00 0. -1.
         -5    1    3    3    0  503  0.28846219753E+02 -0.51567676876E+01  0.18094644536E+03  0.18336412609E+03  0.47000000000E+01 0.  1.
         11    1    4    4    0    0 -0.57216112637E+02 -0.82676802546E+02  0.11718297412E+03  0.15440526755E+03  0.00000000000E+00 0. -1.
        -12    1    4    4    0    0 -0.15450233858E+02  0.14867453382E+02  0.74334566702E+01  0.22693769506E+02  0.00000000000E+00 0.  1.
</event>
<event>
12    1  0.8451514E-002  0.3322404E+03  0.7818608E-02  0.1070223E+00
         21   -1    0    0  503  502  0.00000000000E+00  0.00000000000E+00  0.14297913924E+03  0.14297913924E+03  0.00000000000E+00 0.  1.
         21   -1    0    0  501  503 -0.00000000000E+00 -0.00000000000E+00 -0.77374766544E+03  0.77374766544E+03  0.00000000000E+00 0.  1.
          6    2    1    2  501    0 -0.64563344420E+02  0.27647494386E+03 -0.34551128789E+03  0.47933470715E+03  0.17255981976E+03 0.  0.
         24    2    3    3    0    0 -0.30601809522E+02  0.24428551913E+03 -0.34609601680E+03  0.43230304946E+03  0.80570392343E+02 0.  0.
         -6    2    1    2    0  502  0.64563344420E+02 -0.27647494386E+03 -0.28525723832E+03  0.43739209753E+03  0.17126977242E+03 0.  0.
        -24    2    5    5    0    0 -0.27981894149E+02 -0.10427173521E+03 -0.14027656232E+03  0.19395822014E+03  0.79288688087E+02 0.  0.
          5    1    3    3  501    0 -0.33961534898E+02  0.32189424725E+02  0.58472891909E+00  0.47031657686E+02  0.47000000000E+01 0. -1.
        -13    1    4    4    0    0 -0.47376584797E+02  0.16119315482E+03 -0.18257286137E+03  0.24811413433E+03  0.00000000000E+00 0.  1.
         14    1    4    4    0    0  0.16774775275E+02  0.83092364312E+02 -0.16352315543E+03  0.18418891513E+03  0.00000000000E+00 0. -1.
         -5    1    5    5    0  502  0.92545238569E+02 -0.17220320864E+03 -0.14498067600E+03  0.24343387739E+03  0.47000000000E+01 0.  1.
         13    1    6    6    0    0  0.11117049406E+02  0.34448452323E+01 -0.40088471421E+02  0.41743757462E+02  0.00000000000E+00 0. -1.
        -14    1    6    6    0    0 -0.39098943555E+02 -0.10771658044E+03 -0.10018809090E+03  0.15221446268E+03  0.00000000000E+00 0.  1.
</event>
<event>
12    1  0.8451514E-002  0.1837563E+03  0.7818608E-02  0.1164250E+00
         21   -1    0    0  501  502  0.00000000000E+00  0.00000000000E+00  0.18956655396E+03  0.18956655396E+03  0.00000000000E+00 0. -1.
         21   -1    0    0  502  503 -0.00000000000E+00 -0.00000000000E+00 -0.25464821830E+03  0.25464821830E+03  0.00000000000E+00 0. -1.
         -6    2    1    2    0  503  0.33679788480E+02  0.48777174254E+02 -0.15439924091E+03  0.23990130549E+03  0.17378138538E+03 0.  0.
        -24    2    3    3    0    0 -0.10324013197E+02  0.37790701856E+02 -0.37316239297E+01  0.82485112095E+02  0.72492387910E+02 0.  0.
          6    2    1    2  501    0 -0.33679788480E+02 -0.48777174254E+02  0.89317576570E+02  0.20431346676E+03  0.17393338477E+03 0.  0.
         24    2    5    5    0    0 -0.44326362036E+02 -0.74123296922E+02  0.11284717766E+03  0.16782363818E+03  0.89281568702E+02 0.  0.
          5    1    5    5  501    0  0.10646573556E+02  0.25346122668E+02 -0.23529601085E+02  0.36489828583E+02  0.47000000000E+01 0. -1.
        -11    1    6    6    0    0  0.18272404262E+01  0.49111123983E+01 -0.11958348807E+02  0.13056030743E+02  0.00000000000E+00 0.  1.
         12    1    6    6    0    0 -0.46153602462E+02 -0.79034409320E+02  0.12480552646E+03  0.15476760744E+03  0.00000000000E+00 0. -1.
         -5    1    3    3    0  503  0.44003801677E+02  0.10986472398E+02 -0.15066761698E+03  0.15741619340E+03  0.47000000000E+01 0.  1.
         13    1    4    4    0    0  0.20870721266E+02 -0.83773520824E+01 -0.13036508285E+02  0.25994568324E+02  0.00000000000E+00 0. -1.
        -14    1    4    4    0    0 -0.31194734463E+02  0.46168053939E+02  0.93048843557E+01  0.56490543771E+02  0.00000000000E+00 0.  1.
</event>
<event>
12    1  0.8451514E-002  0.2143285E+03  0.7818608E-02  0.1138231E+00
         21   -1    0    0  501  502  0.00000000000E+00  0.00000000000E+00  0.15212747899E+03  0.15212747899E+03  0.00000000000E+00 0. -1.
         21   -1    0    0  502  503 -0.00000000000E+00 -0.00000000000E+00 -0.46251743942E+03  0.46251743942E+03  0.00000000000E+00 0. -1.
         -6    2    1    2    0  503 -0.76289161067E+02 -0.10242659264E+03 -0.33640054180E+03  0.39874385563E+03  0.17181412894E+03 0.  0.
        -24    2    3    3    0    0 -0.11691484977E+03 -0.58474980497E+02 -0.26207394958E+03  0.30319950413E+03  0.78477887435E+02 0.  0.
          6    2    1    2  501    0  0.76289161067E+02  0.10242659264E+03  0.26010581366E+02  0.21590106279E+03  0.17212052636E+03 0.  0.
         24    2    5    5    0    0  0.90719124852E+02  0.21041889564E+02 -0.13691489764E+02  0.12408582330E+03  0.80852420633E+02 0.  0.
          5    1    5    5  501    0 -0.14429963784E+02  0.81384703076E+02  0.39702071130E+02  0.91815239484E+02  0.47000000000E+01 0. -1.
        -13    1    6    6    0    0 -0.49231013970E+01 -0.15663410724E+02  0.96113648156E+01  0.19025185846E+02  0.00000000000E+00 0.  1.
         14    1    6    6    0    0  0.95642226249E+02  0.36705300288E+02 -0.23302854579E+02  0.10506063746E+03  0.00000000000E+00 0. -1.
         -5    1    3    3    0  503  0.40625688701E+02 -0.43951612143E+02 -0.74326592216E+02  0.95544351496E+02  0.47000000000E+01 0.  1.
         13    1    4    4    0    0 -0.95977497347E+02 -0.62265965828E+01 -0.16633356107E+03  0.19213876246E+03  0.00000000000E+00 0. -1.
        -14    1    4    4    0    0 -0.20937352421E+02 -0.52248383915E+02 -0.95740388510E+02  0.11106074167E+03  0.00000000000E+00 0.  1.
</event>
<event>
12    1  0.8451514E-002  0.1883148E+03  0.7818608E-02  0.1160014E+00
         21   -1    0    0  503  502  0.00000000000E+00  0.00000000000E+00  0.15262374425E+03  0.15262374425E+03  0.00000000000E+00 0. -1.
         21   -1    0    0  501  503 -0.00000000000E+00 -0.00000000000E+00 -0.23493542061E+03  0.23493542061E+03  0.00000000000E+00 0. -1.
          6    2    1    2  501    0  0.13846753332E+02 -0.70144935517E+02 -0.61972165331E+02  0.19814909197E+03  0.17409902014E+03 0.  0.
         24    2    3    3    0    0 -0.11605054540E+02  0.25346716885E+01  0.22806130428E+02  0.83521131768E+02  0.79464193290E+02 0.  0.
         -6    2    1    2    0  502 -0.13846753332E+02  0.70144935517E+02 -0.20339511030E+02  0.18941007288E+03  0.17421376365E+03 0.  0.
        -24    2    5    5    0    0  0.37377844748E+01  0.11544495033E+03 -0.29353608663E+02  0.13976481865E+03  0.73014126037E+02 0.  0.
          5    1    3    3  501    0  0.25451807872E+02 -0.72679607205E+02 -0.84778295759E+02  0.11462796020E+03  0.47000000000E+01 0. -1.
        -13    1    4    4    0    0 -0.41946473362E+02 -0.15053235554E+02  0.72345967636E+01  0.45149151913E+02  0.00000000000E+00 0.  1.
         14    1    4    4    0    0  0.30341418822E+02  0.17587907243E+02  0.15571533664E+02  0.38371979855E+02  0.00000000000E+00 0. -1.
         -5    1    5    5    0  502 -0.17584537807E+02 -0.45300014814E+02  0.90140976328E+01  0.49645254236E+02  0.47000000000E+01 0.  1.
         13    1    6    6    0    0 -0.25569655033E+02  0.22118276890E+02  0.85249160367E+01  0.34866884354E+02  0.00000000000E+00 0. -1.
        -14    1    6    6    0    0  0.29307439508E+02  0.93326673441E+02 -0.37878524699E+02  0.10489793430E+03  0.00000000000E+00 0.  1.
</event>
<event>
12    1  0.8451514E-002  0.1742371E+03  0.7818608E-02  0.1173722E+00
         21   -1    0    0  503  502  0.00000000000E+00  0.00000000000E+00  0.52220776765E+02  0.52220776765E+02  0.00000000000E+00 0.  1.
         21   -1    0    0  501  503 -0.00000000000E+00 -0.00000000000E+00 -0.69957855869E+03  0.69957855869E+03  0.00000000000E+00 0.  1.
          6    2    1    2  501    0 -0.14754610749E+02 -0.64545335539E+01 -0.48077844465E+03  0.51137705023E+03  0.17349125373E+03 0.  0.
         24    2    3    3    0    0  0.48144063765E+02  0.14006879013E+02 -0.37284443174E+03  0.38470126800E+03  0.80424199028E+02 0.  0.
         -6    2    1    2    0  502  0.14754610749E+02  0.64545335539E+01 -0.16657933728E+03  0.24042228523E+03  0.17261181907E+03 0.  0.
        -24    2    5    5    0    0  0.62244979802E+02 -0.13405350499E+02 -0.49440371214E+02  0.11238565954E+03  0.78307376610E+02 0.  0.
          5    1    3    3  501    0 -0.62898674514E+02 -0.20461412567E+02 -0.10793401291E+03  0.12667578223E+03  0.47000000000E+01 0. -1.
        -13    1    4    4    0    0  0.21780498342E+02 -0.20184043001E+02 -0.28777302157E+03  0.28930105019E+03  0.00000000000E+00 0.  1.
         14    1    4    4    0    0  0.26363565423E+02  0.34190922013E+02 -0.85071410167E+02  0.95400217808E+02  0.00000000000E+00 0. -1.
         -5    1    5    5    0  502 -0.47490369053E+02  0.19859884052E+02 -0.11713896606E+03  0.12803662569E+03  0.47000000000E+01 0.  1.
         11    1    6    6    0    0  0.33588571264E+02  0.17235192931E+02 -0.58349338828E+02  0.69497405251E+02  0.00000000000E+00 0. -1.
        -12    1    6    6    0    0  0.28656408538E+02 -0.30640543429E+02  0.89089676134E+01  0.42888254288E+02  0.00000000000E+00 0.  1.
</event>
<event>
12    1  0.8451514E-002  0.1897069E+03  0.7818608E-02  0.1159487E+00
         21   -1    0    0  503  502  0.00000000000E+00  0.00000000000E+00  0.84466811174E+02  0.84466811174E+02  0.00000000000E+00 0.  1.
         21   -1    0    0  501  503 -0.00000000000E+00 -0.00000000000E+00 -0.60348237205E+03  0.60348237205E+03  0.00000000000E+00 0.  1.
          6    2    1    2  501    0 -0.77926893217E+02  0.12423408036E+02 -0.45148668604E+03  0.48972332733E+03  0.17251599318E+03 0.  0.
         24    2    3    3    0    0 -0.70399855248E+01  0.12855123574E+02 -0.36679838399E+03  0.37918221025E+03  0.94990938905E+02 0.  0.
         -6    2    1    2    0  502  0.77926893217E+02 -0.12423408036E+02 -0.67528874839E+02  0.19822585590E+03  0.16883838206E+03 0.  0.
        -24    2    5    5    0    0 -0.22609593561E+02  0.80420127869E+01 -0.60618399723E+02  0.95287703160E+02  0.69493080935E+02 0.  0.
          5    1    3    3  501    0 -0.70886907693E+02 -0.43171553752E+00 -0.84688302052E+02  0.11054111708E+03  0.47000000000E+01 0. -1.
        -13    1    4    4    0    0 -0.36994435792E+02 -0.23118493486E+02 -0.24184360677E+03  0.24574658321E+03  0.00000000000E+00 0.  1.
         14    1    4    4    0    0  0.29954450267E+02  0.35973617059E+02 -0.12495477721E+03  0.13343562704E+03  0.00000000000E+00 0. -1.
         -5    1    5    5    0  502  0.10053648678E+03 -0.20465420823E+02 -0.69104751164E+01  0.10293815274E+03  0.47000000000E+01 0.  1.
         11    1    6    6    0    0  0.71300957045E+01 -0.11804200290E+01 -0.63599201523E+02  0.64008515766E+02  0.00000000000E+00 0. -1.
        -12    1    6    6    0    0 -0.29739689265E+02  0.92224328160E+01  0.29808018003E+01  0.31279187394E+02  0.00000000000E+00 0.  1.
</event>
<event>
12    1  0.8451514E-002  0.2381728E+03  0.7818608E-02  0.1121512E+00
         21   -1    0    0  503  502  0.00000000000E+00  0.00000000000E+00  0.20018843982E+03  0.20018843982E+03  0.00000000000E+00 0.  1.
         21   -1    0    0  501  503 -0.00000000000E+00 -0.00000000000E+00 -0.51436599705E+03  0.51436599705E+03  0.00000000000E+00 0. -1.
          6    2    1    2  501    0 -0.16553062213E+03 -0.65696194734E+01  0.84662006185E+02  0.25001244284E+03  0.16701802154E+03 0.  0.
         24    2    3    3    0    0 -0.43257778881E+02  0.17580471438E+02 -0.12370928314E+02  0.91989167765E+02  0.78285750357E+02 0.  0.
         -6    2    1    2    0  502  0.16553062213E+03  0.65696194734E+01 -0.39883956342E+03  0.46454199403E+03  0.17112194512E+03 0.  0.
        -24    2    5    5    0    0  0.10463623151E+03 -0.29844887357E+02 -0.13529325892E+03  0.19157150527E+03  0.80968620318E+02 0.  0.
          5    1    3    3  501    0 -0.12227284325E+03 -0.24150090912E+02  0.97032934500E+02  0.15802327507E+03  0.47000000000E+01 0. -1.
        -11    1    4    4    0    0 -0.48917618451E+02 -0.20211653283E+02 -0.64699973680E+01  0.53322651747E+02  0.00000000000E+00 0.  1.
         12    1    4    4    0    0  0.56598395696E+01  0.37792124722E+02 -0.59009309463E+01  0.38666516018E+02  0.00000000000E+00 0. -1.
         -5    1    5    5    0  502  0.60894390626E+02  0.36414506831E+02 -0.26354630450E+03  0.27297048876E+03  0.47000000000E+01 0.  1.
         11    1    6    6    0    0  0.38140891856E+02 -0.60764827530E+01 -0.10996616728E+03  0.11655131583E+03  0.00000000000E+00 0. -1.
        -12    1    6    6    0    0  0.66495339650E+02 -0.23768404604E+02 -0.25327091634E+02  0.75020189437E+02  0.00000000000E+00 0.  1.
</event>
<event>
12    1  0.8451514E-002  0.1930021E+03  0.7818608E-02  0.1156080E+00
         21   -1    0    0  503  502  0.00000000000E+00  0.00000000000E+00  0.33836269288E+03  0.33836269288E+03  0.00000000000E+00 0.  1.
         21   -1    0    0  501  503 -0.00000000000E+00 -0.00000000000E+00 -0.10943082095E+03  0.10943082095E+03  0.00000000000E+00 0.  1.
          6    2    1    2  501    0  0.42077374925E+02  0.74652368632E+02  0.12198916649E+03  0.22832248839E+03  0.17293443943E+03 0.  0.
         24    2    3    3    0    0 -0.34699562681E+02  0.25202524912E+01  0.55876098999E+02  0.10386057446E+03  0.80339711005E+02 0.  0.
         -6    2    1    2    0  502 -0.42077374925E+02 -0.74652368632E+02  0.10694270544E+03  0.21947102543E+03  0.17142726485E+03 0.  0.
        -24    2    5    5    0    0 -0.54942139851E+02 -0.78349734415E+02  0.11660171691E+02  0.12313814461E+03  0.76614120367E+02 0.  0.
          5    1    3    3  501    0  0.76776937606E+02  0.72132116141E+02  0.66113067491E+02  0.12446191393E+03  0.47000000000E+01 0. -1.
        -13    1    4    4    0    0  0.23454891636E+02  0.31150517664E+01  0.34635117955E+02  0.41945522823E+02  0.00000000000E+00 0.  1.
         14    1    4    4    0    0 -0.58154454317E+02 -0.59479927524E+00  0.21240981044E+02  0.61915051634E+02  0.00000000000E+00 0. -1.
         -5    1    5    5    0  502  0.12864764927E+02  0.36973657825E+01  0.95282533750E+02  0.96332880826E+02  0.47000000000E+01 0.  1.
         11    1    6    6    0    0 -0.28683914581E+02  0.10005713218E+02  0.16930660668E+01  0.30426102698E+02  0.00000000000E+00 0. -1.
        -12    1    6    6    0    0 -0.26258225270E+02 -0.88355447633E+02  0.99671056242E+01  0.92712041911E+02  0.00000000000E+00 0.  1.
</event>
<event>
12    1  0.8451514E-002  0.2291867E+03  0.7818608E-02  0.1127256E+00
         21   -1    0    0  501  502  0.00000000000E+00  0.00000000000E+00  0.30543943018E+03  0.30543943018E+03  0.00000000000E+00 0. -1.
         21   -1    0    0  502  503 -0.00000000000E+00 -0.00000000000E+00 -0.20674707672E+03  0.20674707672E+03  0.00000000000E+00 0. -1.
         -6    2    1    2    0  503  0.81713610349E+02 -0.12649500912E+03 -0.55982043256E+02  0.23568927392E+03  0.17244518906E+03 0.  0.
        -24    2    3    3    0    0  0.63512623669E+02 -0.14207849104E+03 -0.87752849853E+02  0.19561939775E+03  0.79663260886E+02 0.  0.
          6    2    1    2  501    0 -0.81713610349E+02  0.12649500912E+03  0.15467439671E+03  0.27649723297E+03  0.17276703794E+03 0.  0.
         24    2    5    5    0    0 -0.36797948364E+02  0.14495004728E+03  0.15015602696E+03  0.22750222517E+03  0.82739499720E+02 0.  0.
          5    1    5    5  501    0 -0.44915661984E+02 -0.18455038162E+02  0.45183697516E+01  0.48995007810E+02  0.47000000000E+01 0. -1.
        -13    1    6    6    0    0 -0.11031607696E+02 -0.67943361218E+01  0.28519605721E+02  0.31324547598E+02  0.00000000000E+00 0.  1.
         14    1    6    6    0    0 -0.25766340669E+02  0.15174438340E+03  0.12163642123E+03  0.19617767757E+03  0.00000000000E+00 0. -1.
         -5    1    3    3    0  503  0.18200986680E+02  0.15583481926E+02  0.31770806598E+02  0.40069876178E+02  0.47000000000E+01 0.  1.
         13    1    4    4    0    0  0.40185985776E+02 -0.10226152923E+03 -0.17049616832E+02  0.11118913278E+03  0.00000000000E+00 0. -1.
        -14    1    4    4    0    0  0.23326637893E+02 -0.39816961812E+02 -0.70703233021E+02  0.84430264970E+02  0.00000000000E+00 0.  1.
</event>
<event>
12    1  0.8451514E-002  0.2259822E+03  0.7818608E-02  0.1129519E+00
         21   -1    0    0  501  502  0.00000000000E+00  0.00000000000E+00  0.66447740957E+03  0.66447740957E+03  0.00000000000E+00 0.  1.
         21   -1    0    0  502  503 -0.00000000000E+00 -0.00000000000E+00 -0.12654509703E+03  0.12654509703E+03  0.00000000000E+00 0.  1.
         -6    2    1    2    0  503  0.13878721604E+03  0.45817987707E+02  0.21073779430E+02  0.22696267280E+03  0.17235652390E+03 0.  0.
        -24    2    3    3    0    0  0.10769874879E+03  0.67623187712E+02  0.69166514515E+02  0.16550569019E+03  0.80225997953E+02 0.  0.
          6    2    1    2  501    0 -0.13878721604E+03 -0.45817987707E+02  0.51685853310E+03  0.56405983380E+03  0.17221955037E+03 0.  0.
         24    2    5    5    0    0 -0.13433788656E+02 -0.74109674155E+02  0.17560748497E+03  0.19938426685E+03  0.56950738430E+02 0.  0.
          5    1    5    5  501    0 -0.12535342738E+03  0.28291686448E+02  0.34125104813E+03  0.36467556695E+03  0.47000000000E+01 0. -1.
        -13    1    6    6    0    0 -0.24341044362E+02 -0.61988809424E+02  0.88469139823E+02  0.11073340795E+03  0.00000000000E+00 0.  1.
         14    1    6    6    0    0  0.10907255706E+02 -0.12120864731E+02  0.87138345148E+02  0.88650858901E+02  0.00000000000E+00 0. -1.
         -5    1    3    3    0  503  0.31088467249E+02 -0.21805200005E+02 -0.48092735085E+02  0.61456982607E+02  0.47000000000E+01 0.  1.
         13    1    4    4    0    0  0.58348873428E+02  0.81617851066E+01 -0.40488518800E+01  0.59055896979E+02  0.00000000000E+00 0. -1.
        -14    1    4    4    0    0  0.49349875363E+02  0.59461402606E+02  0.73215366395E+02  0.10644979321E+03  0.00000000000E+00 0.  1.
</event>
<event>
12    1  0.8451514E-002  0.2494949E+03  0.7818608E-02  0.1113937E+00
         21   -1    0    0  501  502  0.00000000000E+00  0.00000000000E+00  0.98033083230E+02  0.98033083230E+02  0.00000000000E+00 0.  1.
         21   -1    0    0  502  503 -0.00000000000E+00 -0.00000000000E+00 -0.64261622368E+03  0.64261622368E+03  0.00000000000E+00 0.  1.
         -6    2    1    2    0  503 -0.15292667147E+03  0.95916608552E+02 -0.21928903284E+03  0.33069324740E+03  0.16936286875E+03 0.  0.
        -24    2    3    3    0    0 -0.16049701929E+03  0.88855318469E+02 -0.12566606011E+03  0.23638246856E+03  0.80188228284E+02 0.  0.
          6    2    1    2  501    0  0.15292667147E+03 -0.95916608552E+02 -0.32529410762E+03  0.40995605951E+03  0.17222413198E+03 0.  0.
         24    2    5    5    0    0  0.10842637560E+03 -0.15394173789E+02 -0.26993522376E+03  0.30248124918E+03  0.81465462436E+02 0.  0.
          5    1    5    5  501    0  0.44500295870E+02 -0.80522434763E+02 -0.55358883859E+02  0.10747481033E+03  0.47000000000E+01 0. -1.
        -13    1    6    6    0    0  0.10959012660E+03 -0.26403794087E+02 -0.18363511836E+03  0.21547392623E+03  0.00000000000E+00 0.  1.
         14    1    6    6    0    0 -0.11637510002E+01  0.11009620298E+02 -0.86300105400E+02  0.87007322953E+02  0.00000000000E+00 0. -1.
         -5    1    3    3    0  503  0.75703478205E+01  0.70612900829E+01 -0.93622972727E+02  0.94310778843E+02  0.47000000000E+01 0.  1.
         13    1    4    4    0    0 -0.23296098393E+02  0.46005434042E+02 -0.11527959611E+02  0.52840344572E+02  0.00000000000E+00 0. -1.
        -14    1    4    4    0    0 -0.13720092090E+03  0.42849884427E+02 -0.11413810050E+03  0.18354212398E+03  0.00000000000E+00 0.  1.
</event>
<event>
12    1  0.8451514E-002  0.1758156E+03  0.7818608E-02  0.1171963E+00
         21   -1    0    0  503  502  0.00000000000E+00  0.00000000000E+00  0.15835013380E+03  0.15835013380E+03  0.00000000000E+00 0. -1.
         21   -1    0    0  501  503 -0.00000000000E+00 -0.00000000000E+00 -0.23503050022E+03  0.23503050022E+03  0.00000000000E+00 0. -1.
          6    2    1    2  501    0  0.30975687691E+02  0.23140739910E+02 -0.11953760588E+03  0.21260378776E+03  0.17151135320E+03 0.  0.
         24    2    3    3    0    0 -0.40401021841E+02 -0.22273638389E+02 -0.52393768720E+02  0.10449511424E+03  0.77754513485E+02 0.  0.
         -6    2    1    2    0  502 -0.30975687691E+02 -0.23140739910E+02  0.42857239458E+02  0.18077684627E+03  0.17131415033E+03 0.  0.
        -24    2    5    5    0    0 -0.85784476197E+02 -0.23149665455E+02  0.37905207313E+02  0.12554446447E+03  0.80185562605E+02 0.  0.
          5    1    3    3  501    0  0.71376709533E+02  0.45414378299E+02 -0.67143837158E+02  0.10810867351E+03  0.47000000000E+01 0. -1.
        -11    1    4    4    0    0  0.34881209102E+01 -0.14881200309E+02  0.16489685769E+02  0.22483924187E+02  0.00000000000E+00 0.  1.
         12    1    4    4    0    0 -0.43889142752E+02 -0.73924380797E+01 -0.68883454488E+02  0.82011190056E+02  0.00000000000E+00 0. -1.
         -5    1    5    5    0  502  0.54808788506E+02  0.89255451455E-02  0.49520321441E+01  0.55232381802E+02  0.47000000000E+01 0.  1.
         11    1    6    6    0    0 -0.65183780798E+02 -0.92010795076E+01  0.62346965286E+02  0.90668237126E+02  0.00000000000E+00 0. -1.
        -12    1    6    6    0    0 -0.20600695399E+02 -0.13948585948E+02 -0.24441757973E+02  0.34876227343E+02  0.00000000000E+00 0.  1.
</event>
<event>
12    1  0.8451514E-002  0.3212957E+03  0.7818608E-02  0.1075195E+00
         21   -1    0    0  501  502  0.00000000000E+00  0.00000000000E+00  0.69322472812E+03  0.69322472812E+03  0.00000000000E+00 0.  1.
         21   -1    0    0  502  503 -0.00000000000E+00 -0.00000000000E+00 -0.18550183422E+03  0.18550183422E+03  0.00000000000E+00 0. -1.
         -6    2    1    2    0  503 -0.26962146689E+03  0.20237027389E+02  0.57615808210E+02  0.32642074756E+03  0.17356742320E+03 0.  0.
        -24    2    3    3    0    0 -0.17916170620E+03  0.55854350085E+02 -0.14389783855E+02  0.20534863158E+03  0.82111931038E+02 0.  0.
          6    2    1    2  501    0  0.26962146689E+03 -0.20237027389E+02  0.45010708569E+03  0.55230581478E+03  0.17128938017E+03 0.  0.
         24    2    5    5    0    0  0.28629305909E+03 -0.13421747099E+02  0.39736155937E+03  0.49637218823E+03  0.79657274647E+02 0.  0.
          5    1    5    5  501    0 -0.16671592197E+02 -0.68152802899E+01  0.52745526324E+02  0.55933626550E+02  0.47000000000E+01 0. -1.
        -11    1    6    6    0    0  0.26960738135E+03 -0.32599572193E+02  0.37072998711E+03  0.45955586769E+03  0.00000000000E+00 0.  1.
         12    1    6    6    0    0  0.16685677741E+02  0.19177825094E+02  0.26631572255E+02  0.36816320536E+02  0.00000000000E+00 0. -1.
         -5    1    3    3    0  503 -0.90459760695E+02 -0.35617322697E+02  0.72005592065E+02  0.12107211599E+03  0.47000000000E+01 0.  1.
         13    1    4    4    0    0 -0.45105027398E+02  0.41716975945E+02  0.22766175623E+02  0.65521510446E+02  0.00000000000E+00 0. -1.
        -14    1    4    4    0    0 -0.13405667880E+03  0.14137374140E+02 -0.37155959477E+02  0.13982712113E+03  0.00000000000E+00 0.  1.
</event>
<event>
12    1  0.8451514E-002  0.1971514E+03  0.7818608E-02  0.1152558E+00
         21   -1    0    0  503  502  0.00000000000E+00  0.00000000000E+00  0.22089755769E+03  0.22089755769E+03  0.00000000000E+00 0. -1.
         21   -1    0    0  501  503 -0.00000000000E+00 -0.00000000000E+00 -0.21021785675E+03  0.21021785675E+03  0.00000000000E+00 0.  1.
          6    2    1    2  501    0  0.94635686123E+02 -0.20076204568E+02 -0.83692797077E+02  0.21418016950E+03  0.17178385735E+03 0.  0.
         24    2    3    3    0    0  0.10591076682E+03  0.30747924229E+02 -0.28209615144E+02  0.13795226785E+03  0.77926378361E+02 0.  0.
         -6    2    1    2    0  502 -0.94635686123E+02  0.20076204568E+02  0.94372498017E+02  0.21693524495E+03  0.16969314966E+03 0.  0.
        -24    2    5    5    0    0 -0.14446219742E+02  0.42475515179E+02  0.95516918518E+02  0.13353572857E+03  0.81825707619E+02 0.  0.
          5    1    3    3  501    0 -0.11275080696E+02 -0.50824128797E+02 -0.55483181933E+02  0.76227901651E+02  0.47000000000E+01 0. -1.
        -11    1    4    4    0    0  0.27896995001E+02 -0.11468358620E+02 -0.38216974381E+02  0.48685754697E+02  0.00000000000E+00 0.  1.
         12    1    4    4    0    0  0.78013771818E+02  0.42216282849E+02  0.10007359237E+02  0.89266513149E+02  0.00000000000E+00 0. -1.
         -5    1    5    5    0  502 -0.80189466381E+02 -0.22399310611E+02 -0.11444205011E+01  0.83399516381E+02  0.47000000000E+01 0.  1.
         11    1    6    6    0    0 -0.24370423758E+02  0.46798993614E+02  0.18730666779E+02  0.55990188743E+02  0.00000000000E+00 0. -1.
        -12    1    6    6    0    0  0.99242040158E+01 -0.43234784356E+01  0.76786251740E+02  0.77545539829E+02  0.00000000000E+00 0.  1.
</event>
<event>
12    1  0.8451514E-002  0.3291046E+03  0.7818608E-02  0.1071622E+00
         21   -1    0    0  503  502  0.00000000000E+00  0.00000000000E+00  0.24065282524E+03  0.24065282524E+03  0.00000000000E+00 0.  1.
         21   -1    0    0  501  503 -0.00000000000E+00 -0.00000000000E+00 -0.47179493944E+03  0.47179493944E+03  0.00000000000E+00 0.  1.
          6    2    1    2  501    0 -0.27027881765E+03 -0.75751232069E+02 -0.37380967386E+02  0.33122077305E+03  0.17181669111E+03 0.  0.
         24    2    3    3    0    0 -0.11041439816E+03 -0.17253004296E+02  0.42386879275E+02  0.14316845417E+03  0.78813407857E+02 0.  0.
         -6    2    1    2    0  502  0.27027881765E+03  0.75751232069E+02 -0.19376114682E+03  0.38122699163E+03  0.17029899795E+03 0.  0.
        -24    2    5    5    0    0  0.18578499051E+03  0.82035449864E+02 -0.66405825084E+02  0.22819050516E+03  0.80095538614E+02 0.  0.
          5    1    3    3  501    0 -0.15986441949E+03 -0.58498227773E+02 -0.79767846661E+02  0.18805231887E+03  0.47000000000E+01 0. -1.
        -13    1    4    4    0    0 -0.84054965329E+02  0.24218934662E+02  0.30186028851E+02  0.92536427046E+02  0.00000000000E+00 0.  1.
         14    1    4    4    0    0 -0.26359432826E+02 -0.41471938957E+02  0.12200850424E+02  0.50632027126E+02  0.00000000000E+00 0. -1.
         -5    1    5    5    0  502  0.84493827135E+02 -0.62842177955E+01 -0.12735532173E+03  0.15303648647E+03  0.47000000000E+01 0.  1.
         13    1    6    6    0    0  0.81367137586E+02  0.20510417270E+02  0.10630932472E+02  0.84583124918E+02  0.00000000000E+00 0. -1.
        -14    1    6    6    0    0  0.10441785293E+03  0.61525032594E+02 -0.77036757555E+02  0.14360738024E+03  0.00000000000E+00 0.  1.
</event>
<event>
12    1  0.8451514E-002  0.2845955E+03  0.7818608E-02  0.1093420E+00
         21   -1    0    0  501  502  0.00000000000E+00  0.00000000000E+00  0.82346923518E+03  0.82346923518E+03  0.00000000000E+00 0.  1.
         21   -1    0    0  502  503 -0.00000000000E+00 -0.00000000000E+00 -0.10116303430E+03  0.10116303430E+03  0.00000000000E+00 0. -1.
         -6    2    1    2    0  503  0.15327712612E+03  0.16651491348E+03  0.27592714444E+03  0.39524688694E+03  0.16989178554E+03 0.  0.
        -24    2    3    3    0    0  0.30231410349E+02  0.10085992560E+03  0.82046609945E+02  0.15636914151E+03  0.81443228391E+02 0.  0.
          6    2    1    2  501    0 -0.15327712612E+03 -0.16651491348E+03  0.44637905644E+03  0.52938538254E+03  0.17255007221E+03 0.  0.
         24    2    5    5    0    0 -0.11233229533E+03 -0.18753426311E+03  0.32846872869E+03  0.40272351923E+03  0.80665251489E+02 0.  0.
          5    1    5    5  501    0 -0.40944830794E+02  0.21019349637E+02  0.11791032775E+03  0.12666186332E+03  0.47000000000E+01 0. -1.
        -11    1    6    6    0    0  0.14768928698E+01 -0.10936531225E+01 -0.42956862545E+01  0.46722810381E+01  0.00000000000E+00 0.  1.
         12    1    6    6    0    0 -0.11380918820E+03 -0.18644060999E+03  0.33276441494E+03  0.39805123819E+03  0.00000000000E+00 0. -1.
         -5    1    3    3    0  503  0.12304571577E+03  0.65654987878E+02  0.19388053450E+03  0.23887774543E+03  0.47000000000E+01 0.  1.
         11    1    4    4    0    0  0.18093375452E+02  0.42265146729E+02  0.84806375449E+02  0.96466751682E+02  0.00000000000E+00 0. -1.
        -12    1    4    4    0    0  0.12138034897E+02  0.58594778868E+02 -0.27597655038E+01  0.59902389831E+02  0.00000000000E+00 0.  1.
</event>
<event>
12    1  0.8451514E-002  0.1773569E+03  0.7818608E-02  0.1170964E+00
         21   -1    0    0  501  502  0.00000000000E+00  0.00000000000E+00  0.13465199220E+03  0.13465199220E+03  0.00000000000E+00 0. -1.
         21   -1    0    0  502  503 -0.00000000000E+00 -0.00000000000E+00 -0.31119172108E+03  0.31119172108E+03  0.00000000000E+00 0. -1.
         -6    2    1    2    0  503 -0.34990518351E+02  0.26734791924E+02  0.25641974997E+02  0.17689591887E+03  0.16939766751E+03 0.  0.
        -24    2    3    3    0    0 -0.25508228578E+02  0.47835365712E+02 -0.42255774667E+02  0.10501168942E+03  0.79391513934E+02 0.  0.
          6    2    1    2  501    0  0.34990518351E+02 -0.26734791924E+02 -0.20218170387E+03  0.26894779441E+03  0.17180334474E+03 0.  0.
         24    2    5    5    0    0  0.65440301954E+02 -0.72542004347E+02 -0.13084974513E+03  0.17874896754E+03  0.72696369103E+02 0.  0.
          5    1    5    5  501    0 -0.30449783602E+02  0.45807212423E+02 -0.71331958746E+02  0.90198826877E+02  0.47000000000E+01 0. -1.
        -13    1    6    6    0    0 -0.64289923482E+01  0.58611339267E+01  0.16365906860E+01  0.88523026718E+01  0.00000000000E+00 0.  1.
         14    1    6    6    0    0  0.71869294302E+02 -0.78403138274E+02 -0.13248633581E+03  0.16989666486E+03  0.00000000000E+00 0. -1.
         -5    1    3    3    0  503 -0.94822897731E+01 -0.21100573789E+02  0.67897749664E+02  0.71884229446E+02  0.47000000000E+01 0.  1.
         13    1    4    4    0    0 -0.19834822379E+01  0.11614456680E+02  0.23529994500E+02  0.26315213222E+02  0.00000000000E+00 0. -1.
        -14    1    4    4    0    0 -0.23524746340E+02  0.36220909033E+02 -0.65785769167E+02  0.78696476201E+02  0.00000000000E+00 0.  1.
</event>
<event>
12    1  0.8451514E-002  0.1861695E+03  0.7818608E-02  0.1162177E+00
         21   -1    0    0  501  502  0.00000000000E+00  0.00000000000E+00  0.35833784022E+03  0.35833784022E+03  0.00000000000E+00 0.  1.
         21   -1    0    0  502  503 -0.00000000000E+00 -0.00000000000E+00 -0.11069425645E+03  0.11069425645E+03  0.00000000000E+00 0.  1.
         -6    2    1    2    0  503 -0.47784801817E+02  0.49490123975E+02  0.38819323036E+02  0.18927033299E+03  0.17199901003E+03 0.  0.
        -24    2    3    3    0    0  0.20362248447E+02  0.51360203090E+02  0.66596418293E+02  0.11550601453E+03  0.76511860786E+02 0.  0.
          6    2    1    2  501    0  0.47784801817E+02 -0.49490123975E+02  0.20882426074E+03  0.27976176368E+03  0.17299252264E+03 0.  0.
         24    2    5    5    0    0  0.86748340803E+02 -0.56007631554E+02  0.97313246986E+02  0.16136652956E+03  0.76858047057E+02 0.  0.
          5    1    5    5  501    0 -0.38963538986E+02  0.65175075789E+01  0.11151101375E+03  0.11839523413E+03  0.47000000000E+01 0. -1.
        -11    1    6    6    0    0  0.68594351197E+02 -0.10480292843E+02  0.86993741083E+02  0.11127862572E+03  0.00000000000E+00 0.  1.
         12    1    6    6    0    0  0.18153989605E+02 -0.45527338710E+02  0.10319505903E+02  0.50087903836E+02  0.00000000000E+00 0. -1.
         -5    1    3    3    0  503 -0.68147050264E+02 -0.18700791150E+01 -0.27777095258E+02  0.73764318451E+02  0.47000000000E+01 0.  1.
         13    1    4    4    0    0  0.10695418947E+02  0.84196250337E+01 -0.16549658691E+02  0.21428328795E+02  0.00000000000E+00 0. -1.
        -14    1    4    4    0    0  0.96668294994E+01  0.42940578056E+02  0.83146076984E+02  0.94077685740E+02  0.00000000000E+00 0.  1.
</event>
<event>
12    1  0.8451514E-002  0.2181546E+03  0.7818608E-02  0.1135275E+00
         21   -1    0    0  501  502  0.00000000000E+00  0.00000000000E+00  0.16082566706E+04  0.16082566706E+04  0.00000000000E+00 0. -1.
         21   -1    0    0  502  503 -0.00000000000E+00 -0.00000000000E+00 -0.46968808978E+02  0.46968808978E+02  0.00000000000E+00 0.  1.
         -6    2    1    2    0  503  0.79456076800E+02  0.10722696682E+03  0.27710959545E+03  0.35264909833E+03  0.17251309547E+03 0.  0.
        -24    2    3    3    0    0  0.44452148905E+01  0.42994866714E+01  0.18197251887E+03  0.19360869807E+03  0.65818575068E+02 0.  0.
          6    2    1    2  501    0 -0.79456076800E+02 -0.10722696682E+03  0.12841782662E+04  0.13025763813E+04  0.17257033091E+03 0.  0.
         24    2    5    5    0    0  0.14875485352E+02 -0.15365778649E+02  0.59044482617E+03  0.59644247235E+03  0.81615824788E+02 0.  0.
          5    1    5    5  501    0 -0.94331562152E+02 -0.91861188176E+02  0.69373344003E+03  0.70613390892E+03  0.47000000000E+01 0. -1.
        -13    1    6    6    0    0  0.48167262199E+02 -0.37851865014E+01  0.38116490831E+03  0.38421491396E+03  0.00000000000E+00 0.  1.
         14    1    6    6    0    0 -0.33291776846E+02 -0.11580592148E+02  0.20927991786E+03  0.21222755839E+03  0.00000000000E+00 0. -1.
         -5    1    3    3    0  503  0.75010861909E+02  0.10292748015E+03  0.95137076577E+02  0.15904040026E+03  0.47000000000E+01 0.  1.
         11    1    4    4    0    0  0.15251960789E+02  0.18576086967E+02  0.17084458663E+03  0.17252700106E+03  0.00000000000E+00 0. -1.
        -12    1    4    4    0    0 -0.10806745899E+02 -0.14276600296E+02  0.11127932246E+02  0.21081697014E+02  0.00000000000E+00 0.  1.
</event>
<event>
12    1  0.8451514E-002  0.1794615E+03  0.7818608E-02  0.1169167E+00
         21   -1    0    0  503  502  0.00000000000E+00  0.00000000000E+00  0.26336080065E+04  0.26336080065E+04  0.00000000000E+00 0. -1.
         21   -1    0    0  501  503 -0.00000000000E+00 -0.00000000000E+00 -0.13483358653E+02  0.13483358653E+02  0.00000000000E+00 0. -1.
          6    2    1    2  501    0  0.10635460729E+02 -0.36863021660E+02  0.85930050254E+03  0.87714557194E+03  0.17179931701E+03 0.  0.
         24    2    3    3    0    0 -0.18534344254E+02  0.15889245723E+02  0.72790089695E+03  0.73250247468E+03  0.78257073721E+02 0.  0.
         -6    2    1    2    0  502 -0.10635460729E+02  0.36863021660E+02  0.17608241454E+04  0.17699457933E+04  0.17531242058E+03 0.  0.
        -24    2    5    5    0    0 -0.24981174530E+02  0.88619871947E+02  0.13670336379E+04  0.13724818014E+04  0.80298114886E+02 0.  0.
          5    1    3    3  501    0  0.29169804982E+02 -0.52752267383E+02  0.13139960559E+03  0.14464309726E+03  0.47000000000E+01 0. -1.
        -13    1    4    4    0    0 -0.46915129085E+02 -0.43388936155E+01  0.41288950605E+03  0.41556900695E+03  0.00000000000E+00 0.  1.
         14    1    4    4    0    0  0.28380784832E+02  0.20228139338E+02  0.31501139090E+03  0.31693346773E+03  0.00000000000E+00 0. -1.
         -5    1    5    5    0  502  0.14345713802E+02 -0.51756850287E+02  0.39379050746E+03  0.39746399185E+03  0.47000000000E+01 0.  1.
         13    1    6    6    0    0 -0.20701363666E+02  0.42262615081E+02  0.24476764563E+03  0.24925062776E+03  0.00000000000E+00 0. -1.
        -14    1    6    6    0    0 -0.42798108645E+01  0.46357256866E+02  0.11222659923E+04  0.11232311736E+04  0.00000000000E+00 0.  1.
</event>
<event>
12    1  0.8451514E-002  0.2168657E+03  0.7818608E-02  0.1136742E+00
         21   -1    0    0  501  502  0.00000000000E+00  0.00000000000E+00  0.21886462201E+03  0.21886462201E+03  0.00000000000E+00 0. -1.
         21   -1    0    0  502  503 -0.00000000000E+00 -0.00000000000E+00 -0.63245986816E+03  0.63245986816E+03  0.00000000000E+00 0. -1.
         -6    2    1    2    0  503  0.12379613405E+03  0.38444369065E+02 -0.55331562594E+03  0.59334673473E+03  0.17058344992E+03 0.  0.
        -24    2    3    3    0    0 -0.23456471797E+01  0.43079553354E+02 -0.24224708642E+03  0.25761029021E+03  0.76276213602E+02 0.  0.
          6    2    1    2  501    0 -0.12379613405E+03 -0.38444369065E+02  0.13972037979E+03  0.25797775544E+03  0.17385995933E+03 0.  0.
         24    2    5    5    0    0 -0.68065243563E+02 -0.82804052271E+02  0.47537748096E+02  0.14138684142E+03  0.79000082137E+02 0.  0.
          5    1    5    5  501    0 -0.55730890485E+02  0.44359683206E+02  0.92182631692E+02  0.11659091403E+03  0.47000000000E+01 0. -1.
        -11    1    6    6    0    0  0.25522353878E+01 -0.53484987974E+02  0.47226877473E+01  0.53753712650E+02  0.00000000000E+00 0.  1.
         12    1    6    6    0    0 -0.70617478951E+02 -0.29319064296E+02  0.42815060349E+02  0.87633128765E+02  0.00000000000E+00 0. -1.
         -5    1    3    3    0  503  0.12614178123E+03 -0.46351842890E+01 -0.31106853951E+03  0.33573644452E+03  0.47000000000E+01 0.  1.
         13    1    4    4    0    0  0.32436994555E+02  0.37367785707E+02 -0.17257880820E+03  0.17953260168E+03  0.00000000000E+00 0. -1.
        -14    1    4    4    0    0 -0.34782641735E+02  0.57117676470E+01 -0.69668278223E+02  0.78077688531E+02  0.00000000000E+00 0.  1.
</event>
<event>
12    1  0.8451514E-002  0.1723952E+03  0.7818608E-02  0.1175598E+00
         21   -1    0    0  503  502  0.00000000000E+00  0.00000000000E+00  0.20719336513E+03  0.20719336513E+03  0.00000000000E+00 0. -1.
         21   -1    0    0  501  503 -0.00000000000E+00 -0.00000000000E+00 -0.21981850434E+03  0.21981850434E+03  0.00000000000E+00 0. -1.
          6    2    1    2  501    0  0.11506873528E+02 -0.10216343906E+02 -0.13277471349E+03  0.21759879684E+03  0.17170710533E+03 0.  0.
         24    2    3    3    0    0  0.56708331812E+02 -0.45757133806E+02 -0.97005928424E+02  0.14971790436E+03  0.87725427025E+02 0.  0.
         -6    2    1    2    0  502 -0.11506873528E+02  0.10216343906E+02  0.12014957428E+03  0.20941307263E+03  0.17082486050E+03 0.  0.
        -24    2    5    5    0    0  0.91262307104E+01 -0.54880305903E+02  0.48886090596E+02  0.11060076108E+03  0.82143425992E+02 0.  0.
          5    1    3    3  501    0 -0.45201458284E+02  0.35540789900E+02 -0.35768785067E+02  0.67880892473E+02  0.47000000000E+01 0. -1.
        -11    1    4    4    0    0  0.64246508752E+02 -0.86192531226E+01 -0.90419430966E+02  0.11125456803E+03  0.00000000000E+00 0.  1.
         12    1    4    4    0    0 -0.75381769398E+01 -0.37137880684E+02 -0.65864974586E+01  0.38463336335E+02  0.00000000000E+00 0. -1.
         -5    1    5    5    0  502 -0.20633104239E+02  0.65096649809E+02  0.71263483687E+02  0.98812311552E+02  0.47000000000E+01 0.  1.
         11    1    6    6    0    0  0.25176616333E+02 -0.20716516156E+02  0.62484762142E+02  0.70479653458E+02  0.00000000000E+00 0. -1.
        -12    1    6    6    0    0 -0.16050385623E+02 -0.34163789747E+02 -0.13598671547E+02  0.40121107617E+02  0.00000000000E+00 0.  1.
</event>
<event>
12    1  0.8451514E-002  0.1884573E+03  0.7818608E-02  0.1160157E+00
         21   -1    0    0  503  502  0.00000000000E+00  0.00000000000E+00  0.35141913617E+02  0.35141913617E+02  0.00000000000E+00 0. -1.
         21   -1    0    0  501  503 -0.00000000000E+00 -0.00000000000E+00 -0.13192555498E+04  0.13192555498E+04  0.00000000000E+00 0.  1.
          6    2    1    2  501    0 -0.10806835441E+02  0.69423389292E+02 -0.30918026806E+03  0.36141649177E+03  0.17347347834E+03 0.  0.
         24    2    3    3    0    0 -0.26130005051E+02  0.89344737382E+02 -0.12358375801E+03  0.17406704773E+03  0.79756708808E+02 0.  0.
         -6    2    1    2    0  502  0.10806835441E+02 -0.69423389292E+02 -0.97493336810E+03  0.99298097163E+03  0.17487064680E+03 0.  0.
        -24    2    5    5    0    0 -0.22796291689E+02 -0.59199435486E+02 -0.29540900007E+03  0.31253321013E+03  0.79914241753E+02 0.  0.
          5    1    3    3  501    0  0.15323169611E+02 -0.19921348091E+02 -0.18559651006E+03  0.18734944404E+03  0.47000000000E+01 0. -1.
        -11    1    4    4    0    0 -0.77895695918E+01 -0.36779640242E+00 -0.64770457470E+02  0.65238216020E+02  0.00000000000E+00 0.  1.
         12    1    4    4    0    0 -0.18340435460E+02  0.89712533785E+02 -0.58813300537E+02  0.10882883171E+03  0.00000000000E+00 0. -1.
         -5    1    5    5    0  502  0.33603127129E+02 -0.10223953805E+02 -0.67952436803E+03  0.68044776150E+03  0.47000000000E+01 0.  1.
         11    1    6    6    0    0 -0.37101713161E+02  0.38901958142E+01 -0.10408965704E+03  0.11057272469E+03  0.00000000000E+00 0. -1.
        -12    1    6    6    0    0  0.14305421472E+02 -0.63089631300E+02 -0.19131934303E+03  0.20196048544E+03  0.00000000000E+00 0.  1.
</event>
<event>
12    1  0.8451514E-002  0.2064791E+03  0.7818608E-02  0.1144837E+00
         21   -1    0    0  503  502  0.00000000000E+00  0.00000000000E+00  0.56594668684E+03  0.56594668684E+03  0.00000000000E+00 0. -1.
         21   -1    0    0  501  503 -0.00000000000E+00 -0.00000000000E+00 -0.12408108527E+03  0.12408108527E+03  0.00000000000E+00 0. -1.
          6    2    1    2  501    0 -0.67493559499E+02  0.90990463084E+02  0.21736919146E+01  0.20426796747E+03  0.16995891460E+03 0.  0.
         24    2    3    3    0    0 -0.22573621048E+02  0.12007566591E+03  0.20407576113E+02  0.14753777774E+03  0.80144823836E+02 0.  0.
         -6    2    1    2    0  502  0.67493559499E+02 -0.90990463084E+02  0.43969190965E+03  0.48575980464E+03  0.17262377429E+03 0.  0.
        -24    2    5    5    0    0  0.70589091657E+02 -0.12946215095E+03  0.35086056464E+03  0.38879202162E+03  0.79453331410E+02 0.  0.
          5    1    3    3  501    0 -0.44919938451E+02 -0.29085202821E+02 -0.18233884199E+02  0.56730189728E+02  0.47000000000E+01 0. -1.
        -11    1    4    4    0    0  0.24166018490E+02  0.13305816714E+02  0.13677606479E+02  0.30791526871E+02  0.00000000000E+00 0.  1.
         12    1    4    4    0    0 -0.46739639538E+02  0.10676984919E+03  0.67299696347E+01  0.11674625087E+03  0.00000000000E+00 0. -1.
         -5    1    5    5    0  502 -0.30955321579E+01  0.38471687866E+02  0.88831345013E+02  0.96967783018E+02  0.47000000000E+01 0.  1.
         13    1    6    6    0    0  0.67432337424E+01 -0.52687859956E+02  0.54680119329E+02  0.76232520868E+02  0.00000000000E+00 0. -1.
        -14    1    6    6    0    0  0.63845857914E+02 -0.76774290995E+02  0.29618044531E+03  0.31255950076E+03  0.00000000000E+00 0.  1.
</event>
<event>
12    1  0.8451514E-002  0.2039592E+03  0.7818608E-02  0.1146537E+00
         21   -1    0    0  501  502  0.00000000000E+00  0.00000000000E+00  0.46767946900E+03  0.46767946900E+03  0.00000000000E+00 0.  1.
         21   -1    0    0  502  503 -0.00000000000E+00 -0.00000000000E+00 -0.11436376529E+03  0.11436376529E+03  0.00000000000E+00 0. -1.
         -6    2    1    2    0  503 -0.62527740951E+02  0.90519392727E+02  0.39074017578E+02  0.20766830732E+03  0.17174361172E+03 0.  0.
        -24    2    3    3    0    0 -0.50940486567E+02 -0.36575362342E+01  0.52327726748E+02  0.11174485232E+03  0.84500948458E+02 0.  0.
          6    2    1    2  501    0  0.62527740951E+02 -0.90519392727E+02  0.31424168613E+03  0.37437492697E+03  0.17118782022E+03 0.  0.
         24    2    5    5    0    0  0.19476992674E+02 -0.39493640076E+01  0.56345351412E+02  0.98911052275E+02  0.78826689115E+02 0.  0.
          5    1    5    5  501    0  0.43050748277E+02 -0.86570028720E+02  0.25789633472E+03  0.27546387469E+03  0.47000000000E+01 0. -1.
        -13    1    6    6    0    0  0.41337765396E+02 -0.26399574335E+02  0.27042776851E+02  0.56009464850E+02  0.00000000000E+00 0.  1.
         14    1    6    6    0    0 -0.21860772721E+02  0.22450210327E+02  0.29302574560E+02  0.42901587425E+02  0.00000000000E+00 0. -1.
         -5    1    3    3    0  503 -0.11587254384E+02  0.94176928961E+02 -0.13253709170E+02  0.95923455002E+02  0.47000000000E+01 0.  1.
         13    1    4    4    0    0  0.77965476093E+01 -0.68343672539E+01 -0.17562868100E+02  0.20394829401E+02  0.00000000000E+00 0. -1.
        -14    1    4    4    0    0 -0.58737034177E+02  0.31768310197E+01  0.69890594848E+02  0.91350022920E+02  0.00000000000E+00 0.  1.
</event>
<event>
12    1  0.8451514E-002  0.1799964E+03  0.7818608E-02  0.1168066E+00
         21   -1    0    0  501  502  0.00000000000E+00  0.00000000000E+00  0.35153472389E+02  0.35153472389E+02  0.00000000000E+00 0. -1.
         21   -1    0    0  502  503 -0.00000000000E+00 -0.00000000000E+00 -0.13336423772E+04  0.13336423772E+04  0.00000000000E+00 0. -1.
         -6    2    1    2    0  503  0.53418701421E+02  0.16997747811E+01 -0.10334859475E+04  0.10490433261E+04  0.17187858941E+03 0.  0.
        -24    2    3    3    0    0  0.82173493492E+02 -0.12783447409E+02 -0.97555486961E+03  0.98260010541E+03  0.82944342669E+02 0.  0.
          6    2    1    2  501    0 -0.53418701421E+02 -0.16997747811E+01 -0.26500295728E+03  0.31975252344E+03  0.17075907584E+03 0.  0.
         24    2    5    5    0    0 -0.72625931700E+02 -0.41496088807E+02 -0.11589202113E+03  0.16416066766E+03  0.80754646330E+02 0.  0.
          5    1    5    5  501    0  0.19207230278E+02  0.39796314026E+02 -0.14911093615E+03  0.15559185578E+03  0.47000000000E+01 0. -1.
        -13    1    6    6    0    0  0.16094146873E+02 -0.18674042309E+02 -0.25206441056E+02  0.35257709659E+02  0.00000000000E+00 0.  1.
         14    1    6    6    0    0 -0.88720078572E+02 -0.22822046498E+02 -0.90685580072E+02  0.12890295800E+03  0.00000000000E+00 0. -1.
         -5    1    3    3    0  503 -0.28754792070E+02  0.14483222190E+02 -0.57931077892E+02  0.66443220706E+02  0.47000000000E+01 0.  1.
         13    1    4    4    0    0  0.25716910942E+02  0.33093592695E+02 -0.25992528419E+03  0.26328254546E+03  0.00000000000E+00 0. -1.
        -14    1    4    4    0    0  0.56456582550E+02 -0.45877040104E+02 -0.71562958542E+03  0.71931755995E+03  0.00000000000E+00 0.  1.
</event>
<event>
12    1  0.8451514E-002  0.1742299E+03  0.7818608E-02  0.1173916E+00
         21   -1    0    0  503  502  0.00000000000E+00  0.00000000000E+00  0.82843715340E+03  0.82843715340E+03  0.00000000000E+00 0. -1.
         21   -1    0    0  501  503 -0.00000000000E+00 -0.00000000000E+00 -0.38918661793E+02  0.38918661793E+02  0.00000000000E+00 0. -1.
          6    2    1    2  501    0 -0.13568701942E+02 -0.14931338731E+02  0.28407891338E+03  0.33325197777E+03  0.17305778546E+03 0.  0.
         24    2    3    3    0    0 -0.37992550473E+02  0.41296767208E+02  0.23147392413E+03  0.25233535915E+03  0.83331260939E+02 0.  0.
         -6    2    1    2    0  502  0.13568701942E+02  0.14931338731E+02  0.50543957822E+03  0.53410383742E+03  0.17143712367E+03 0.  0.
        -24    2    5    5    0    0  0.44048376292E+02  0.63040458192E+02  0.38809492478E+03  0.40358427715E+03  0.79675838857E+02 0.  0.
          5    1    3    3  501    0  0.24423848531E+02 -0.56228105939E+02  0.52604989252E+02  0.80916618619E+02  0.47000000000E+01 0. -1.
        -11    1    4    4    0    0  0.74279530658E+01  0.30018403835E+02  0.18052444588E+03  0.18315390964E+03  0.00000000000E+00 0.  1.
         12    1    4    4    0    0 -0.45420503539E+02  0.11278363373E+02  0.50949478255E+02  0.69181449511E+02  0.00000000000E+00 0. -1.
         -5    1    5    5    0  502 -0.30479674350E+02 -0.48109119461E+02  0.11734465344E+03  0.13051956028E+03  0.47000000000E+01 0.  1.
         13    1    6    6    0    0 -0.20019755161E+02  0.33910087513E+02  0.11451132077E+03  0.12109305189E+03  0.00000000000E+00 0. -1.
        -14    1    6    6    0    0  0.64068131452E+02  0.29130370679E+02  0.27358360401E+03  0.28249122525E+03  0.00000000000E+00 0.  1.
</event>
<event>
12    1  0.8451514E-002  0.1890035E+03  0.7818608E-02  0.1159676E+00
         21   -1    0    0  501  502  0.00000000000E+00  0.00000000000E+00  0.17953534690E+03  0.17953534690E+03  0.00000000000E+00 0. -1.
         21   -1    0    0  502  503 -0.00000000000E+00 -0.00000000000E+00 -0.31102200244E+03  0.31102200244E+03  0.00000000000E+00 0. -1.
         -6    2    1    2    0  503 -0.78484172892E+02 -0.46171248949E+01 -0.21375639243E+03  0.28442476861E+03  0.17036598974E+03 0.  0.
        -24    2    3    3    0    0 -0.11409127087E+03  0.82515407513E+01 -0.12360647951E+03  0.18653419306E+03  0.80196866478E+02 0.  0.
          6    2    1    2  501    0  0.78484172892E+02  0.46171248949E+01  0.82269736892E+02  0.20613258073E+03  0.17187567598E+03 0.  0.
         24    2    5    5    0    0  0.76355904267E+02  0.64600044272E+02  0.47550120240E+02  0.13663422158E+03  0.80028162138E+02 0.  0.
          5    1    5    5  501    0  0.21282686242E+01 -0.59982919377E+02  0.34719616653E+02  0.69498359152E+02  0.47000000000E+01 0. -1.
        -13    1    6    6    0    0 -0.99260185741E+01  0.32667545180E+02  0.26056631133E+01  0.34241551265E+02  0.00000000000E+00 0.  1.
         14    1    6    6    0    0  0.86281922841E+02  0.31932499093E+02  0.44944457126E+02  0.10239267031E+03  0.00000000000E+00 0. -1.
         -5    1    3    3    0  503  0.35607097974E+02 -0.12868665646E+02 -0.90149912921E+02  0.97890575549E+02  0.47000000000E+01 0.  1.
         13    1    4    4    0    0 -0.68913682490E+02 -0.13184094089E+02 -0.11654160453E+03  0.13603257536E+03  0.00000000000E+00 0. -1.
        -14    1    4    4    0    0 -0.45177588376E+02  0.21435634840E+02 -0.70648749742E+01  0.50501617705E+02  0.00000000000E+00 0.  1.
</event>
<event>
12    1  0.8451514E-002  0.2750227E+03  0.7818608E-02  0.1098611E+00
         21   -1    0    0  503  502  0.00000000000E+00  0.00000000000E+00  0.30616349447E+03  0.30616349447E+03  0.00000000000E+00 0.  1.
         21   -1    0    0  501  503 -0.00000000000E+00 -0.00000000000E+00 -0.38867361282E+03  0.38867361282E+03  0.00000000000E+00 0. -1.
          6    2    1    2  501    0 -0.21233565034E+03  0.29320417853E+02 -0.25184125954E+03  0.37290953098E+03  0.17231187707E+03 0.  0.
         24    2    3    3    0    0 -0.15680408355E+03 -0.27298259719E+02 -0.22916631359E+03  0.29029190130E+03  0.80121614280E+02 0.  0.
         -6    2    1    2    0  502  0.21233565034E+03 -0.29320417853E+02  0.16933114120E+03  0.32192757631E+03  0.17034733252E+03 0.  0.
        -24    2    5    5    0    0  0.17460601939E+03 -0.44487951730E+02  0.58948968862E+02  0.20419952907E+03  0.75868484162E+02 0.  0.
          5    1    3    3  501    0 -0.55531566793E+02  0.56618677573E+02 -0.22674945954E+02  0.82617629684E+02  0.47000000000E+01 0. -1.
        -11    1    4    4    0    0 -0.20218885457E+02 -0.83815675023E+01  0.10800247631E+01  0.21913932929E+02  0.00000000000E+00 0.  1.
         12    1    4    4    0    0 -0.13658519809E+03 -0.18916692217E+02 -0.23024633835E+03  0.26837796837E+03  0.00000000000E+00 0. -1.
         -5    1    5    5    0  502  0.37729630956E+02  0.15167533876E+02  0.11038217233E+03  0.11772804723E+03  0.47000000000E+01 0.  1.
         11    1    6    6    0    0  0.66957725404E+02  0.16292534843E+02  0.43249648546E+01  0.69047005756E+02  0.00000000000E+00 0. -1.
        -12    1    6    6    0    0  0.10764829398E+03 -0.60780486573E+02  0.54624004007E+02  0.13515252332E+03  0.00000000000E+00 0.  1.
</event>
<event>
12    1  0.8451514E-002  0.1882140E+03  0.7818608E-02  0.1160141E+00
         21   -1    0    0  501  502  0.00000000000E+00  0.00000000000E+00  0.91552078061E+03  0.91552078061E+03  0.00000000000E+00 0.  1.
         21   -1    0    0  502  503 -0.00000000000E+00 -0.00000000000E+00 -0.70603396453E+02  0.70603396453E+02  0.00000000000E+00 0.  1.
         -6    2    1    2    0  503 -0.34416344049E+02 -0.70054642041E+02  0.90551010015E+02  0.20863260800E+03  0.17098521017E+03 0.  0.
        -24    2    3    3    0    0 -0.38235654323E+02 -0.28898543047E+02  0.11102796332E+03  0.16226659424E+03  0.10819495328E+03 0.  0.
          6    2    1    2  501    0  0.34416344049E+02  0.70054642041E+02  0.75436637414E+03  0.77749156907E+03  0.17126697265E+03 0.  0.
         24    2    5    5    0    0  0.23872690189E+02 -0.16602692393E+01  0.17712095336E+03  0.19569386973E+03  0.79696905209E+02 0.  0.
          5    1    5    5  501    0  0.10543653860E+02  0.71714911281E+02  0.57724542078E+03  0.58179769933E+03  0.47000000000E+01 0. -1.
        -13    1    6    6    0    0  0.18998026461E+02  0.29336027989E+02  0.15062291290E+03  0.15462467280E+03  0.00000000000E+00 0.  1.
         14    1    6    6    0    0  0.48746637284E+01 -0.30996297229E+02  0.26498040460E+02  0.41069196931E+02  0.00000000000E+00 0. -1.
         -5    1    3    3    0  503  0.38193102743E+01 -0.41156098994E+02 -0.20476953305E+02  0.46366013760E+02  0.47000000000E+01 0.  1.
         11    1    4    4    0    0  0.18667166838E+02 -0.37197133610E+02  0.53563982782E+01  0.41961659513E+02  0.00000000000E+00 0. -1.
        -12    1    4    4    0    0 -0.56902821161E+02  0.82985905626E+01  0.10567156504E+03  0.12030493473E+03  0.00000000000E+00 0.  1.
</event>
<event>
12    1  0.8451514E-002  0.1952751E+03  0.7818608E-02  0.1155190E+00
         21   -1    0    0  503  502  0.00000000000E+00  0.00000000000E+00  0.13214291393E+03  0.13214291393E+03  0.00000000000E+00 0. -1.
         21   -1    0    0  501  503 -0.00000000000E+00 -0.00000000000E+00 -0.64149033657E+03  0.64149033657E+03  0.00000000000E+00 0. -1.
          6    2    1    2  501    0 -0.18757364667E+02 -0.74764522449E+02 -0.54714263627E+03  0.58094530589E+03  0.17941797978E+03 0.  0.
         24    2    3    3    0    0  0.36411731069E+02 -0.30124808559E+02 -0.14124674910E+03  0.16886534472E+03  0.79570988842E+02 0.  0.
         -6    2    1    2    0  502  0.18757364667E+02  0.74764522449E+02  0.37795213618E+02  0.19268794461E+03  0.17250679198E+03 0.  0.
        -24    2    5    5    0    0 -0.13242527467E+02 -0.24971476954E+02  0.18861457141E+02  0.86142931551E+02  0.79157506882E+02 0.  0.
          5    1    3    3  501    0 -0.55169095736E+02 -0.44639713889E+02 -0.40589588717E+03  0.41207996117E+03  0.47000000000E+01 0. -1.
        -13    1    4    4    0    0  0.77103808102E+01  0.13040236196E+02  0.31264593711E+01  0.15468434972E+02  0.00000000000E+00 0.  1.
         14    1    4    4    0    0  0.28701350259E+02 -0.43165044756E+02 -0.14437320847E+03  0.15339690974E+03  0.00000000000E+00 0. -1.
         -5    1    5    5    0  502  0.31999892134E+02  0.99735999403E+02  0.18933756477E+02  0.10654501306E+03  0.47000000000E+01 0.  1.
         11    1    6    6    0    0 -0.69712917452E+01  0.18930117510E+02  0.33787223370E+02  0.39351298843E+02  0.00000000000E+00 0. -1.
        -12    1    6    6    0    0 -0.62712357218E+01 -0.43901594464E+02 -0.14925766230E+02  0.46791632708E+02  0.00000000000E+00 0.  1.
</event>
<event>
12    1  0.8451514E-002  0.1836406E+03  0.7818608E-02  0.1164845E+00
         21   -1    0    0  501  502  0.00000000000E+00  0.00000000000E+00  0.14272225731E+03  0.14272225731E+03  0.00000000000E+00 0. -1.
         21   -1    0    0  502  503 -0.00000000000E+00 -0.00000000000E+00 -0.55129393701E+03  0.55129393701E+03  0.00000000000E+00 0. -1.
         -6    2    1    2    0  503 -0.41199702669E+02 -0.48980063823E+02 -0.46723706019E+03  0.50123263119E+03  0.16978580037E+03 0.  0.
        -24    2    3    3    0    0  0.36631578024E+02 -0.44064616128E+02 -0.21078737425E+03  0.23314607558E+03  0.81499770022E+02 0.  0.
          6    2    1    2  501    0  0.41199702669E+02  0.48980063823E+02  0.58665380489E+02  0.19278356313E+03  0.17212615488E+03 0.  0.
         24    2    5    5    0    0 -0.30985991102E+02  0.37425373180E+02  0.70987509116E+02  0.11849890715E+03  0.81498308831E+02 0.  0.
          5    1    5    5  501    0  0.72185693771E+02  0.11554690643E+02 -0.12322128628E+02  0.74284655986E+02  0.47000000000E+01 0. -1.
        -13    1    6    6    0    0 -0.37750205183E+01 -0.24020787760E+02  0.60683211972E+01  0.25061395545E+02  0.00000000000E+00 0.  1.
         14    1    6    6    0    0 -0.27210970583E+02  0.61446160940E+02  0.64919187919E+02  0.93437511602E+02  0.00000000000E+00 0. -1.
         -5    1    3    3    0  503 -0.77831280694E+02 -0.49154476954E+01 -0.25644968594E+03  0.26808655561E+03  0.47000000000E+01 0.  1.
         11    1    4    4    0    0 -0.59806783117E+01 -0.50125321535E+02 -0.15285311780E+03  0.16097326484E+03  0.00000000000E+00 0. -1.
        -12    1    4    4    0    0  0.42612256336E+02  0.60607054073E+01 -0.57934256447E+02  0.72172810740E+02  0.00000000000E+00 0.  1.
</event>
<event>
12    1  0.8451514E-002  0.1818634E+03  0.7818608E-02  0.1166970E+00
         21   -1    0    0  501  502  0.00000000000E+00  0.00000000000E+00  0.11358955176E+03  0.11358955176E+03  0.00000000000E+00 0.  1.
         21   -1    0    0  502  503 -0.00000000000E+00 -0.00000000000E+00 -0.33396616773E+03  0.33396616773E+03  0.00000000000E+00 0.  1.
         -6    2    1    2    0  503 -0.52212259527E+01  0.42109212938E+02 -0.19495709112E+03  0.26392439946E+03  0.17276392631E+03 0.  0.
        -24    2    3    3    0    0 -0.47565590660E+02  0.20793840661E+02 -0.19445090900E+03  0.21628264741E+03  0.79196959128E+02 0.  0.
          6    2    1    2  501    0  0.52212259527E+01 -0.42109212938E+02 -0.25419524841E+02  0.18363132004E+03  0.17684417559E+03 0.  0.
         24    2    5    5    0    0  0.26319714268E+02 -0.60541950918E+02  0.41287786612E+02  0.11112706196E+03  0.79287372236E+02 0.  0.
          5    1    5    5  501    0 -0.21098488315E+02  0.18432737980E+02 -0.66707311453E+02  0.72504258081E+02  0.47000000000E+01 0. -1.
        -11    1    6    6    0    0  0.42214061197E+02 -0.10884446494E+02  0.39701670880E+02  0.58963724517E+02  0.00000000000E+00 0.  1.
         12    1    6    6    0    0 -0.15894346929E+02 -0.49657504424E+02  0.15861157321E+01  0.52163337441E+02  0.00000000000E+00 0. -1.
         -5    1    3    3    0  503  0.42344364707E+02  0.21315372277E+02 -0.50618212440E+00  0.47641752047E+02  0.47000000000E+01 0.  1.
         11    1    4    4    0    0 -0.47296124445E+02 -0.11272673790E+01 -0.45202933253E+02  0.65433166620E+02  0.00000000000E+00 0. -1.
        -12    1    4    4    0    0 -0.26946621478E+00  0.21921108040E+02 -0.14924797575E+03  0.15084948079E+03  0.00000000000E+00 0.  1.
</event>
<event>
12    1  0.8451514E-002  0.1839362E+03  0.7818608E-02  0.1164354E+00
         21   -1    0    0  503  502  0.00000000000E+00  0.00000000000E+00  0.17059965911E+03  0.17059965911E+03  0.00000000000E+00 0. -1.
         21   -1    0    0  501  503 -0.00000000000E+00 -0.00000000000E+00 -0.92899792515E+03  0.92899792515E+03  0.00000000000E+00 0. -1.
          6    2    1    2  501    0  0.62565720439E+02 -0.11301543502E+02 -0.86754676296E+03  0.88683138514E+03  0.17259874131E+03 0.  0.
         24    2    3    3    0    0  0.64043465270E+02 -0.47398221491E+02 -0.81689130110E+03  0.82443571456E+03  0.77683285116E+02 0.  0.
         -6    2    1    2    0  502 -0.62565720439E+02  0.11301543502E+02  0.10914849692E+03  0.21276619911E+03  0.17121292839E+03 0.  0.
        -24    2    5    5    0    0 -0.48293022108E+02 -0.48988880792E+02  0.98622746632E+02  0.14974614994E+03  0.89248735803E+02 0.  0.
          5    1    3    3  501    0 -0.14777448313E+01  0.36096677989E+02 -0.50655461852E+02  0.62395670580E+02  0.47000000000E+01 0. -1.
        -11    1    4    4    0    0  0.79141502303E+02 -0.36450736260E+02 -0.54654185693E+03  0.55344379565E+03  0.00000000000E+00 0.  1.
         12    1    4    4    0    0 -0.15098037033E+02 -0.10947485231E+02 -0.27034944417E+03  0.27099191892E+03  0.00000000000E+00 0. -1.
         -5    1    5    5    0  502 -0.14272698331E+02  0.60290424293E+02  0.10525750288E+02  0.63020049177E+02  0.47000000000E+01 0.  1.
         11    1    6    6    0    0  0.28870404279E+00  0.22514143403E+02  0.37973250308E+02  0.44146774991E+02  0.00000000000E+00 0. -1.
        -12    1    6    6    0    0 -0.48581726151E+02 -0.71503024194E+02  0.60649496324E+02  0.10559937495E+03  0.00000000000E+00 0.  1.
</event>
<event>
12    1  0.8451514E-002  0.2558025E+03  0.7818608E-02  0.1110369E+00
         21   -1    0    0  503  502  0.00000000000E+00  0.00000000000E+00  0.67361959546E+03  0.67361959546E+03  0.00000000000E+00 0.  1.
         21   -1    0    0  501  503 -0.00000000000E+00 -0.00000000000E+00 -0.36205867154E+03  0.36205867154E+03  0.00000000000E+00 0. -1.
          6    2    1    2  501    0 -0.82488097309E+02 -0.17008756034E+03 -0.28819935508E+03  0.38534893872E+03  0.17233940909E+03 0.  0.
         24    2    3    3    0    0  0.24810439180E+02 -0.85027337472E+02 -0.12970999722E+03  0.17585148288E+03  0.79081316659E+02 0.  0.
         -6    2    1    2    0  502  0.82488097309E+02  0.17008756034E+03  0.59976027899E+03  0.65032932828E+03  0.16577629077E+03 0.  0.
        -24    2    5    5    0    0  0.75896200249E+02  0.54696026950E+02  0.41528223165E+03  0.43258429610E+03  0.76928231067E+02 0.  0.
          5    1    3    3  501    0 -0.10729853649E+03 -0.85060222870E+02 -0.15848935786E+03  0.20949745584E+03  0.47000000000E+01 0. -1.
        -11    1    4    4    0    0  0.15373390585E+02 -0.98061293700E+02 -0.12386988132E+03  0.15873281311E+03  0.00000000000E+00 0.  1.
         12    1    4    4    0    0  0.94370485952E+01  0.13033956227E+02 -0.58401158995E+01  0.17118669774E+02  0.00000000000E+00 0. -1.
         -5    1    5    5    0  502  0.65918970597E+01  0.11539153339E+03  0.18447804735E+03  0.21774503218E+03  0.47000000000E+01 0.  1.
         11    1    6    6    0    0 -0.13560558636E+02 -0.29995540670E+00  0.25241623658E+02  0.28655161641E+02  0.00000000000E+00 0. -1.
        -12    1    6    6    0    0  0.89456758885E+02  0.54995982356E+02  0.39004060799E+03  0.40392913446E+03  0.00000000000E+00 0.  1.
</event>
<event>
12    1  0.8451514E-002  0.2093573E+03  0.7818608E-02  0.1142354E+00
         21   -1    0    0  501  502  0.00000000000E+00  0.00000000000E+00  0.72517766633E+02  0.72517766633E+02  0.00000000000E+00 0. -1.
         21   -1    0    0  502  503 -0.00000000000E+00 -0.00000000000E+00 -0.61932270522E+03  0.61932270522E+03  0.00000000000E+00 0. -1.
         -6    2    1    2    0  503 -0.65544139900E+02  0.96878874955E+02 -0.21380805837E+03  0.29923966352E+03  0.17363450034E+03 0.  0.
        -24    2    3    3    0    0 -0.27490944847E+02  0.15412345546E+02 -0.18533384132E+03  0.20480602489E+03  0.81262430727E+02 0.  0.
          6    2    1    2  501    0  0.65544139900E+02 -0.96878874955E+02 -0.33299688021E+03  0.39260080834E+03  0.17195034686E+03 0.  0.
         24    2    5    5    0    0  0.49264150073E+01 -0.10686335387E+03 -0.27767976940E+03  0.30979820488E+03  0.86167438440E+02 0.  0.
          5    1    5    5  501    0  0.60617724893E+02  0.99844789181E+01 -0.55317110814E+02  0.82802603457E+02  0.47000000000E+01 0. -1.
        -13    1    6    6    0    0  0.42208770720E+01  0.11775573041E+02 -0.65662658677E+02  0.66843583598E+02  0.00000000000E+00 0.  1.
         14    1    6    6    0    0  0.70553793530E+00 -0.11863892691E+03 -0.21201711072E+03  0.24295462128E+03  0.00000000000E+00 0. -1.
         -5    1    3    3    0  503 -0.38053195053E+02  0.81466529408E+02 -0.28474217051E+02  0.94433638627E+02  0.47000000000E+01 0.  1.
         11    1    4    4    0    0 -0.50483411965E+02  0.18883248826E+01 -0.69381940599E+02  0.85825371166E+02  0.00000000000E+00 0. -1.
        -12    1    4    4    0    0  0.22992467118E+02  0.13524020664E+02 -0.11595190072E+03  0.11898065372E+03  0.00000000000E+00 0.  1.
</event>
<event>
12    1  0.8451514E-002  0.1988538E+03  0.7818608E-02  0.1150769E+00
         21   -1    0    0  503  502  0.00000000000E+00  0.00000000000E+00  0.27076981123E+03  0.27076981123E+03  0.00000000000E+00 0.  1.
         21   -1    0    0  501  503 -0.00000000000E+00 -0.00000000000E+00 -0.14694977491E+03  0.14694977491E+03  0.00000000000E+00 0.  1.
          6    2    1    2  501    0 -0.98977485016E+02 -0.14421297807E+02  0.43651953170E+02  0.20331397010E+03  0.17154171811E+03 0.  0.
         24    2    3    3    0    0 -0.10667744164E+03 -0.14055965877E+02  0.86418496586E+02  0.15960481734E+03  0.80174150651E+02 0.  0.
         -6    2    1    2    0  502  0.98977485016E+02  0.14421297807E+02  0.80168083145E+02  0.21440561604E+03  0.17186718786E+03 0.  0.
        -24    2    5    5    0    0  0.84013315947E+02  0.44115050111E+02 -0.53323391991E+01  0.12254671607E+03  0.77362063547E+02 0.  0.
          5    1    3    3  501    0  0.76999566288E+01 -0.36533192992E+00 -0.42766543416E+02  0.43709152763E+02  0.47000000000E+01 0. -1.
        -11    1    4    4    0    0 -0.94371114505E+02  0.19770996447E+02  0.50878707183E+02  0.10902037607E+03  0.00000000000E+00 0.  1.
         12    1    4    4    0    0 -0.12306327140E+02 -0.33826962324E+02  0.35539789403E+02  0.50584441270E+02  0.00000000000E+00 0. -1.
         -5    1    5    5    0  502  0.14964169069E+02 -0.29693752304E+02  0.85500422344E+02  0.91858899966E+02  0.47000000000E+01 0.  1.
         11    1    6    6    0    0  0.73123682692E+02  0.55786406595E+02  0.18545174592E+02  0.93824941417E+02  0.00000000000E+00 0. -1.
        -12    1    6    6    0    0  0.10889633254E+02 -0.11671356483E+02 -0.23877513791E+02  0.28721774656E+02  0.00000000000E+00 0.  1.
</event>
<event>
12    1  0.8451514E-002  0.5182166E+03  0.7818608E-02  0.1009132E+00
         21   -1    0    0  501  502  0.00000000000E+00  0.00000000000E+00  0.89143062788E+03  0.89143062788E+03  0.00000000000E+00 0.  1.
         21   -1    0    0  502  503 -0.00000000000E+00 -0.00000000000E+00 -0.30331426226E+03  0.30331426226E+03  0.00000000000E+00 0.  1.
         -6    2    1    2    0  503 -0.39838855461E+03  0.28293084544E+03  0.24472232498E+03  0.57309459730E+03  0.17258359529E+03 0.  0.
        -24    2    3    3    0    0 -0.14195304793E+03  0.11689676645E+03  0.38693371357E+02  0.20458882501E+03  0.80894304575E+02 0.  0.
          6    2    1    2  501    0  0.39838855461E+03 -0.28293084544E+03  0.34339404063E+03  0.62165029285E+03  0.17252917352E+03 0.  0.
         24    2    5    5    0    0  0.40533146063E+03 -0.29059624501E+03  0.34245980895E+03  0.61025182437E+03  0.79929955662E+02 0.  0.
          5    1    5    5  501    0 -0.69429060260E+01  0.76653995743E+01  0.93423167941E+00  0.11398468474E+02  0.47000000000E+01 0. -1.
        -13    1    6    6    0    0  0.15847240833E+03 -0.78317496287E+02  0.90645644369E+02  0.19865489491E+03  0.00000000000E+00 0.  1.
         14    1    6    6    0    0  0.24685905230E+03 -0.21227874872E+03  0.25181416458E+03  0.41159692947E+03  0.00000000000E+00 0. -1.
         -5    1    3    3    0  503 -0.25643550668E+03  0.16603407899E+03  0.20602895363E+03  0.36850577228E+03  0.47000000000E+01 0.  1.
         11    1    4    4    0    0 -0.32462794201E+02  0.37311628881E+02  0.47987759342E+02  0.68911651437E+02  0.00000000000E+00 0. -1.
        -12    1    4    4    0    0 -0.10949025372E+03  0.79585137567E+02 -0.92943879845E+01  0.13567717358E+03  0.00000000000E+00 0.  1.
</event>
<event>
12    1  0.8451514E-002  0.1959379E+03  0.7818608E-02  0.1153377E+00
         21   -1    0    0  501  502  0.00000000000E+00  0.00000000000E+00  0.15377609638E+03  0.15377609638E+03  0.00000000000E+00 0. -1.
         21   -1    0    0  502  503 -0.00000000000E+00 -0.00000000000E+00 -0.25157222413E+03  0.25157222413E+03  0.00000000000E+00 0. -1.
         -6    2    1    2    0  503 -0.22677784320E+02 -0.91109265389E+02 -0.27311687449E+02  0.19783226351E+03  0.17197818488E+03 0.  0.
        -24    2    3    3    0    0  0.28774338295E+02 -0.10559189118E+03 -0.42460973991E+02  0.14207692068E+03  0.80033162192E+02 0.  0.
          6    2    1    2  501    0  0.22677784320E+02  0.91109265389E+02 -0.70484440294E+02  0.20751605700E+03  0.17111305458E+03 0.  0.
         24    2    5    5    0    0 -0.33406509774E+02  0.10839469685E+03 -0.46984113601E+02  0.14412371093E+03  0.75489945828E+02 0.  0.
          5    1    5    5  501    0  0.56084294094E+02 -0.17285431465E+02 -0.23500326693E+02  0.63392346065E+02  0.47000000000E+01 0. -1.
        -11    1    6    6    0    0 -0.22931712021E+02  0.23281947890E+01 -0.27316523324E+02  0.35741801209E+02  0.00000000000E+00 0.  1.
         12    1    6    6    0    0 -0.10474797753E+02  0.10606650207E+03 -0.19667590277E+02  0.10838190972E+03  0.00000000000E+00 0. -1.
         -5    1    3    3    0  503 -0.51452122615E+02  0.14482625793E+02  0.15149286542E+02  0.55755342831E+02  0.47000000000E+01 0.  1.
         13    1    4    4    0    0 -0.20892423043E+02 -0.65883479318E+02 -0.36624613782E+02  0.78220767846E+02  0.00000000000E+00 0. -1.
        -14    1    4    4    0    0  0.49666761338E+02 -0.39708411864E+02 -0.58363602091E+01  0.63856152836E+02  0.00000000000E+00 0.  1.
</event>
<event>
12    1  0.8451514E-002  0.1975206E+03  0.7818608E-02  0.1152497E+00
         21   -1    0    0  501  502  0.00000000000E+00  0.00000000000E+00  0.10515734564E+04  0.10515734564E+04  0.00000000000E+00 0.  1.
         21   -1    0    0  502  503 -0.00000000000E+00 -0.00000000000E+00 -0.57190963605E+02  0.57190963605E+02  0.00000000000E+00 0. -1.
         -6    2    1    2    0  503  0.89771901478E+02 -0.67964715979E+01  0.16162348753E+03  0.25290114159E+03  0.17242867910E+03 0.  0.
        -24    2    3    3    0    0  0.56847080748E+02  0.38491518938E+02  0.16644334225E+03  0.19650639976E+03  0.78728592937E+02 0.  0.
          6    2    1    2  501    0 -0.89771901478E+02  0.67964715979E+01  0.83275900526E+03  0.85586327841E+03  0.17581013672E+03 0.  0.
         24    2    5    5    0    0  0.19427455306E+02  0.26022481634E+01  0.25992614188E+03  0.27268091379E+03  0.80056753625E+02 0.  0.
          5    1    5    5  501    0 -0.10919935678E+03  0.41942234345E+01  0.57283286338E+03  0.58318236462E+03  0.47000000000E+01 0. -1.
        -13    1    6    6    0    0 -0.22751585280E+02 -0.23586555118E+02  0.10241721954E+03  0.10753253960E+03  0.00000000000E+00 0.  1.
         14    1    6    6    0    0  0.42179040586E+02  0.26188803281E+02  0.15750892234E+03  0.16514837419E+03  0.00000000000E+00 0. -1.
         -5    1    3    3    0  503  0.32924820730E+02 -0.45287990536E+02 -0.48198547197E+01  0.56394741833E+02  0.47000000000E+01 0.  1.
         13    1    4    4    0    0  0.11169868772E+02 -0.15720425829E+02  0.46104919217E+01  0.19828121252E+02  0.00000000000E+00 0. -1.
        -14    1    4    4    0    0  0.45677211975E+02  0.54211944767E+02  0.16183285033E+03  0.17667827851E+03  0.00000000000E+00 0.  1.
</event>
<event>
12    1  0.8451514E-002  0.2745457E+03  0.7818608E-02  0.1098741E+00
         21   -1    0    0  503  502  0.00000000000E+00  0.00000000000E+00  0.56818758168E+03  0.56818758168E+03  0.00000000000E+00 0.  1.
         21   -1    0    0  501  503 -0.00000000000E+00 -0.00000000000E+00 -0.16461582323E+03  0.16461582323E+03  0.00000000000E+00 0. -1.
          6    2    1    2  501    0 -0.20300981377E+03 -0.66785215335E+02  0.39968567804E+02  0.27719106027E+03  0.17194228104E+03 0.  0.
         24    2    3    3    0    0 -0.44715563999E+02 -0.62207782901E+02  0.44322377630E+02  0.11870109826E+03  0.79096065975E+02 0.  0.
         -6    2    1    2    0  502  0.20300981377E+03  0.66785215335E+02  0.36360319064E+03  0.45561234464E+03  0.17234291071E+03 0.  0.
        -24    2    5    5    0    0  0.15374681389E+03  0.10637443894E+03  0.22224283168E+03  0.30069626779E+03  0.77927948680E+02 0.  0.
          5    1    3    3  501    0 -0.15829424977E+03 -0.45774324347E+01 -0.43538098267E+01  0.15848996201E+03  0.47000000000E+01 0. -1.
        -11    1    4    4    0    0 -0.10300517382E+02 -0.32421794816E+02 -0.20332934246E+02  0.39632078579E+02  0.00000000000E+00 0.  1.
         12    1    4    4    0    0 -0.34415046617E+02 -0.29785988085E+02  0.64655311877E+02  0.79069019684E+02  0.00000000000E+00 0. -1.
         -5    1    5    5    0  502  0.49262999880E+02 -0.39589223609E+02  0.14136035896E+03  0.15491607685E+03  0.47000000000E+01 0.  1.
         13    1    6    6    0    0  0.54054761479E+02  0.24349891062E+00  0.39056350101E+02  0.66688642313E+02  0.00000000000E+00 0. -1.
        -14    1    6    6    0    0  0.99692052407E+02  0.10613094003E+03  0.18318648158E+03  0.23400762547E+03  0.00000000000E+00 0.  1.
</event>
<event>
12    1  0.8451514E-002  0.1866177E+03  0.7818608E-02  0.1163985E+00
         21   -1    0    0  503  502  0.00000000000E+00  0.00000000000E+00  0.10994460494E+03  0.10994460494E+03  0.00000000000E+00 0. -1.
         21   -1    0    0  501  503 -0.00000000000E+00 -0.00000000000E+00 -0.33467348241E+03  0.33467348241E+03  0.00000000000E+00 0.  1.
          6    2    1    2  501    0 -0.56307355779E+02  0.43607306584E+02 -0.18713228548E+03  0.26428141643E+03  0.17249365003E+03 0.  0.
         24    2    3    3    0    0 -0.56396603146E+02  0.92321497691E+02 -0.13416199072E+03  0.19216330146E+03  0.84990934173E+02 0.  0.
         -6    2    1    2    0  502  0.56307355779E+02 -0.43607306584E+02 -0.37596591988E+02  0.18033667092E+03  0.16135580451E+03 0.  0.
        -24    2    5    5    0    0  0.55112359434E+02  0.95073910142E+01 -0.67528248546E+02  0.11917628193E+03  0.80716535961E+02 0.  0.
          5    1    3    3  501    0  0.89247367449E-01 -0.48714191107E+02 -0.52970294756E+02  0.72118114970E+02  0.47000000000E+01 0. -1.
        -13    1    4    4    0    0 -0.39567655115E+02  0.55054260117E+02 -0.13521352795E+03  0.15125894694E+03  0.00000000000E+00 0.  1.
         14    1    4    4    0    0 -0.16828948031E+02  0.37267237575E+02  0.10515372287E+01  0.40904354522E+02  0.00000000000E+00 0. -1.
         -5    1    5    5    0  502  0.11949963444E+01 -0.53114697598E+02  0.29931656558E+02  0.61160388991E+02  0.47000000000E+01 0.  1.
         11    1    6    6    0    0  0.12713131329E+02  0.63162911893E+01  0.18437994737E+02  0.23269699020E+02  0.00000000000E+00 0. -1.
        -12    1    6    6    0    0  0.42399228105E+02  0.31910998250E+01 -0.85966243283E+02  0.95906582914E+02  0.00000000000E+00 0.  1.
</event>
<event>
12    1  0.8451514E-002  0.1769616E+03  0.7818608E-02  0.1170810E+00
         21   -1    0    0  501  502  0.00000000000E+00  0.00000000000E+00  0.28452801183E+03  0.28452801183E+03  0.00000000000E+00 0. -1.
         21   -1    0    0  502  503 -0.00000000000E+00 -0.00000000000E+00 -0.11834727629E+03  0.11834727629E+03  0.00000000000E+00 0. -1.
         -6    2    1    2    0  503  0.21716651227E+02 -0.38793261091E+02  0.29490642199E+02  0.17926940367E+03  0.17114698674E+03 0.  0.
        -24    2    3    3    0    0  0.29803078919E+02 -0.88009128527E+02  0.88883809562E+01  0.12510174645E+03  0.83292337177E+02 0.  0.
          6    2    1    2  501    0 -0.21716651227E+02  0.38793261091E+02  0.13669009334E+03  0.22360588444E+03  0.17128595942E+03 0.  0.
         24    2    5    5    0    0 -0.60770366583E+02 -0.83953359799E+01  0.37788454612E+02  0.10717744925E+03  0.79344307961E+02 0.  0.
          5    1    5    5  501    0  0.39053715357E+02  0.47188597071E+02  0.98901638733E+02  0.11642843519E+03  0.47000000000E+01 0. -1.
        -11    1    6    6    0    0  0.11062658876E+02 -0.23802435962E+02  0.49714300445E+01  0.26714293848E+02  0.00000000000E+00 0.  1.
         12    1    6    6    0    0 -0.71833025460E+02  0.15407099982E+02  0.32817024567E+02  0.80463155406E+02  0.00000000000E+00 0. -1.
         -5    1    3    3    0  503 -0.80864276926E+01  0.49215867436E+02  0.20602261243E+02  0.54167657219E+02  0.47000000000E+01 0.  1.
         11    1    4    4    0    0  0.30118689025E+02 -0.23285420440E+02  0.38305297916E+02  0.54005944878E+02  0.00000000000E+00 0. -1.
        -12    1    4    4    0    0 -0.31561010616E+00 -0.64723708087E+02 -0.29416916960E+02  0.71095801575E+02  0.00000000000E+00 0.  1.
</event>
<event>
12    1  0.8451514E-002  0.2472194E+03  0.7818608E-02  0.1115321E+00
         21   -1    0    0  501  502  0.00000000000E+00  0.00000000000E+00  0.48289892587E+02  0.48289892587E+02  0.00000000000E+00 0. -1.
         21   -1    0    0  502  503 -0.00000000000E+00 -0.00000000000E+00 -0.13190036380E+04  0.13190036380E+04  0.00000000000E+00 0.  1.
         -6    2    1    2    0  503 -0.13488705369E+03 -0.11493451542E+03 -0.78071782269E+03  0.81846437339E+03  0.17017388681E+03 0.  0.
        -24    2    3    3    0    0 -0.67882693586E+02 -0.47985990835E+02 -0.63052640504E+03  0.64083768296E+03  0.78731652110E+02 0.  0.
          6    2    1    2  501    0  0.13488705369E+03  0.11493451542E+03 -0.48999592268E+03  0.54882915715E+03  0.17237453239E+03 0.  0.
         24    2    5    5    0    0  0.50747391274E+01  0.55125015390E+01 -0.13896505608E+03  0.15886868039E+03  0.76627867960E+02 0.  0.
          5    1    5    5  501    0  0.12981231456E+03  0.10942201388E+03 -0.35103086660E+03  0.38996047676E+03  0.47000000000E+01 0. -1.
        -13    1    6    6    0    0 -0.27023362620E+02  0.98373156796E+01 -0.11509838116E+03  0.11863672388E+03  0.00000000000E+00 0.  1.
         14    1    6    6    0    0  0.32098101747E+02 -0.43248141406E+01 -0.23866674917E+02  0.40231956512E+02  0.00000000000E+00 0. -1.
         -5    1    3    3    0  503 -0.67004360103E+02 -0.66948524581E+02 -0.15019141765E+03  0.17762669043E+03  0.47000000000E+01 0.  1.
         13    1    4    4    0    0 -0.16319134780E+02 -0.47603105642E+02 -0.45838545078E+03  0.46113944888E+03  0.00000000000E+00 0. -1.
        -14    1    4    4    0    0 -0.51563558806E+02 -0.38288519242E+00 -0.17214095426E+03  0.17969823408E+03  0.00000000000E+00 0.  1.
</event>
<event>
12    1  0.8451514E-002  0.1938307E+03  0.7818608E-02  0.1155797E+00
         21   -1    0    0  501  502  0.00000000000E+00  0.00000000000E+00  0.15166151821E+03  0.15166151821E+03  0.00000000000E+00 0. -1.
         21   -1    0    0  502  503 -0.00000000000E+00 -0.00000000000E+00 -0.41382071754E+03  0.41382071754E+03  0.00000000000E+00 0.  1.
         -6    2    1    2    0  503  0.37158563784E+02  0.74588422633E+02 -0.31182129185E+03  0.36539056895E+03  0.17127042411E+03 0.  0.
        -24    2    3    3    0    0  0.42822147432E+02  0.96944266268E+02 -0.31484554042E+03  0.34166092497E+03  0.79828229682E+02 0.  0.
          6    2    1    2  501    0 -0.37158563784E+02 -0.74588422633E+02  0.49662092522E+02  0.20009166679E+03  0.17500331435E+03 0.  0.
         24    2    5    5    0    0 -0.64485387650E+02  0.67108522373E+01  0.50968705553E+02  0.11418401501E+03  0.78973283963E+02 0.  0.
          5    1    5    5  501    0  0.27326823866E+02 -0.81299274870E+02 -0.13066130313E+01  0.85907651782E+02  0.47000000000E+01 0. -1.
        -13    1    6    6    0    0  0.13863657981E+02  0.69787697978E+01 -0.66937366473E+01  0.16902968698E+02  0.00000000000E+00 0.  1.
         14    1    6    6    0    0 -0.78349045631E+02 -0.26791756045E+00  0.57662442201E+02  0.97281046312E+02  0.00000000000E+00 0. -1.
         -5    1    3    3    0  503 -0.56635836482E+01 -0.22355843635E+02  0.30242485662E+01  0.23729643987E+02  0.47000000000E+01 0.  1.
         11    1    4    4    0    0  0.48257734932E+02  0.16395456376E+02 -0.14259601343E+03  0.15143065415E+03  0.00000000000E+00 0. -1.
        -12    1    4    4    0    0 -0.54355875004E+01  0.80548809892E+02 -0.17224952699E+03  0.19023027082E+03  0.00000000000E+00 0.  1.
</event>
<event>
12    1  0.8451514E-002  0.1769356E+03  0.7818608E-02  0.1171089E+00
         21   -1    0    0  501  502  0.00000000000E+00  0.00000000000E+00  0.40508393278E+03  0.40508393278E+03  0.00000000000E+00 0.  1.
         21   -1    0    0  502  503 -0.00000000000E+00 -0.00000000000E+00 -0.16763197625E+03  0.16763197625E+03  0.00000000000E+00 0. -1.
         -6    2    1    2    0  503  0.16189706514E+01  0.39240280231E+02 -0.92266037481E+02  0.19852324230E+03  0.17133603067E+03 0.  0.
        -24    2    3    3    0    0  0.14496828083E+02 -0.28662890036E+02 -0.33490653099E+01  0.85806794151E+02  0.79497612507E+02 0.  0.
          6    2    1    2  501    0 -0.16189706514E+01 -0.39240280231E+02  0.32971799401E+03  0.37419266672E+03  0.17252181195E+03 0.  0.
         24    2    5    5    0    0  0.45036729476E+02  0.29728122346E+02  0.17723085410E+03  0.20038871756E+03  0.76372732170E+02 0.  0.
          5    1    5    5  501    0 -0.46655700127E+02 -0.68968402577E+02  0.15248713991E+03  0.17380394917E+03  0.47000000000E+01 0. -1.
        -13    1    6    6    0    0  0.57795905629E+02  0.18741125861E+01  0.14406722466E+03  0.15523931276E+03  0.00000000000E+00 0.  1.
         14    1    6    6    0    0 -0.12759176153E+02  0.27854009760E+02  0.33163629444E+02  0.45149404799E+02  0.00000000000E+00 0. -1.
         -5    1    3    3    0  503 -0.12877857431E+02  0.67903170267E+02 -0.88916972172E+02  0.11271644815E+03  0.47000000000E+01 0.  1.
         13    1    4    4    0    0 -0.48568836980E+01 -0.32632377017E+02 -0.35251827897E+02  0.48282012376E+02  0.00000000000E+00 0. -1.
        -14    1    4    4    0    0  0.19353711781E+02  0.39694869812E+01  0.31902762587E+02  0.37524781775E+02  0.00000000000E+00 0.  1.
</event>
<event>
12    1  0.8451514E-002  0.2005684E+03  0.7818608E-02  0.1150034E+00
         21   -1    0    0  503  502  0.00000000000E+00  0.00000000000E+00  0.19249471892E+03  0.19249471892E+03  0.00000000000E+00 0. -1.
         21   -1    0    0  501  503 -0.00000000000E+00 -0.00000000000E+00 -0.83146636820E+03  0.83146636820E+03  0.00000000000E+00 0.  1.
          6    2    1    2  501    0  0.69812316752E+02 -0.75365319128E+02 -0.76454002146E+03  0.79041072844E+03  0.17226138372E+03 0.  0.
         24    2    3    3    0    0  0.10332382569E+03 -0.45861798449E+02 -0.40477270319E+03  0.42785301957E+03  0.80238068255E+02 0.  0.
         -6    2    1    2    0  502 -0.69812316752E+02  0.75365319128E+02  0.12556837217E+03  0.23355035868E+03  0.16800197336E+03 0.  0.
        -24    2    5    5    0    0 -0.36217848763E+02 -0.46522154957E+01  0.11674655202E+03  0.14619299701E+03  0.80057849635E+02 0.  0.
          5    1    3    3  501    0 -0.33511508937E+02 -0.29503520678E+02 -0.35976731827E+03  0.36255770887E+03  0.47000000000E+01 0. -1.
        -13    1    4    4    0    0  0.15879075511E+02 -0.24381471393E+02 -0.22414351694E+03  0.22602415219E+03  0.00000000000E+00 0.  1.
         14    1    4    4    0    0  0.87444750177E+02 -0.21480327056E+02 -0.18062918625E+03  0.20182886738E+03  0.00000000000E+00 0. -1.
         -5    1    5    5    0  502 -0.33594467989E+02  0.80017534624E+02  0.88218201476E+01  0.87357361667E+02  0.47000000000E+01 0.  1.
         13    1    6    6    0    0 -0.33180447789E+02  0.34362966527E+02  0.52609231012E+02  0.71059740865E+02  0.00000000000E+00 0. -1.
        -14    1    6    6    0    0 -0.30374009734E+01 -0.39015182023E+02  0.64137321013E+02  0.75133256149E+02  0.00000000000E+00 0.  1.
</event>
<event>
12    1  0.8451514E-002  0.2479331E+03  0.7818608E-02  0.1114957E+00
         21   -1    0    0  503  502  0.00000000000E+00  0.00000000000E+00  0.56027260509E+02  0.56027260509E+02  0.00000000000E+00 0. -1.
         21   -1    0    0  501  503 -0.00000000000E+00 -0.00000000000E+00 -0.11332406025E+04  0.11332406025E+04  0.00000000000E+00 0.  1.
          6    2    1    2  501    0 -0.41692601756E+02 -0.17153324120E+03 -0.41734110097E+03  0.48435496464E+03  0.17106785593E+03 0.  0.
         24    2    3    3    0    0 -0.45558869474E+02 -0.41951949008E+02 -0.26865835742E+03  0.28703566112E+03  0.79853497901E+02 0.  0.
         -6    2    1    2    0  502  0.41692601756E+02  0.17153324120E+03 -0.65987224105E+03  0.70491289841E+03  0.17409449718E+03 0.  0.
        -24    2    5    5    0    0  0.36796904122E+02  0.19972802148E+03 -0.55687127949E+03  0.59790728373E+03  0.78372209970E+02 0.  0.
          5    1    3    3  501    0  0.38662677182E+01 -0.12958129219E+03 -0.14868274355E+03  0.19731930352E+03  0.47000000000E+01 0. -1.
        -11    1    4    4    0    0  0.18283314354E+02 -0.11182994791E+02 -0.12526247935E+03  0.12708275921E+03  0.00000000000E+00 0.  1.
         12    1    4    4    0    0 -0.63842183828E+02 -0.30768954217E+02 -0.14339587807E+03  0.15995290190E+03  0.00000000000E+00 0. -1.
         -5    1    5    5    0  502  0.48956976341E+01 -0.28194780275E+02 -0.10300096156E+03  0.10700561468E+03  0.47000000000E+01 0.  1.
         11    1    6    6    0    0 -0.12627837625E+02  0.22955593115E+01 -0.20119700631E+02  0.23864916282E+02  0.00000000000E+00 0. -1.
        -12    1    6    6    0    0  0.49424741747E+02  0.19743246217E+03 -0.53675157886E+03  0.57404236745E+03  0.00000000000E+00 0.  1.
</event>
<event>
12    1  0.8451514E-002  0.1824518E+03  0.7818608E-02  0.1165662E+00
         21   -1    0    0  503  502  0.00000000000E+00  0.00000000000E+00  0.26127512630E+03  0.26127512630E+03  0.00000000000E+00 0.  1.
         21   -1    0    0  501  503 -0.00000000000E+00 -0.00000000000E+00 -0.12846765418E+03  0.12846765418E+03  0.00000000000E+00 0.  1.
          6    2    1    2  501    0  0.59612445115E+02 -0.38843112591E+01  0.88816784889E+02  0.20292140242E+03  0.17239472960E+03 0.  0.
         24    2    3    3    0    0 -0.23771395081E+02  0.85366873682E+01  0.44114718226E+01  0.83533409359E+02  0.79501038611E+02 0.  0.
         -6    2    1    2    0  502 -0.59612445115E+02  0.38843112591E+01  0.43990687230E+02  0.18682137805E+03  0.17145936909E+03 0.  0.
        -24    2    5    5    0    0  0.24960229154E+02 -0.31805324967E+02  0.18747936883E+02  0.91503101674E+02  0.79917086678E+02 0.  0.
          5    1    3    3  501    0  0.83383840196E+02 -0.12420998627E+02  0.84405313066E+02  0.11938799306E+03  0.47000000000E+01 0. -1.
        -13    1    4    4    0    0  0.29164397302E+02  0.75574356947E+01 -0.20414860492E+01  0.30196764224E+02  0.00000000000E+00 0.  1.
         14    1    4    4    0    0 -0.52935792383E+02  0.97925167346E+00  0.64529578717E+01  0.53336645136E+02  0.00000000000E+00 0. -1.
         -5    1    5    5    0  502 -0.84572674269E+02  0.35689636226E+02  0.25242750348E+02  0.95318276380E+02  0.47000000000E+01 0.  1.
         11    1    6    6    0    0  0.15309440623E+02 -0.20583789365E+02 -0.30630776968E+02  0.39953921641E+02  0.00000000000E+00 0. -1.
        -12    1    6    6    0    0  0.96507885308E+01 -0.11221535601E+02  0.49378713851E+02  0.51549180033E+02  0.00000000000E+00 0.  1.
</event>
<event>
12    1  0.8451514E-002  0.2139278E+03  0.7818608E-02  0.1138816E+00
         21   -1    0    0  503  502  0.00000000000E+00  0.00000000000E+00  0.25499887968E+03  0.25499887968E+03  0.00000000000E+00 0. -1.
         21   -1    0    0  501  503 -0.00000000000E+00 -0.00000000000E+00 -0.17999029510E+03  0.17999029510E+03  0.00000000000E+00 0. -1.
          6    2    1    2  501    0  0.30606411860E+02  0.12377846960E+03  0.15225052030E+02  0.21446890362E+03  0.17177673424E+03 0.  0.
         24    2    3    3    0    0 -0.28813214565E+01  0.98000310338E+02  0.70371980468E+02  0.14483259489E+03  0.80074353369E+02 0.  0.
         -6    2    1    2    0  502 -0.30606411860E+02 -0.12377846960E+03  0.59783532551E+02  0.22052027115E+03  0.16969754637E+03 0.  0.
        -24    2    5    5    0    0 -0.10007943330E+02 -0.36491828883E+02  0.90253918543E+02  0.12568468197E+03  0.78860997743E+02 0.  0.
          5    1    3    3  501    0  0.33487733317E+02  0.25778159261E+02 -0.55146928439E+02  0.69636308732E+02  0.47000000000E+01 0. -1.
        -13    1    4    4    0    0  0.16601870956E+02 -0.77878146121E+01  0.15842147336E+02  0.24233155137E+02  0.00000000000E+00 0.  1.
         14    1    4    4    0    0 -0.19483192412E+02  0.10578812495E+03  0.54529833133E+02  0.12059943975E+03  0.00000000000E+00 0. -1.
         -5    1    5    5    0  502 -0.20598468530E+02 -0.87286640716E+02 -0.30470385992E+02  0.94835589183E+02  0.47000000000E+01 0.  1.
         13    1    6    6    0    0  0.92034200854E+01 -0.46132783672E+02  0.18111158271E+02  0.50407843879E+02  0.00000000000E+00 0. -1.
        -14    1    6    6    0    0 -0.19211363415E+02  0.96409547894E+01  0.72142760272E+02  0.75276838092E+02  0.00000000000E+00 0.  1.
</event>
<event>
12    1  0.8451514E-002  0.1845812E+03  0.7818608E-02  0.1163503E+00
         21   -1    0    0  501  502  0.00000000000E+00  0.00000000000E+00  0.72710178841E+02  0.72710178841E+02  0.00000000000E+00 0. -1.
         21   -1    0    0  502  503 -0.00000000000E+00 -0.00000000000E+00 -0.55622277737E+03  0.55622277737E+03  0.00000000000E+00 0. -1.
         -6    2    1    2    0  503  0.58055593615E+02 -0.30184676447E+02 -0.36691424130E+03  0.41060893463E+03  0.17231387085E+03 0.  0.
        -24    2    3    3    0    0  0.55014808280E+02 -0.20768810619E+02 -0.38030642159E+03  0.39330733362E+03  0.81238609959E+02 0.  0.
          6    2    1    2  501    0 -0.58055593615E+02  0.30184676447E+02 -0.11659835723E+03  0.21832402158E+03  0.17259384360E+03 0.  0.
         24    2    5    5    0    0 -0.67054303780E+01 -0.47564630644E+02 -0.12970209586E+02  0.78887021462E+02  0.61217472453E+02 0.  0.
          5    1    5    5  501    0 -0.51350163237E+02  0.77749307091E+02 -0.10362814764E+03  0.13943700012E+03  0.47000000000E+01 0. -1.
        -13    1    6    6    0    0 -0.18879071806E+02 -0.55894726593E+02 -0.20330685710E+02  0.62401735510E+02  0.00000000000E+00 0.  1.
         14    1    6    6    0    0  0.12173641428E+02  0.83300959491E+01  0.73604761241E+01  0.16485285952E+02  0.00000000000E+00 0. -1.
         -5    1    3    3    0  503  0.30407853346E+01 -0.94158658282E+01  0.13392180291E+02  0.17301601016E+02  0.47000000000E+01 0.  1.
         13    1    4    4    0    0  0.32120692656E+02 -0.46648640895E+02 -0.30806080107E+03  0.31322402805E+03  0.00000000000E+00 0. -1.
        -14    1    4    4    0    0  0.22894115624E+02  0.25879830277E+02 -0.72245620522E+02  0.80083305563E+02  0.00000000000E+00 0.  1.
</event>
<event>
12    1  0.8451514E-002  0.1970741E+03  0.7818608E-02  0.1152692E+00
         21   -1    0    0  501  502  0.00000000000E+00  0.00000000000E+00  0.75669432257E+02  0.75669432257E+02  0.00000000000E+00 0.  1.
         21   -1    0    0  502  503 -0.00000000000E+00 -0.00000000000E+00 -0.52844523284E+03  0.52844523284E+03  0.00000000000E+00 0.  1.
         -6    2    1    2    0  503 -0.32751359592E+02 -0.90156598918E+02 -0.28501119178E+03  0.34530362017E+03  0.16971254159E+03 0.  0.
        -24    2    3    3    0    0  0.39543495711E+02 -0.83556501257E+02 -0.17301070822E+03  0.21175098743E+03  0.79752106950E+02 0.  0.
          6    2    1    2  501    0  0.32751359592E+02  0.90156598918E+02 -0.16776460880E+03  0.25881104493E+03  0.17215495673E+03 0.  0.
         24    2    5    5    0    0 -0.54167287544E+01  0.12303049232E+03 -0.10767379407E+03  0.18025856661E+03  0.75720947665E+02 0.  0.
          5    1    5    5  501    0  0.38168088346E+02 -0.32873893403E+02 -0.60090814727E+02  0.78552478319E+02  0.47000000000E+01 0. -1.
        -11    1    6    6    0    0 -0.40600444777E+02  0.64116376255E+02 -0.54036393316E+02  0.93162426024E+02  0.00000000000E+00 0.  1.
         12    1    6    6    0    0  0.35183716023E+02  0.58914116066E+02 -0.53637400752E+02  0.87096140583E+02  0.00000000000E+00 0. -1.
         -5    1    3    3    0  503 -0.72294855303E+02 -0.66000976605E+01 -0.11200048357E+03  0.13355263274E+03  0.47000000000E+01 0.  1.
         11    1    4    4    0    0  0.15082410977E+00 -0.22316012501E+02  0.17921048554E+01  0.22388363086E+02  0.00000000000E+00 0. -1.
        -12    1    4    4    0    0  0.39392671601E+02 -0.61240488756E+02 -0.17480281307E+03  0.18936262434E+03  0.00000000000E+00 0.  1.
</event>
<event>
12    1  0.8451514E-002  0.2476108E+03  0.7818608E-02  0.1115642E+00
         21   -1    0    0  501  502  0.00000000000E+00  0.00000000000E+00  0.48431152640E+03  0.48431152640E+03  0.00000000000E+00 0. -1.
         21   -1    0    0  502  503 -0.00000000000E+00 -0.00000000000E+00 -0.13270450364E+03  0.13270450364E+03  0.00000000000E+00 0. -1.
         -6    2    1    2    0  503  0.14763365459E+03 -0.90107584281E+02  0.25301177027E+03  0.35049752409E+03  0.17005436126E+03 0.  0.
        -24    2    3    3    0    0  0.11835075305E+03  0.55024772091E+01  0.14826444227E+03  0.20560837714E+03  0.79090340138E+02 0.  0.
          6    2    1    2  501    0 -0.14763365459E+03  0.90107584281E+02  0.98595252490E+02  0.26651850595E+03  0.17718921380E+03 0.  0.
         24    2    5    5    0    0 -0.16436471861E+02  0.41702358644E+02 -0.55785367046E+01  0.92076438259E+02  0.80235316956E+02 0.  0.
          5    1    5    5  501    0 -0.13119718273E+03  0.48405225638E+02  0.10417378919E+03  0.17444206769E+03  0.47000000000E+01 0. -1.
        -11    1    6    6    0    0 -0.40942455450E+02  0.38881253741E+02 -0.23936754563E+02  0.61327031314E+02  0.00000000000E+00 0.  1.
         12    1    6    6    0    0  0.24505983589E+02  0.28211049029E+01  0.18358217859E+02  0.30749406945E+02  0.00000000000E+00 0. -1.
         -5    1    3    3    0  503  0.29282901535E+02 -0.95610061490E+02  0.10474732800E+03  0.14488914695E+03  0.47000000000E+01 0.  1.
         13    1    4    4    0    0  0.31222529841E+02 -0.34263224975E+02  0.41989500587E+02  0.62545448394E+02  0.00000000000E+00 0. -1.
        -14    1    4    4    0    0  0.87128223214E+02  0.39765702184E+02  0.10627494168E+03  0.14306292874E+03  0.00000000000E+00 0.  1.
</event>
<event>
12    1  0.8451514E-002  0.2557405E+03  0.7818608E-02  0.1109858E+00
         21   -1    0    0  503  502  0.00000000000E+00  0.00000000000E+00  0.51564964727E+02  0.51564964727E+02  0.00000000000E+00 0. -1.
         21   -1    0    0  501  503 -0.00000000000E+00 -0.00000000000E+00 -0.12905281191E+04  0.12905281191E+04  0.00000000000E+00 0. -1.
          6    2    1    2  501    0  0.64754742372E+02  0.17843226490E+03 -0.52269039938E+03  0.58153416035E+03  0.17013370105E+03 0.  0.
         24    2    3    3    0    0  0.18986517785E+00  0.12518813345E+03 -0.43769658377E+03  0.46216247362E+03  0.79647647628E+02 0.  0.
         -6    2    1    2    0  502 -0.64754742372E+02 -0.17843226490E+03 -0.71627275494E+03  0.76055892343E+03  0.17138251577E+03 0.  0.
        -24    2    5    5    0    0  0.30128726242E+02 -0.10111706864E+03 -0.36892925814E+03  0.39225184101E+03  0.81365272360E+02 0.  0.
          5    1    3    3  501    0  0.64564877195E+02  0.53244131452E+02 -0.84993815607E+02  0.11937168673E+03  0.47000000000E+01 0. -1.
        -11    1    4    4    0    0  0.30963974408E+02  0.71464428371E+02 -0.31803172251E+03  0.32742954778E+03  0.00000000000E+00 0.  1.
         12    1    4    4    0    0 -0.30774109231E+02  0.53723705075E+02 -0.11966486126E+03  0.13473292584E+03  0.00000000000E+00 0. -1.
         -5    1    5    5    0  502 -0.94883468614E+02 -0.77315196261E+02 -0.34734349680E+03  0.36830708242E+03  0.47000000000E+01 0.  1.
         11    1    6    6    0    0 -0.24068258684E+01  0.42543079203E+00 -0.13660772720E+03  0.13662959026E+03  0.00000000000E+00 0. -1.
        -12    1    6    6    0    0  0.32535552110E+02 -0.10154249943E+03 -0.23232153094E+03  0.25562225075E+03  0.00000000000E+00 0.  1.
</event>
<event>
12    1  0.8451514E-002  0.2298036E+03  0.7818608E-02  0.1127078E+00
         21   -1    0    0  501  502  0.00000000000E+00  0.00000000000E+00  0.21181124776E+03  0.21181124776E+03  0.00000000000E+00 0.  1.
         21   -1    0    0  502  503 -0.00000000000E+00 -0.00000000000E+00 -0.31607251263E+03  0.31607251263E+03  0.00000000000E+00 0. -1.
         -6    2    1    2    0  503 -0.67878176642E+02 -0.13530370520E+03  0.70666538763E+02  0.24042352690E+03  0.17290220670E+03 0.  0.
        -24    2    3    3    0    0  0.48584070948E+00 -0.36793525257E-01  0.38857170849E+02  0.85489017672E+02  0.76146273850E+02 0.  0.
          6    2    1    2  501    0  0.67878176642E+02  0.13530370520E+03 -0.17492780363E+03  0.28746023349E+03  0.17064322387E+03 0.  0.
         24    2    5    5    0    0  0.10411631823E+03  0.94112605734E+02 -0.84511103922E+02  0.18159626811E+03  0.78343395542E+02 0.  0.
          5    1    5    5  501    0 -0.36238141592E+02  0.41191099461E+02 -0.90416699704E+02  0.10586396538E+03  0.47000000000E+01 0. -1.
        -13    1    6    6    0    0  0.11333995656E+02  0.21493833392E+02  0.13976969775E+02  0.28032124706E+02  0.00000000000E+00 0.  1.
         14    1    6    6    0    0  0.92782322578E+02  0.72618772342E+02 -0.98488073697E+02  0.15356414341E+03  0.00000000000E+00 0. -1.
         -5    1    3    3    0  503 -0.68364017352E+02 -0.13526691167E+03  0.31809367914E+02  0.15493450922E+03  0.47000000000E+01 0.  1.
         11    1    4    4    0    0  0.17583943944E+02 -0.13378183023E+02  0.54460642013E+02  0.58771867369E+02  0.00000000000E+00 0. -1.
        -12    1    4    4    0    0 -0.17098103235E+02  0.13341389498E+02 -0.15603471164E+02  0.26717150303E+02  0.00000000000E+00 0.  1.
</event>
<event>
12    1  0.8451514E-002  0.1913914E+03  0.7818608E-02  0.1157393E+00
         21   -1    0    0  501  502  0.00000000000E+00  0.00000000000E+00  0.14977687619E+03  0.14977687619E+03  0.00000000000E+00 0.  1.
         21   -1    0    0  502  503 -0.00000000000E+00 -0.00000000000E+00 -0.24485005416E+03  0.24485005416E+03  0.00000000000E+00 0.  1.
         -6    2    1    2    0  503  0.70133186090E+02 -0.44035844816E+02 -0.33006551914E+02  0.19342320586E+03  0.17165455041E+03 0.  0.
        -24    2    3    3    0    0  0.27624843734E+02  0.40087668568E+02  0.38837059617E+01  0.92098451730E+02  0.78082574731E+02 0.  0.
          6    2    1    2  501    0 -0.70133186090E+02  0.44035844816E+02 -0.62066626054E+02  0.20120372449E+03  0.17254811868E+03 0.  0.
         24    2    5    5    0    0 -0.82141903281E+02  0.61895871294E+02  0.61989777147E+01  0.12947177560E+03  0.78397207821E+02 0.  0.
          5    1    5    5  501    0  0.12008717191E+02 -0.17860026478E+02 -0.68265603769E+02  0.71731948895E+02  0.47000000000E+01 0. -1.
        -11    1    6    6    0    0 -0.16029209983E+02  0.57536902166E+02 -0.11649799743E+02  0.60853500455E+02  0.00000000000E+00 0.  1.
         12    1    6    6    0    0 -0.66112693298E+02  0.43589691278E+01  0.17848777458E+02  0.68618275144E+02  0.00000000000E+00 0. -1.
         -5    1    3    3    0  503  0.42508342356E+02 -0.84123513384E+02 -0.36890257876E+02  0.10132475413E+03  0.47000000000E+01 0.  1.
         13    1    4    4    0    0  0.34506090956E+01  0.56279950475E+02 -0.13800261240E+02  0.58049864245E+02  0.00000000000E+00 0. -1.
        -14    1    4    4    0    0  0.24174234638E+02 -0.16192281907E+02  0.17683967202E+02  0.34048587485E+02  0.00000000000E+00 0.  1.
</event>
<event>
12    1  0.8451514E-002  0.1761740E+03  0.7818608E-02  0.1171727E+00
         21   -1    0    0  501  502  0.00000000000E+00  0.00000000000E+00  0.40287159073E+03  0.40287159073E+03  0.00000000000E+00 0.  1.
         21   -1    0    0  502  503 -0.00000000000E+00 -0.00000000000E+00 -0.97474642488E+02  0.97474642488E+02  0.00000000000E+00 0.  1.
         -6    2    1    2    0  503  0.27494399917E+02  0.19456133132E+02  0.37560053371E+02  0.18013338031E+03  0.17292424339E+03 0.  0.
        -24    2    3    3    0    0  0.32923264474E+02 -0.43276120631E+02  0.59149226169E+02  0.11340264815E+03  0.80029780029E+02 0.  0.
          6    2    1    2  501    0 -0.27494399917E+02 -0.19456133132E+02  0.26783689487E+03  0.32021285291E+03  0.17223584345E+03 0.  0.
         24    2    5    5    0    0  0.61298388885E+01 -0.73791389901E+02  0.15823951843E+03  0.19326174229E+03  0.82629363377E+02 0.  0.
          5    1    5    5  501    0 -0.33624238806E+02  0.54335256769E+02  0.10959737644E+03  0.12695111061E+03  0.47000000000E+01 0. -1.
        -11    1    6    6    0    0 -0.24272076301E+02 -0.56996919001E+02  0.50074023290E+02  0.79656702618E+02  0.00000000000E+00 0.  1.
         12    1    6    6    0    0  0.30401915189E+02 -0.16794470899E+02  0.10816549514E+03  0.11360503968E+03  0.00000000000E+00 0. -1.
         -5    1    3    3    0  503 -0.54288645569E+01  0.62732253763E+02 -0.21589172798E+02  0.66730732160E+02  0.47000000000E+01 0.  1.
         11    1    4    4    0    0  0.21543131327E+02 -0.56282170255E+02  0.97248352838E+01  0.61043931863E+02  0.00000000000E+00 0. -1.
        -12    1    4    4    0    0  0.11380133147E+02  0.13006049624E+02  0.49424390885E+02  0.52358716291E+02  0.00000000000E+00 0.  1.
</event>
<event>
12    1  0.8451514E-002  0.2255107E+03  0.7818608E-02  0.1129901E+00
         21   -1    0    0  503  502  0.00000000000E+00  0.00000000000E+00  0.11627306259E+03  0.11627306259E+03  0.00000000000E+00 0. -1.
         21   -1    0    0  501  503 -0.00000000000E+00 -0.00000000000E+00 -0.56948869759E+03  0.56948869759E+03  0.00000000000E+00 0. -1.
          6    2    1    2  501    0 -0.14380035798E+03  0.15193180072E+02 -0.60918291336E+02  0.23326616356E+03  0.17260558846E+03 0.  0.
         24    2    3    3    0    0 -0.64904044018E+02  0.72665490842E+02 -0.51087687467E+02  0.13504994477E+03  0.78330883322E+02 0.  0.
         -6    2    1    2    0  502  0.14380035798E+03 -0.15193180072E+02 -0.39229734367E+03  0.45249559662E+03  0.17304821131E+03 0.  0.
        -24    2    5    5    0    0  0.23319208796E+02  0.36399167076E+02 -0.11660999060E+03  0.14720379484E+03  0.78755205828E+02 0.  0.
          5    1    3    3  501    0 -0.78896313960E+02 -0.57472310770E+02 -0.98306038688E+01  0.98216218794E+02  0.47000000000E+01 0. -1.
        -13    1    4    4    0    0  0.68926516672E+01  0.13202466450E+02  0.14719192912E+02  0.20939637231E+02  0.00000000000E+00 0.  1.
         14    1    4    4    0    0 -0.71796695685E+02  0.59463024392E+02 -0.65806880379E+02  0.11411030754E+03  0.00000000000E+00 0. -1.
         -5    1    5    5    0  502  0.12048114918E+03 -0.51592347149E+02 -0.27568735307E+03  0.30529180178E+03  0.47000000000E+01 0.  1.
         13    1    6    6    0    0  0.31649437732E+02  0.83153740175E+01 -0.66286267784E+01  0.33388187234E+02  0.00000000000E+00 0. -1.
        -14    1    6    6    0    0 -0.83302289366E+01  0.28083793059E+02 -0.10998136382E+03  0.11381560761E+03  0.00000000000E+00 0.  1.
</event>
<event>
12    1  0.8451514E-002  0.2514929E+03  0.7818608E-02  0.1112455E+00
         21   -1    0    0  501  502  0.00000000000E+00  0.00000000000E+00  0.26414842520E+03  0.26414842520E+03  0.00000000000E+00 0.  1.
         21   -1    0    0  502  503 -0.00000000000E+00 -0.00000000000E+00 -0.24020097238E+03  0.24020097238E+03  0.00000000000E+00 0.  1.
         -6    2    1    2    0  503 -0.50888017228E+02  0.17525534592E+03 -0.65964609848E+01  0.25157937279E+03  0.17304519915E+03 0.  0.
        -24    2    3    3    0    0 -0.94584627654E+02  0.83651032490E+02  0.26511066841E+02  0.14471992118E+03  0.65553580339E+02 0.  0.
          6    2    1    2  501    0  0.50888017228E+02 -0.17525534592E+03  0.30543913809E+02  0.25277002479E+03  0.17220838595E+03 0.  0.
         24    2    5    5    0    0  0.83397865648E+02 -0.19035221273E+03  0.26832064675E+02  0.21642895359E+03  0.54151300724E+02 0.  0.
          5    1    5    5  501    0 -0.32509848420E+02  0.15096866816E+02  0.37118491336E+01  0.36341071200E+02  0.47000000000E+01 0. -1.
        -11    1    6    6    0    0  0.48956383459E+02 -0.50062178453E+02  0.35695380587E+01  0.70111987525E+02  0.00000000000E+00 0.  1.
         12    1    6    6    0    0  0.34441482190E+02 -0.14029003428E+03  0.23262526616E+02  0.14631696606E+03  0.00000000000E+00 0. -1.
         -5    1    3    3    0  503  0.43696610425E+02  0.91604313425E+02 -0.33107527826E+02  0.10685945162E+03  0.47000000000E+01 0.  1.
         11    1    4    4    0    0 -0.24198669210E+02  0.18477489944E+02  0.37345861471E+02  0.48184090685E+02  0.00000000000E+00 0. -1.
        -12    1    4    4    0    0 -0.70385958443E+02  0.65173542546E+02 -0.10834794630E+02  0.96535830491E+02  0.00000000000E+00 0.  1.
</event>
<event>
12    1  0.8451514E-002  0.1752942E+03  0.7818608E-02  0.1172694E+00
         21   -1    0    0  503  502  0.00000000000E+00  0.00000000000E+00  0.28989268047E+03  0.28989268047E+03  0.00000000000E+00 0. -1.
         21   -1    0    0  501  503 -0.00000000000E+00 -0.00000000000E+00 -0.17148125409E+03  0.17148125409E+03  0.00000000000E+00 0. -1.
          6    2    1    2  501    0 -0.22301569916E+02 -0.42154708620E+01 -0.84125803377E+02  0.19351316720E+03  0.17278618252E+03 0.  0.
         24    2    3    3    0    0 -0.61808008225E+02 -0.50065050972E+02 -0.13811605206E+02  0.10062011510E+03  0.60057538360E+02 0.  0.
         -6    2    1    2    0  502  0.22301569916E+02  0.42154708620E+01  0.20253722976E+03  0.26786076737E+03  0.17381867288E+03 0.  0.
        -24    2    5    5    0    0  0.74208545591E+01  0.31800640409E+01  0.22580708833E+03  0.23982357645E+03  0.80382366190E+02 0.  0.
          5    1    3    3  501    0  0.39506438308E+02  0.45849580110E+02 -0.70314198171E+02  0.92893052100E+02  0.47000000000E+01 0. -1.
        -11    1    4    4    0    0 -0.34312674132E+02 -0.16480815879E+02 -0.35543333838E+02  0.52079799140E+02  0.00000000000E+00 0.  1.
         12    1    4    4    0    0 -0.27495334092E+02 -0.33584235094E+02  0.21731728632E+02  0.48540315955E+02  0.00000000000E+00 0. -1.
         -5    1    5    5    0  502  0.14880715357E+02  0.10354068211E+01 -0.23269858568E+02  0.28037190918E+02  0.47000000000E+01 0.  1.
         13    1    6    6    0    0 -0.18940453607E+02 -0.31765449190E+02  0.10666648919E+03  0.11289607815E+03  0.00000000000E+00 0. -1.
        -14    1    6    6    0    0  0.26361308166E+02  0.34945513231E+02  0.11914059914E+03  0.12692749831E+03  0.00000000000E+00 0.  1.
</event>
<event>
12    1  0.8451514E-002  0.2209758E+03  0.7818608E-02  0.1134008E+00
         21   -1    0    0  501  502  0.00000000000E+00  0.00000000000E+00  0.27775909931E+03  0.27775909931E+03  0.00000000000E+00 0.  1.
         21   -1    0    0  502  503 -0.00000000000E+00 -0.00000000000E+00 -0.40306211275E+03  0.40306211275E+03  0.00000000000E+00 0. -1.
         -6    2    1    2    0  503  0.79657578181E+02 -0.10498722729E+03 -0.32054551666E+03  0.38933240534E+03  0.17737712914E+03 0.  0.
        -24    2    3    3    0    0 -0.15616469332E+02 -0.82194738173E+02 -0.12701144679E+03  0.17236658340E+03  0.81107844008E+02 0.  0.
          6    2    1    2  501    0 -0.79657578181E+02  0.10498722729E+03  0.19524250323E+03  0.29148880671E+03  0.17169287031E+03 0.  0.
         24    2    5    5    0    0 -0.14360027949E+02  0.26590834103E+02  0.16405727516E+03  0.18469754780E+03  0.79278696811E+02 0.  0.
          5    1    5    5  501    0 -0.65297550232E+02  0.78396393186E+02  0.31185228067E+02  0.10679125891E+03  0.47000000000E+01 0. -1.
        -11    1    6    6    0    0  0.26024256921E+02  0.81445437064E+01  0.19628228259E+02  0.33598554806E+02  0.00000000000E+00 0.  1.
         12    1    6    6    0    0 -0.40384284870E+02  0.18446290397E+02  0.14442904690E+03  0.15109899299E+03  0.00000000000E+00 0. -1.
         -5    1    3    3    0  503  0.95274047513E+02 -0.22792489116E+02 -0.19353406987E+03  0.21696582194E+03  0.47000000000E+01 0.  1.
         11    1    4    4    0    0  0.20414143541E+02 -0.76212972848E+02 -0.97400023643E+02  0.12534719420E+03  0.00000000000E+00 0. -1.
        -12    1    4    4    0    0 -0.36030612874E+02 -0.59817653244E+01 -0.29611423149E+02  0.47019389206E+02  0.00000000000E+00 0.  1.
</event>
<event>
12    1  0.8451514E-002  0.1801429E+03  0.7818608E-02  0.1168529E+00
         21   -1    0    0  503  502  0.00000000000E+00  0.00000000000E+00  0.51762957003E+02  0.51762957003E+02  0.00000000000E+00 0. -1.
         21   -1    0    0  501  503 -0.00000000000E+00 -0.00000000000E+00 -0.67340914735E+03  0.67340914735E+03  0.00000000000E+00 0. -1.
          6    2    1    2  501    0  0.50077027377E+02 -0.17489757234E+02 -0.42070813216E+03  0.45765358006E+03  0.17215651773E+03 0.  0.
         24    2    3    3    0    0  0.90577630774E+02 -0.13372882921E+02 -0.21455856964E+03  0.24747037508E+03  0.82601849504E+02 0.  0.
         -6    2    1    2    0  502 -0.50077027377E+02  0.17489757234E+02 -0.20093805818E+03  0.26751852429E+03  0.16845313096E+03 0.  0.
        -24    2    5    5    0    0 -0.72311135801E+02  0.48002689410E+02 -0.85765912024E+02  0.14622504607E+03  0.80577998743E+02 0.  0.
          5    1    3    3  501    0 -0.40500603397E+02 -0.41168743129E+01 -0.20614956252E+03  0.21018320498E+03  0.47000000000E+01 0. -1.
        -13    1    4    4    0    0 -0.14126623645E+02 -0.85980309138E+01 -0.47058482389E+02  0.49879739334E+02  0.00000000000E+00 0.  1.
         14    1    4    4    0    0  0.10470425442E+03 -0.47748520076E+01 -0.16750008725E+03  0.19759063575E+03  0.00000000000E+00 0. -1.
         -5    1    5    5    0  502  0.22234108424E+02 -0.30512932176E+02 -0.11517214616E+03  0.12129347822E+03  0.47000000000E+01 0.  1.
         11    1    6    6    0    0 -0.24034362308E+02 -0.15067400465E+02 -0.53381976608E+02  0.60450910290E+02  0.00000000000E+00 0. -1.
        -12    1    6    6    0    0 -0.48276773493E+02  0.63070089875E+02 -0.32383935416E+02  0.85774135780E+02  0.00000000000E+00 0.  1.
</event>
<event>
12    1  0.8451514E-002  0.2016954E+03  0.7818608E-02  0.1148977E+00
         21   -1    0    0  503  502  0.00000000000E+00  0.00000000000E+00  0.18415181381E+04  0.18415181381E+04  0.00000000000E+00 0. -1.
         21   -1    0    0  501  503 -0.00000000000E+00 -0.00000000000E+00 -0.30964406009E+02  0.30964406009E+02  0.00000000000E+00 0. -1.
          6    2    1    2  501    0 -0.69725227099E+02 -0.79543947161E+02  0.38953087166E+03  0.43721706705E+03  0.16803457060E+03 0.  0.
         24    2    3    3    0    0  0.13158019197E+02 -0.81724131607E+02  0.20920347518E+03  0.23868634993E+03  0.79706414149E+02 0.  0.
         -6    2    1    2    0  502  0.69725227099E+02  0.79543947161E+02  0.14210228605E+04  0.14352654771E+04  0.17173285345E+03 0.  0.
        -24    2    5    5    0    0  0.11103657717E+03  0.70035471856E+02  0.12288003029E+04  0.12383679394E+04  0.79817792062E+02 0.  0.
          5    1    3    3  501    0 -0.82883246296E+02  0.21801844460E+01  0.18032739648E+03  0.19853071712E+03  0.47000000000E+01 0. -1.
        -13    1    4    4    0    0  0.10847601625E+02 -0.83576754225E+00 -0.32407892700E+01  0.11352166467E+02  0.00000000000E+00 0.  1.
         14    1    4    4    0    0  0.23104175724E+01 -0.80888364065E+02  0.21244426445E+03  0.22733418346E+03  0.00000000000E+00 0. -1.
         -5    1    5    5    0  502 -0.41311350066E+02  0.95084753053E+01  0.19222255754E+03  0.19689753776E+03  0.47000000000E+01 0.  1.
         13    1    6    6    0    0  0.68646884217E+02  0.12249618371E+01  0.42439051535E+03  0.42990836787E+03  0.00000000000E+00 0. -1.
        -14    1    6    6    0    0  0.42389692948E+02  0.68810510019E+02  0.80440978759E+03  0.80845957148E+03  0.00000000000E+00 0.  1.
</event>
<event>
12    1  0.8451514E-002  0.1726077E+03  0.7818608E-02  0.1175337E+00
         21   -1    0    0  503  502  0.00000000000E+00  0.00000000000E+00  0.12867108943E+04  0.12867108943E+04  0.00000000000E+00 0.  1.
         21   -1    0    0  501  503 -0.00000000000E+00 -0.00000000000E+00 -0.41803146218E+02  0.41803146218E+02  0.00000000000E+00 0.  1.
          6    2    1    2  501    0 -0.58723306990E+01 -0.68103099232E+01  0.17836931610E+03  0.24821164455E+03  0.17237326641E+03 0.  0.
         24    2    3    3    0    0 -0.65713697909E+02  0.21167180263E+02  0.10010575192E+03  0.14568845368E+03  0.80234807635E+02 0.  0.
         -6    2    1    2    0  502  0.58723306990E+01  0.68103099232E+01  0.10665384320E+04  0.10803023960E+04  0.17166296997E+03 0.  0.
        -24    2    5    5    0    0 -0.17434161429E+02  0.29595487459E+02  0.27287885262E+03  0.28595991643E+03  0.78296632976E+02 0.  0.
          5    1    3    3  501    0  0.59841367210E+02 -0.27977490186E+02  0.78263564186E+02  0.10252319087E+03  0.47000000000E+01 0. -1.
        -13    1    4    4    0    0 -0.31740579256E+02  0.24181363933E+02 -0.31280515142E-01  0.39902427390E+02  0.00000000000E+00 0.  1.
         14    1    4    4    0    0 -0.33973118653E+02 -0.30141836703E+01  0.10013703243E+03  0.10578602629E+03  0.00000000000E+00 0. -1.
         -5    1    5    5    0  502  0.23306492128E+02 -0.22785177536E+02  0.79365957937E+03  0.79434247955E+03  0.47000000000E+01 0.  1.
         13    1    6    6    0    0  0.43812218814E+01  0.97640493423E+01 -0.76800035847E+00  0.10729472927E+02  0.00000000000E+00 0. -1.
        -14    1    6    6    0    0 -0.21815383311E+02  0.19831438116E+02  0.27364685297E+03  0.27523044350E+03  0.00000000000E+00 0.  1.
</event>
<event>
12    1  0.8451514E-002  0.1974568E+03  0.7818608E-02  0.1152051E+00
         21   -1    0    0  501  502  0.00000000000E+00  0.00000000000E+00  0.24417356701E+03  0.24417356701E+03  0.00000000000E+00 0.  1.
         21   -1    0    0  502  503 -0.00000000000E+00 -0.00000000000E+00 -0.27443468400E+03  0.27443468400E+03  0.00000000000E+00 0.  1.
         -6    2    1    2    0  503 -0.45071354758E+02  0.86532902173E+02 -0.18320066128E+03  0.26884895909E+03  0.17087396037E+03 0.  0.
        -24    2    3    3    0    0 -0.90086847743E+02  0.89427035348E+02 -0.12667817681E+03  0.19638067730E+03  0.80032338144E+02 0.  0.
          6    2    1    2  501    0  0.45071354758E+02 -0.86532902173E+02  0.15293954429E+03  0.24975929191E+03  0.17166778821E+03 0.  0.
         24    2    5    5    0    0  0.14500820528E+02 -0.65700012794E+02  0.12867781936E+02  0.10480841936E+03  0.79325024300E+02 0.  0.
          5    1    5    5  501    0  0.30570534230E+02 -0.20832889379E+02  0.14007176236E+03  0.14495087255E+03  0.47000000000E+01 0. -1.
        -11    1    6    6    0    0 -0.12374273089E+02 -0.12275235406E+02  0.36544561011E+02  0.40488380780E+02  0.00000000000E+00 0.  1.
         12    1    6    6    0    0  0.26875093616E+02 -0.53424777388E+02 -0.23676779075E+02  0.64320038582E+02  0.00000000000E+00 0. -1.
         -5    1    3    3    0  503  0.45015492986E+02 -0.28941331746E+01 -0.56522484473E+02  0.72468281797E+02  0.47000000000E+01 0.  1.
         11    1    4    4    0    0 -0.12979560254E+02  0.20577641502E+02  0.88856189017E+01  0.25901014216E+02  0.00000000000E+00 0. -1.
        -12    1    4    4    0    0 -0.77107287490E+02  0.68849393846E+02 -0.13556379571E+03  0.17047966308E+03  0.00000000000E+00 0.  1.
</event>
<event>
12    1  0.8451514E-002  0.1793670E+03  0.7818608E-02  0.1168865E+00
         21   -1    0    0  501  502  0.00000000000E+00  0.00000000000E+00  0.10337592593E+04  0.10337592593E+04  0.00000000000E+00 0. -1.
         21   -1    0    0  502  503 -0.00000000000E+00 -0.00000000000E+00 -0.34936206967E+02  0.34936206967E+02  0.00000000000E+00 0. -1.
         -6    2    1    2    0  503  0.54918671963E+00  0.46036111207E+02  0.31340557363E+03  0.36019730294E+03  0.17146258577E+03 0.  0.
        -24    2    3    3    0    0 -0.67411168083E+01  0.76443114682E+02  0.30934107950E+03  0.32831714456E+03  0.78811493487E+02 0.  0.
          6    2    1    2  501    0 -0.54918671963E+00 -0.46036111207E+02  0.68541747869E+03  0.70849816332E+03  0.17335772897E+03 0.  0.
         24    2    5    5    0    0  0.25025663108E+01 -0.94293866601E+02  0.43736619253E+03  0.45573413360E+03  0.86641895451E+02 0.  0.
          5    1    5    5  501    0 -0.30517530304E+01  0.48257755394E+02  0.24805128616E+03  0.25276402971E+03  0.47000000000E+01 0. -1.
        -11    1    6    6    0    0 -0.19580852154E+01 -0.53967344671E+02  0.82800067611E+02  0.98854234026E+02  0.00000000000E+00 0.  1.
         12    1    6    6    0    0  0.44606515262E+01 -0.40326521930E+02  0.35456612491E+03  0.35687989957E+03  0.00000000000E+00 0. -1.
         -5    1    3    3    0  503  0.72903035279E+01 -0.30407003476E+02  0.40644941358E+01  0.31880158382E+02  0.47000000000E+01 0.  1.
         11    1    4    4    0    0  0.35278739397E+02  0.23460600855E+02  0.12144333152E+03  0.12862142908E+03  0.00000000000E+00 0. -1.
        -12    1    4    4    0    0 -0.42019856205E+02  0.52982513827E+02  0.18789774797E+03  0.19969571548E+03  0.00000000000E+00 0.  1.
</event>
<event>
12    1  0.8451514E-002  0.1762621E+03  0.7818608E-02  0.1171880E+00
         21   -1    0    0  501  502  0.00000000000E+00  0.00000000000E+00  0.10980468827E+04  0.10980468827E+04  0.00000000000E+00 0. -1.
         21   -1    0    0  502  503 -0.00000000000E+00 -0.00000000000E+00 -0.54057747547E+02  0.54057747547E+02  0.00000000000E+00 0. -1.
         -6    2    1    2    0  503  0.22889697755E+02  0.78825304783E+01  0.12103237536E+03  0.21246772370E+03  0.17293821203E+03 0.  0.
        -24    2    3    3    0    0 -0.48229810454E+02 -0.15346483141E+02  0.39052175259E+02  0.10138030439E+03  0.78684589118E+02 0.  0.
          6    2    1    2  501    0 -0.22889697755E+02 -0.78825304783E+01  0.92295675983E+03  0.93963690658E+03  0.17459170408E+03 0.  0.
         24    2    5    5    0    0 -0.18581295583E+02  0.43908635998E+02  0.80929437244E+03  0.81456846307E+03  0.79316876520E+02 0.  0.
          5    1    5    5  501    0 -0.43084021727E+01 -0.51791166476E+02  0.11366238739E+03  0.12506844350E+03  0.47000000000E+01 0. -1.
        -13    1    6    6    0    0  0.19535870153E+02 -0.10958311616E+01  0.63511124188E+02  0.66456857917E+02  0.00000000000E+00 0.  1.
         14    1    6    6    0    0 -0.38117165736E+02  0.45004467159E+02  0.74578324826E+03  0.74811160516E+03  0.00000000000E+00 0. -1.
         -5    1    3    3    0  503  0.71119508210E+02  0.23229013619E+02  0.81980200097E+02  0.11108741931E+03  0.47000000000E+01 0.  1.
         11    1    4    4    0    0 -0.57001411823E+02  0.52697985526E+01  0.50396227046E+02  0.76267368036E+02  0.00000000000E+00 0. -1.
        -12    1    4    4    0    0  0.87716013689E+01 -0.20616281693E+02 -0.11344051787E+02  0.25112936355E+02  0.00000000000E+00 0.  1.
</event>
<event>
12    1  0.8451514E-002  0.2226881E+03  0.7818608E-02  0.1133796E+00
         21   -1    0    0  503  502  0.00000000000E+00  0.00000000000E+00  0.55603923504E+02  0.55603923504E+02  0.00000000000E+00 0. -1.
         21   -1    0    0  501  503 -0.00000000000E+00 -0.00000000000E+00 -0.86624707055E+03  0.86624707055E+03  0.00000000000E+00 0.  1.
          6    2    1    2  501    0 -0.13889643770E+02  0.12354115094E+03 -0.33660445074E+03  0.39811186979E+03  0.17243887737E+03 0.  0.
         24    2    3    3    0    0 -0.63433108615E+02  0.12535833777E+03 -0.27302575905E+03  0.31735174897E+03  0.80190992988E+02 0.  0.
         -6    2    1    2    0  502  0.13889643770E+02 -0.12354115094E+03 -0.47403869631E+03  0.52373912427E+03  0.18475564000E+03 0.  0.
        -24    2    5    5    0    0 -0.37393798933E+02 -0.39172029069E+02 -0.36274643083E+03  0.37488954054E+03  0.77617333547E+02 0.  0.
          5    1    3    3  501    0  0.49543464844E+02 -0.18171868305E+01 -0.63578691694E+02  0.80760120816E+02  0.47000000000E+01 0. -1.
        -11    1    4    4    0    0 -0.58303187054E+02  0.30024292051E+02 -0.12606256776E+03  0.14210028404E+03  0.00000000000E+00 0.  1.
         12    1    4    4    0    0 -0.51299215612E+01  0.95334045718E+02 -0.14696319129E+03  0.17525146493E+03  0.00000000000E+00 0. -1.
         -5    1    5    5    0  502  0.51283442704E+02 -0.84369121869E+02 -0.11129226547E+03  0.14884958372E+03  0.47000000000E+01 0.  1.
         13    1    6    6    0    0  0.36699689022E+01 -0.11947751989E+02 -0.45199755066E+01  0.13290885144E+02  0.00000000000E+00 0. -1.
        -14    1    6    6    0    0 -0.41063767835E+02 -0.27224277081E+02 -0.35822645532E+03  0.36159865540E+03  0.00000000000E+00 0.  1.
</event>
<event>
12    1  0.8451514E-002  0.1896122E+03  0.7818608E-02  0.1159177E+00
         21   -1    0    0  503  502  0.00000000000E+00  0.00000000000E+00  0.68319394320E+02  0.68319394320E+02  0.00000000000E+00 0. -1.
         21   -1    0    0  501  503 -0.00000000000E+00 -0.00000000000E+00 -0.60465530666E+03  0.60465530666E+03  0.00000000000E+00 0. -1.
          6    2    1    2  501    0  0.37636838173E+02 -0.67671667441E+02 -0.14261507680E+03  0.23597483044E+03  0.17131571530E+03 0.  0.
         24    2    3    3    0    0 -0.92521305327E+01  0.17112915321E+02 -0.31628174788E+02  0.88573394629E+02  0.80414246284E+02 0.  0.
         -6    2    1    2    0  502 -0.37636838173E+02  0.67671667441E+02 -0.39372083554E+03  0.43699987054E+03  0.17308034075E+03 0.  0.
        -24    2    5    5    0    0  0.27961967034E+02  0.61788162319E+02 -0.14503083668E+03  0.17969339101E+03  0.81585063466E+02 0.  0.
          5    1    3    3  501    0  0.46888968706E+02 -0.84784582762E+02 -0.11098690201E+03  0.14740143581E+03  0.47000000000E+01 0. -1.
        -11    1    4    4    0    0  0.35729318994E+02  0.50951600094E+01 -0.15793946398E+02  0.39395350412E+02  0.00000000000E+00 0.  1.
         12    1    4    4    0    0 -0.44981449526E+02  0.12017755311E+02 -0.15834228390E+02  0.49178044216E+02  0.00000000000E+00 0. -1.
         -5    1    5    5    0  502 -0.65598805207E+02  0.58835051223E+01 -0.24868999886E+03  0.25730647954E+03  0.47000000000E+01 0.  1.
         13    1    6    6    0    0  0.42079815446E+02  0.65025927742E+02 -0.14589846781E+03  0.16518306529E+03  0.00000000000E+00 0. -1.
        -14    1    6    6    0    0 -0.14117848412E+02 -0.32377654227E+01  0.86763113728E+00  0.14510325720E+02  0.00000000000E+00 0.  1.
</event>
<event>
12    1  0.8451514E-002  0.1778786E+03  0.7818608E-02  0.1169903E+00
         21   -1    0    0  501  502  0.00000000000E+00  0.00000000000E+00  0.25827806335E+03  0.25827806335E+03  0.00000000000E+00 0.  1.
         21   -1    0    0  502  503 -0.00000000000E+00 -0.00000000000E+00 -0.15404377594E+03  0.15404377594E+03  0.00000000000E+00 0.  1.
         -6    2    1    2    0  503 -0.26885550203E+02 -0.39246476528E+02 -0.41277071316E+02  0.18260497848E+03  0.17139913307E+03 0.  0.
        -24    2    3    3    0    0  0.44810559480E+02 -0.24862462404E+02 -0.31662673077E+01  0.10001105988E+03  0.85825745397E+02 0.  0.
          6    2    1    2  501    0  0.26885550203E+02  0.39246476528E+02  0.14551135873E+03  0.22971686081E+03  0.17126926721E+03 0.  0.
         24    2    5    5    0    0  0.22296131685E+01  0.44321340032E+02  0.95397037511E+01  0.91354834123E+02  0.79280182977E+02 0.  0.
          5    1    5    5  501    0  0.24655937035E+02 -0.50748635041E+01  0.13597165498E+03  0.13836202668E+03  0.47000000000E+01 0. -1.
        -11    1    6    6    0    0  0.33925558141E+02  0.12808623514E+01 -0.83985514083E+01  0.34973129246E+02  0.00000000000E+00 0.  1.
         12    1    6    6    0    0 -0.31695944972E+02  0.43040477681E+02  0.17938255159E+02  0.56381704877E+02  0.00000000000E+00 0. -1.
         -5    1    3    3    0  503 -0.71696109683E+02 -0.14384014124E+02 -0.38110804009E+02  0.82593918591E+02  0.47000000000E+01 0.  1.
         11    1    4    4    0    0  0.14083198865E+02 -0.10100314531E+02 -0.43721832711E+02  0.47031388449E+02  0.00000000000E+00 0. -1.
        -12    1    4    4    0    0  0.30727360615E+02 -0.14762147873E+02  0.40555565403E+02  0.52979671435E+02  0.00000000000E+00 0.  1.
</event>
<event>
12    1  0.8451514E-002  0.2018556E+03  0.7818608E-02  0.1148615E+00
         21   -1    0    0  501  502  0.00000000000E+00  0.00000000000E+00  0.21496086881E+03  0.21496086881E+03  0.00000000000E+00 0.  1.
         21   -1    0    0  502  503 -0.00000000000E+00 -0.00000000000E+00 -0.30769625216E+03  0.30769625216E+03  0.00000000000E+00 0.  1.
         -6    2    1    2    0  503  0.10441964453E+03  0.92390503005E+01 -0.20947351294E+03  0.28947593409E+03  0.17008333716E+03 0.  0.
        -24    2    3    3    0    0  0.11584609636E+03  0.31094852062E+02 -0.22106726982E+03  0.26182190960E+03  0.72751403418E+02 0.  0.
          6    2    1    2  501    0 -0.10441964453E+03 -0.92390503005E+01  0.11673812960E+03  0.23318118688E+03  0.17250174723E+03 0.  0.
         24    2    5    5    0    0 -0.53837927403E+02 -0.67546705525E+02  0.99787497358E+02  0.15401233758E+03  0.79379944852E+02 0.  0.
          5    1    5    5  501    0 -0.50581717131E+02  0.58307655224E+02  0.16950632240E+02  0.79168849297E+02  0.47000000000E+01 0. -1.
        -11    1    6    6    0    0 -0.33153213292E+02 -0.59742893014E+02  0.19961536727E+02  0.71181540906E+02  0.00000000000E+00 0.  1.
         12    1    6    6    0    0 -0.20684714111E+02 -0.78038125110E+01  0.79825960631E+02  0.82830796678E+02  0.00000000000E+00 0. -1.
         -5    1    3    3    0  503 -0.11426451822E+02 -0.21855801761E+02  0.11593756874E+02  0.27654024487E+02  0.47000000000E+01 0.  1.
         13    1    4    4    0    0  0.20281195200E+02 -0.21954231239E+02 -0.34991953215E+02  0.46019038863E+02  0.00000000000E+00 0. -1.
        -14    1    4    4    0    0  0.95564901157E+02  0.53049083301E+02 -0.18607531660E+03  0.21580287074E+03  0.00000000000E+00 0.  1.
</event>
<event>
12    1  0.8451514E-002  0.2210531E+03  0.7818608E-02  0.1133218E+00
         21   -1    0    0  503  502  0.00000000000E+00  0.00000000000E+00  0.50431439256E+02  0.50431439256E+02  0.00000000000E+00 0. -1.
         21   -1    0    0  501  503 -0.00000000000E+00 -0.00000000000E+00 -0.10509530135E+04  0.10509530135E+04  0.00000000000E+00 0.  1.
          6    2    1    2  501    0 -0.12671252346E+03 -0.53142575209E+02 -0.65735700014E+03  0.69352915647E+03  0.17315966142E+03 0.  0.
         24    2    3    3    0    0 -0.91469292002E+02  0.17265248074E+02 -0.25509012564E+03  0.28360224194E+03  0.81820164143E+02 0.  0.
         -6    2    1    2    0  502  0.12671252346E+03  0.53142575209E+02 -0.34316457412E+03  0.40785529630E+03  0.17234796456E+03 0.  0.
        -24    2    5    5    0    0  0.50382093503E+01 -0.50296548965E+01 -0.99225919538E+02  0.12907795815E+03  0.82247523908E+02 0.  0.
          5    1    3    3  501    0 -0.35243231457E+02 -0.70407823283E+02 -0.40226687450E+03  0.40992691454E+03  0.47000000000E+01 0. -1.
        -13    1    4    4    0    0 -0.38513546051E+02  0.35453620486E+02 -0.19309440022E+03  0.20006423926E+03  0.00000000000E+00 0.  1.
         14    1    4    4    0    0 -0.52955745952E+02 -0.18188372412E+02 -0.61995725425E+02  0.83538002677E+02  0.00000000000E+00 0. -1.
         -5    1    5    5    0  502  0.12167431411E+03  0.58172230105E+02 -0.24393865459E+03  0.27877733816E+03  0.47000000000E+01 0.  1.
         11    1    6    6    0    0  0.37992136719E+02 -0.17122425815E+02 -0.76933817427E+02  0.87495098046E+02  0.00000000000E+00 0. -1.
        -12    1    6    6    0    0 -0.32953927369E+02  0.12092770918E+02 -0.22292102111E+02  0.41582860099E+02  0.00000000000E+00 0.  1.
</event>
<event>
12    1  0.8451514E-002  0.1819371E+03  0.7818608E-02  0.1166056E+00
         21   -1    0    0  501  502  0.00000000000E+00  0.00000000000E+00  0.15147719508E+04  0.15147719508E+04  0.00000000000E+00 0. -1.
         21   -1    0    0  502  503 -0.00000000000E+00 -0.00000000000E+00 -0.22906067559E+02  0.22906067559E+02  0.00000000000E+00 0. -1.
         -6    2    1    2    0  503 -0.58154415888E+02  0.54285573770E+01  0.57565114690E+03  0.60357387360E+03  0.17180155019E+03 0.  0.
        -24    2    3    3    0    0 -0.96584939458E+02 -0.28286295844E+02  0.44509855217E+03  0.46328963907E+03  0.79973767307E+02 0.  0.
          6    2    1    2  501    0  0.58154415888E+02 -0.54285573770E+01  0.91621473636E+03  0.93410414478E+03  0.17230700752E+03 0.  0.
         24    2    5    5    0    0  0.43632890715E+02  0.51769857371E+02  0.75619355244E+03  0.76348350521E+03  0.80588005861E+02 0.  0.
          5    1    5    5  501    0  0.14521525173E+02 -0.57198414748E+02  0.16002118393E+03  0.17062063957E+03  0.47000000000E+01 0. -1.
        -13    1    6    6    0    0 -0.19427178406E+02 -0.88371850522E+00  0.24075768663E+03  0.24154183880E+03  0.00000000000E+00 0.  1.
         14    1    6    6    0    0  0.63060069121E+02  0.52653575876E+02  0.51543586580E+03  0.52194166640E+03  0.00000000000E+00 0. -1.
         -5    1    3    3    0  503  0.38430523570E+02  0.33714853221E+02  0.13055259472E+03  0.14028423453E+03  0.47000000000E+01 0.  1.
         13    1    4    4    0    0 -0.84290765443E+02  0.13151524048E+02  0.29865874485E+03  0.31060415579E+03  0.00000000000E+00 0. -1.
        -14    1    4    4    0    0 -0.12294174015E+02 -0.41437819892E+02  0.14643980733E+03  0.15268548327E+03  0.00000000000E+00 0.  1.
</event>
<event>
12    1  0.8451514E-002  0.2256595E+03  0.7818608E-02  0.1130047E+00
         21   -1    0    0  503  502  0.00000000000E+00  0.00000000000E+00  0.66190178421E+03  0.66190178421E+03  0.00000000000E+00 0.  1.
         21   -1    0    0  501  503 -0.00000000000E+00 -0.00000000000E+00 -0.15860449521E+03  0.15860449521E+03  0.00000000000E+00 0.  1.
          6    2    1    2  501    0 -0.14015057119E+03 -0.32892663286E+02 -0.43339581951E+02  0.22978368991E+03  0.17377604807E+03 0.  0.
         24    2    3    3    0    0 -0.10433338374E+03  0.27316234008E+02 -0.73228209758E+02  0.15347246988E+03  0.80992571905E+02 0.  0.
         -6    2    1    2    0  502  0.14015057119E+03  0.32892663286E+02  0.54663687094E+03  0.59072258951E+03  0.17151442850E+03 0.  0.
        -24    2    5    5    0    0  0.12541084007E+02 -0.13081673698E+02  0.14558696936E+03  0.16733041382E+03  0.80470446538E+02 0.  0.
          5    1    3    3  501    0 -0.35817187453E+02 -0.60208897294E+02  0.29888627807E+02  0.76311220031E+02  0.47000000000E+01 0. -1.
        -13    1    4    4    0    0  0.82575738646E+01  0.18521184350E+02 -0.20501326270E+02  0.28836195566E+02  0.00000000000E+00 0.  1.
         14    1    4    4    0    0 -0.11259095760E+03  0.87950496575E+01 -0.52726883488E+02  0.12463627431E+03  0.00000000000E+00 0. -1.
         -5    1    5    5    0  502  0.12760948718E+03  0.45974336984E+02  0.40104990158E+03  0.42339217569E+03  0.47000000000E+01 0.  1.
         11    1    6    6    0    0  0.31535827875E+02  0.23673503139E+02  0.54321924103E+02  0.67125365019E+02  0.00000000000E+00 0. -1.
        -12    1    6    6    0    0 -0.18994743868E+02 -0.36755176838E+02  0.91265045260E+02  0.10020504880E+03  0.00000000000E+00 0.  1.
</event>
<event>
12    1  0.8451514E-002  0.2008981E+03  0.7818608E-02  0.1149219E+00
         21   -1    0    0  501  502  0.00000000000E+00  0.00000000000E+00  0.37145624474E+03  0.37145624474E+03  0.00000000000E+00 0. -1.
         21   -1    0    0  502  503 -0.00000000000E+00 -0.00000000000E+00 -0.14314988466E+03  0.14314988466E+03  0.00000000000E+00 0.  1.
         -6    2    1    2    0  503 -0.85627671033E+02  0.58144840589E+02 -0.13499150462E+02  0.20023381471E+03  0.17087548962E+03 0.  0.
        -24    2    3    3    0    0 -0.89857254146E+02  0.34877361553E+02 -0.65272497619E+02  0.14312134295E+03  0.83261415982E+02 0.  0.
          6    2    1    2  501    0  0.85627671033E+02 -0.58144840589E+02  0.24180551054E+03  0.31437231469E+03  0.17218341030E+03 0.  0.
         24    2    5    5    0    0  0.11416105133E+03 -0.72449972446E+02  0.14631835774E+03  0.21358205257E+03  0.76983681524E+02 0.  0.
          5    1    5    5  501    0 -0.28533380293E+02  0.14305131857E+02  0.95487152800E+02  0.10079026212E+03  0.47000000000E+01 0. -1.
        -11    1    6    6    0    0  0.64624147227E+02 -0.67401991747E+02  0.13215125242E+03  0.16181242972E+03  0.00000000000E+00 0.  1.
         12    1    6    6    0    0  0.49536904100E+02 -0.50479806988E+01  0.14167105324E+02  0.51769622851E+02  0.00000000000E+00 0. -1.
         -5    1    3    3    0  503  0.42295831122E+01  0.23267479036E+02  0.51773347157E+02  0.57112471753E+02  0.47000000000E+01 0.  1.
         11    1    4    4    0    0  0.10280151493E+02  0.23998328116E+02 -0.18913281786E+02  0.32238385428E+02  0.00000000000E+00 0. -1.
        -12    1    4    4    0    0 -0.10013740564E+03  0.10879033438E+02 -0.46359215833E+02  0.11088295752E+03  0.00000000000E+00 0.  1.
</event>
<event>
12    1  0.8451514E-002  0.1779001E+03  0.7818608E-02  0.1169968E+00
         21   -1    0    0  501  502  0.00000000000E+00  0.00000000000E+00  0.43258098880E+03  0.43258098880E+03  0.00000000000E+00 0. -1.
         21   -1    0    0  502  503 -0.00000000000E+00 -0.00000000000E+00 -0.73257891700E+02  0.73257891700E+02  0.00000000000E+00 0.  1.
         -6    2    1    2    0  503  0.36030560857E+02 -0.26849554006E+02  0.19537832109E+03  0.26391671550E+03  0.17163986863E+03 0.  0.
        -24    2    3    3    0    0  0.10586964073E+02 -0.49447124766E+02  0.19955030922E+03  0.22931148025E+03  0.10102636839E+03 0.  0.
          6    2    1    2  501    0 -0.36030560857E+02  0.26849554006E+02  0.16394477602E+03  0.24192216501E+03  0.17213176486E+03 0.  0.
         24    2    5    5    0    0  0.29835136295E+02  0.35247487650E+02  0.45412198016E+02  0.10597777418E+03  0.83883849144E+02 0.  0.
          5    1    5    5  501    0 -0.65865697152E+02 -0.83979336448E+01  0.11853257800E+03  0.13594439083E+03  0.47000000000E+01 0. -1.
        -11    1    6    6    0    0 -0.25213984742E+02  0.39072421193E+01  0.32518609857E+02  0.41333661277E+02  0.00000000000E+00 0.  1.
         12    1    6    6    0    0  0.55049121037E+02  0.31340245531E+02  0.12893588159E+02  0.64644112899E+02  0.00000000000E+00 0. -1.
         -5    1    3    3    0  503  0.25443596784E+02  0.22597570760E+02 -0.41719881298E+01  0.34605235247E+02  0.47000000000E+01 0.  1.
         11    1    4    4    0    0  0.19697947308E+02 -0.69402834268E+00  0.17090224882E+03  0.17203508205E+03  0.00000000000E+00 0. -1.
        -12    1    4    4    0    0 -0.91109832347E+01 -0.48753096423E+02  0.28648060394E+02  0.57276398199E+02  0.00000000000E+00 0.  1.
</event>
<event>
12    1  0.8451514E-002  0.2717990E+03  0.7818608E-02  0.1102172E+00
         21   -1    0    0  503  502  0.00000000000E+00  0.00000000000E+00  0.36369801382E+03  0.36369801382E+03  0.00000000000E+00 0. -1.
         21   -1    0    0  501  503 -0.00000000000E+00 -0.00000000000E+00 -0.23383125743E+03  0.23383125743E+03  0.00000000000E+00 0. -1.
          6    2    1    2  501    0  0.14623013638E+03  0.12605976325E+03 -0.60598191436E+02  0.26563835752E+03  0.17209671549E+03 0.  0.
         24    2    3    3    0    0  0.14240627929E+03  0.34419744547E+02 -0.34480197615E+02  0.17015666026E+03  0.79373407428E+02 0.  0.
         -6    2    1    2    0  502 -0.14623013638E+03 -0.12605976325E+03  0.19046494782E+03  0.33189091373E+03  0.19131222014E+03 0.  0.
        -24    2    5    5    0    0 -0.92291623714E+02 -0.59268007433E+02  0.20372493989E+03  0.24489425182E+03  0.80242774947E+02 0.  0.
          5    1    3    3  501    0  0.38238570912E+01  0.91640018700E+02 -0.26117993821E+02  0.95481697260E+02  0.47000000000E+01 0. -1.
        -13    1    4    4    0    0  0.98965045064E+02 -0.15407420186E+02 -0.26259019741E+02  0.10354228537E+03  0.00000000000E+00 0.  1.
         14    1    4    4    0    0  0.43441234224E+02  0.49827164733E+02 -0.82211778736E+01  0.66614374889E+02  0.00000000000E+00 0. -1.
         -5    1    5    5    0  502 -0.53938512665E+02 -0.66791755815E+02 -0.13259992070E+02  0.86996661907E+02  0.47000000000E+01 0.  1.
         11    1    6    6    0    0  0.24353033244E+01 -0.31299308068E+02  0.84069401434E+02  0.89739855389E+02  0.00000000000E+00 0. -1.
        -12    1    6    6    0    0 -0.94726927039E+02 -0.27968699364E+02  0.11965553845E+03  0.15515439644E+03  0.00000000000E+00 0.  1.
</event>
<event>
12    1  0.8451514E-002  0.2431512E+03  0.7818608E-02  0.1117981E+00
         21   -1    0    0  503  502  0.00000000000E+00  0.00000000000E+00  0.28233036821E+03  0.28233036821E+03  0.00000000000E+00 0.  1.
         21   -1    0    0  501  503 -0.00000000000E+00 -0.00000000000E+00 -0.22710635069E+03  0.22710635069E+03  0.00000000000E+00 0.  1.
          6    2    1    2  501    0 -0.53663002632E+01  0.17094872182E+03  0.10141256440E+03  0.26193744172E+03  0.17051232356E+03 0.  0.
         24    2    3    3    0    0 -0.55108260789E+01  0.14664730444E+03  0.99230865602E+01  0.16715878204E+03  0.79421594431E+02 0.  0.
         -6    2    1    2    0  502  0.53663002632E+01 -0.17094872182E+03 -0.46188546882E+02  0.24749927719E+03  0.17283011218E+03 0.  0.
        -24    2    5    5    0    0  0.27133862515E+02 -0.10815431470E+03 -0.93028112707E+02  0.16605604998E+03  0.80540546910E+02 0.  0.
          5    1    3    3  501    0  0.14452581571E+00  0.24301417377E+02  0.91489477841E+02  0.94778659675E+02  0.47000000000E+01 0. -1.
        -11    1    4    4    0    0 -0.40278269749E+02  0.10273425812E+03  0.42311967226E+00  0.11034874642E+03  0.00000000000E+00 0.  1.
         12    1    4    4    0    0  0.34767443671E+02  0.43913046325E+02  0.94999668879E+01  0.56810035626E+02  0.00000000000E+00 0. -1.
         -5    1    5    5    0  502 -0.21767562252E+02 -0.62794407120E+02  0.46839565825E+02  0.81443227212E+02  0.47000000000E+01 0.  1.
         13    1    6    6    0    0 -0.19409735613E+01 -0.79082723620E+02 -0.96516096320E+02  0.12479263361E+03  0.00000000000E+00 0. -1.
        -14    1    6    6    0    0  0.29074836076E+02 -0.29071591081E+02  0.34879836135E+01  0.41263416370E+02  0.00000000000E+00 0.  1.
</event>
<event>
12    1  0.8451514E-002  0.1851662E+03  0.7818608E-02  0.1163782E+00
         21   -1    0    0  503  502  0.00000000000E+00  0.00000000000E+00  0.10408960852E+04  0.10408960852E+04  0.00000000000E+00 0. -1.
         21   -1    0    0  501  503 -0.00000000000E+00 -0.00000000000E+00 -0.17589074382E+03  0.17589074382E+03  0.00000000000E+00 0. -1.
          6    2    1    2  501    0  0.56048697858E+02  0.39362382993E+02 -0.11642868752E+03  0.21872854569E+03  0.17203396088E+03 0.  0.
         24    2    3    3    0    0  0.84309309482E+02 -0.98234861524E+01 -0.38182243133E+02  0.12196849220E+03  0.78828096847E+02 0.  0.
         -6    2    1    2    0  502 -0.56048697858E+02 -0.39362382993E+02  0.98143402892E+03  0.99805828334E+03  0.16797836199E+03 0.  0.
        -24    2    5    5    0    0 -0.20633502818E+02  0.44982624709E+02  0.54992708317E+03  0.55693624740E+03  0.72862945980E+02 0.  0.
          5    1    3    3  501    0 -0.28260611623E+02  0.49185869145E+02 -0.78246444391E+02  0.96760053497E+02  0.47000000000E+01 0. -1.
        -11    1    4    4    0    0  0.31551946446E+02 -0.17169831793E+02 -0.55366918965E+02  0.65998667896E+02  0.00000000000E+00 0.  1.
         12    1    4    4    0    0  0.52757363036E+02  0.73463456410E+01  0.17184675832E+02  0.55969824300E+02  0.00000000000E+00 0. -1.
         -5    1    5    5    0  502 -0.35415195041E+02 -0.84345007702E+02  0.43150694574E+03  0.44112203594E+03  0.47000000000E+01 0.  1.
         13    1    6    6    0    0 -0.40625705273E+02  0.99702879929E+01  0.37981202835E+03  0.38210866446E+03  0.00000000000E+00 0. -1.
        -14    1    6    6    0    0  0.19992202455E+02  0.35012336716E+02  0.17011505482E+03  0.17482758294E+03  0.00000000000E+00 0.  1.
</event>
<event>
12    1  0.8451514E-002  0.2113086E+03  0.7818608E-02  0.1141166E+00
         21   -1    0    0  503  502  0.00000000000E+00  0.00000000000E+00  0.10817463751E+04  0.10817463751E+04  0.00000000000E+00 0. -1.
         21   -1    0    0  501  503 -0.00000000000E+00 -0.00000000000E+00 -0.27191489942E+03  0.27191489942E+03  0.00000000000E+00 0. -1.
          6    2    1    2  501    0 -0.57070290193E+02  0.10258411011E+03 -0.21972748123E+03  0.30264131739E+03  0.17184610357E+03 0.  0.
         24    2    3    3    0    0 -0.37544655721E+02  0.25929721539E+02 -0.28482721339E+02  0.95629738305E+02  0.79068513335E+02 0.  0.
         -6    2    1    2    0  502  0.57070290193E+02 -0.10258411011E+03  0.10295589569E+04  0.10510199571E+04  0.17570084473E+03 0.  0.
        -24    2    5    5    0    0  0.21542626319E+01 -0.12042598499E+03  0.57630421996E+03  0.59407789389E+03  0.79340603454E+02 0.  0.
          5    1    3    3  501    0 -0.19525634472E+02  0.76654388571E+02 -0.19124475989E+03  0.20701157909E+03  0.47000000000E+01 0. -1.
        -11    1    4    4    0    0  0.24600140588E+02  0.11466243782E+02 -0.47523965007E+01  0.27554072946E+02  0.00000000000E+00 0.  1.
         12    1    4    4    0    0 -0.62144796309E+02  0.14463477757E+02 -0.23730324838E+02  0.68075665359E+02  0.00000000000E+00 0. -1.
         -5    1    5    5    0  502  0.54916027561E+02  0.17841874875E+02  0.45325473696E+03  0.45694206324E+03  0.47000000000E+01 0.  1.
         13    1    6    6    0    0 -0.21756015623E+02 -0.15697966221E+02  0.48241929618E+02  0.55199946853E+02  0.00000000000E+00 0. -1.
        -14    1    6    6    0    0  0.23910278255E+02 -0.10472801876E+03  0.52806229034E+03  0.53887794703E+03  0.00000000000E+00 0.  1.
</event>
<event>
12    1  0.8451514E-002  0.1774701E+03  0.7818608E-02  0.1170747E+00
         21   -1    0    0  503  502  0.00000000000E+00  0.00000000000E+00  0.58049245174E+03  0.58049245174E+03  0.00000000000E+00 0.  1.
         21   -1    0    0  501  503 -0.00000000000E+00 -0.00000000000E+00 -0.54247339763E+02  0.54247339763E+02  0.00000000000E+00 0.  1.
          6    2    1    2  501    0  0.36384727447E+02  0.72752658741E+01  0.22912147001E+03  0.28865008963E+03  0.17159676086E+03 0.  0.
         24    2    3    3    0    0  0.48495301126E+02  0.51816869412E+02  0.21551235747E+03  0.24029806397E+03  0.79125224418E+02 0.  0.
         -6    2    1    2    0  502 -0.36384727447E+02 -0.72752658741E+01  0.29712364197E+03  0.34608970188E+03  0.17354781832E+03 0.  0.
        -24    2    5    5    0    0 -0.17006712188E+02 -0.71039257303E+02  0.19005432399E+03  0.21988636226E+03  0.83027476791E+02 0.  0.
          5    1    3    3  501    0 -0.12110573679E+02 -0.44541603538E+02  0.13609112533E+02  0.48352025651E+02  0.47000000000E+01 0. -1.
        -13    1    4    4    0    0  0.67005214704E+02  0.20809875348E+02  0.14028786566E+03  0.15685482129E+03  0.00000000000E+00 0.  1.
         14    1    4    4    0    0 -0.18509913579E+02  0.31006994065E+02  0.75224491813E+02  0.83443242687E+02  0.00000000000E+00 0. -1.
         -5    1    5    5    0  502 -0.19378015258E+02  0.63763991429E+02  0.10706931798E+03  0.12620333962E+03  0.47000000000E+01 0.  1.
         11    1    6    6    0    0 -0.12809325345E+02 -0.80045678496E+02  0.19315599769E+03  0.20947703670E+03  0.00000000000E+00 0. -1.
        -12    1    6    6    0    0 -0.41973868437E+01  0.90064211926E+01 -0.31016736918E+01  0.10409325564E+02  0.00000000000E+00 0.  1.
</event>
<event>
12    1  0.8451514E-002  0.2171358E+03  0.7818608E-02  0.1136694E+00
         21   -1    0    0  503  502  0.00000000000E+00  0.00000000000E+00  0.54090183952E+02  0.54090183952E+02  0.00000000000E+00 0.  1.
         21   -1    0    0  501  503 -0.00000000000E+00 -0.00000000000E+00 -0.15951281181E+04  0.15951281181E+04  0.00000000000E+00 0. -1.
          6    2    1    2  501    0 -0.11362157741E+03  0.54826523330E+02 -0.13277984111E+04  0.13448844923E+04  0.17248149661E+03 0.  0.
         24    2    3    3    0    0  0.95512334205E+01  0.15318226929E+02 -0.60276181152E+03  0.60838424960E+03  0.80521547392E+02 0.  0.
         -6    2    1    2    0  502  0.11362157741E+03 -0.54826523330E+02 -0.21323952306E+03  0.30433380974E+03  0.17672623755E+03 0.  0.
        -24    2    5    5    0    0  0.10719609630E+03  0.14383214678E+02 -0.18620872812E+03  0.22960745215E+03  0.79674410764E+02 0.  0.
          5    1    3    3  501    0 -0.12317281083E+03  0.39508296401E+02 -0.72503659959E+03  0.73650024274E+03  0.47000000000E+01 0. -1.
        -11    1    4    4    0    0  0.20931777452E+02 -0.23725039395E+02 -0.41819226717E+03  0.41938739743E+03  0.00000000000E+00 0.  1.
         12    1    4    4    0    0 -0.11380544032E+02  0.39043266324E+02 -0.18456954435E+03  0.18899685217E+03  0.00000000000E+00 0. -1.
         -5    1    5    5    0  502  0.64254811173E+01 -0.69209738008E+02 -0.27030794945E+02  0.74726357586E+02  0.47000000000E+01 0.  1.
         13    1    6    6    0    0 -0.97536779973E+01  0.12304639983E+02 -0.11948440305E+02  0.19730778629E+02  0.00000000000E+00 0. -1.
        -14    1    6    6    0    0  0.11694977429E+03  0.20785746948E+01 -0.17426028781E+03  0.20987667352E+03  0.00000000000E+00 0.  1.
</event>
<event>
12    1  0.8451514E-002  0.2003872E+03  0.7818608E-02  0.1149417E+00
         21   -1    0    0  501  502  0.00000000000E+00  0.00000000000E+00  0.13968326094E+04  0.13968326094E+04  0.00000000000E+00 0. -1.
         21   -1    0    0  502  503 -0.00000000000E+00 -0.00000000000E+00 -0.38987240072E+02  0.38987240072E+02  0.00000000000E+00 0. -1.
         -6    2    1    2    0  503 -0.89675989019E+02  0.46801648510E+02  0.10469228610E+04  0.10659279980E+04  0.17298220388E+03 0.  0.
        -24    2    3    3    0    0 -0.64550474271E+02  0.31562364275E+02  0.10201871519E+04  0.10259228057E+04  0.81073002476E+02 0.  0.
          6    2    1    2  501    0  0.89675989019E+02 -0.46801648510E+02  0.31092250840E+03  0.36989185148E+03  0.17295952779E+03 0.  0.
         24    2    5    5    0    0  0.24107021474E+02  0.13515449838E+02  0.24424376749E+03  0.25851148361E+03  0.80058436976E+02 0.  0.
          5    1    5    5  501    0  0.65568967546E+02 -0.60317098348E+02  0.66678740912E+02  0.11138036787E+03  0.47000000000E+01 0. -1.
        -11    1    6    6    0    0 -0.87562643398E+01  0.26159491987E+02  0.27591460967E+02  0.39016405581E+02  0.00000000000E+00 0.  1.
         12    1    6    6    0    0  0.32863285814E+02 -0.12644042149E+02  0.21665230652E+03  0.21949507803E+03  0.00000000000E+00 0. -1.
         -5    1    3    3    0  503 -0.25125514748E+02  0.15239284235E+02  0.26735709034E+02  0.40005192324E+02  0.47000000000E+01 0.  1.
         11    1    4    4    0    0 -0.75221164089E+02  0.47240705928E+02  0.79824093151E+03  0.80316778606E+03  0.00000000000E+00 0. -1.
        -12    1    4    4    0    0  0.10670689817E+02 -0.15678341653E+02  0.22194622041E+03  0.22275501964E+03  0.00000000000E+00 0.  1.
</event>
<event>
12    1  0.8451514E-002  0.1974120E+03  0.7818608E-02  0.1152228E+00
         21   -1    0    0  501  502  0.00000000000E+00  0.00000000000E+00  0.26230450360E+03  0.26230450360E+03  0.00000000000E+00 0.  1.
         21   -1    0    0  502  503 -0.00000000000E+00 -0.00000000000E+00 -0.23351937716E+03  0.23351937716E+03  0.00000000000E+00 0.  1.
         -6    2    1    2    0  503  0.91986135995E+02 -0.16787089433E+02 -0.13604011484E+03  0.23864909392E+03  0.17234622594E+03 0.  0.
        -24    2    3    3    0    0  0.38977060397E+02  0.10935595773E+02 -0.15180127153E+03  0.17660867620E+03  0.80673415555E+02 0.  0.
          6    2    1    2  501    0 -0.91986135995E+02  0.16787089433E+02  0.16482524128E+03  0.25717478684E+03  0.17386274827E+03 0.  0.
         24    2    5    5    0    0 -0.33036653797E+02  0.74054555129E+02  0.61916661601E+02  0.12539136660E+03  0.72895982090E+02 0.  0.
          5    1    5    5  501    0 -0.58949482199E+02 -0.57267465696E+02  0.10290857968E+03  0.13178342024E+03  0.47000000000E+01 0. -1.
        -13    1    6    6    0    0 -0.39392060600E+02  0.13102600309E+02  0.46228402113E+02  0.62132742858E+02  0.00000000000E+00 0.  1.
         14    1    6    6    0    0  0.63554068036E+01  0.60951954820E+02  0.15688259488E+02  0.63258623743E+02  0.00000000000E+00 0. -1.
         -5    1    3    3    0  503  0.53009075598E+02 -0.27722685206E+02  0.15761156690E+02  0.62040417721E+02  0.47000000000E+01 0.  1.
         13    1    4    4    0    0 -0.14709526398E+02  0.26029186355E+02 -0.28605640385E+02  0.41378392562E+02  0.00000000000E+00 0. -1.
        -14    1    4    4    0    0  0.53686586795E+02 -0.15093590582E+02 -0.12319563114E+03  0.13523028363E+03  0.00000000000E+00 0.  1.
</event>
<event>
12    1  0.8451514E-002  0.1878300E+03  0.7818608E-02  0.1160946E+00
         21   -1    0    0  503  502  0.00000000000E+00  0.00000000000E+00  0.60814842015E+03  0.60814842015E+03  0.00000000000E+00 0.  1.
         21   -1    0    0  501  503 -0.00000000000E+00 -0.00000000000E+00 -0.76040598559E+02  0.76040598559E+02  0.00000000000E+00 0.  1.
          6    2    1    2  501    0  0.34264286269E+02  0.64145138811E+02  0.43695313172E+03  0.47561343802E+03  0.17318043468E+03 0.  0.
         24    2    3    3    0    0  0.61973347932E+02  0.74324128620E+02  0.42334246021E+03  0.44276919483E+03  0.86376786941E+02 0.  0.
         -6    2    1    2    0  502 -0.34264286269E+02 -0.64145138811E+02  0.95154689868E+02  0.20857558069E+03  0.17076509511E+03 0.  0.
        -24    2    5    5    0    0 -0.68635192203E+02 -0.36418259793E+02  0.82434064297E+01  0.11097537483E+03  0.78806730765E+02 0.  0.
          5    1    3    3  501    0 -0.27709061663E+02 -0.10178989809E+02  0.13610671511E+02  0.32844243190E+02  0.47000000000E+01 0. -1.
        -13    1    4    4    0    0  0.68632608613E+02  0.77955194945E+02  0.27074396188E+03  0.28998231029E+03  0.00000000000E+00 0.  1.
         14    1    4    4    0    0 -0.66592606812E+01 -0.36310663252E+01  0.15259849832E+03  0.15278688454E+03  0.00000000000E+00 0. -1.
         -5    1    5    5    0  502  0.34370905934E+02 -0.27726879018E+02  0.86911283438E+02  0.97600205859E+02  0.47000000000E+01 0.  1.
         13    1    6    6    0    0  0.38498643050E+01  0.14850329816E+02  0.15609864996E+02  0.21886562910E+02  0.00000000000E+00 0. -1.
        -14    1    6    6    0    0 -0.72485056508E+02 -0.51268589609E+02 -0.73664585665E+01  0.89088811920E+02  0.00000000000E+00 0.  1.
</event>
<event>
12    1  0.8451514E-002  0.1882851E+03  0.7818608E-02  0.1160253E+00
         21   -1    0    0  501  502  0.00000000000E+00  0.00000000000E+00  0.59163372163E+03  0.59163372163E+03  0.00000000000E+00 0.  1.
         21   -1    0    0  502  503 -0.00000000000E+00 -0.00000000000E+00 -0.12777969825E+03  0.12777969825E+03  0.00000000000E+00 0.  1.
         -6    2    1    2    0  503  0.19774853278E+02  0.73853461453E+02 -0.30539253121E+02  0.19074567104E+03  0.17206361164E+03 0.  0.
        -24    2    3    3    0    0  0.50936513559E+02  0.46375618926E+02  0.38989553148E+02  0.10961352080E+03  0.75826857007E+02 0.  0.
          6    2    1    2  501    0 -0.19774853278E+02 -0.73853461453E+02  0.49439327650E+03  0.52866774883E+03  0.17093711773E+03 0.  0.
         24    2    5    5    0    0 -0.52323582755E+02 -0.83465094125E+02  0.47196678088E+03  0.48771850001E+03  0.73569788306E+02 0.  0.
          5    1    5    5  501    0  0.32548729477E+02  0.96116326719E+01  0.22426495620E+02  0.40949248820E+02  0.47000000000E+01 0. -1.
        -11    1    6    6    0    0 -0.47002202730E+02 -0.18965363664E+02  0.29427063174E+03  0.29860357798E+03  0.00000000000E+00 0.  1.
         12    1    6    6    0    0 -0.53213800247E+01 -0.64499730461E+02  0.17769614914E+03  0.18911492203E+03  0.00000000000E+00 0. -1.
         -5    1    3    3    0  503 -0.31161660280E+02  0.27477842527E+02 -0.69528806269E+02  0.81132150240E+02  0.47000000000E+01 0.  1.
         13    1    4    4    0    0  0.13583612040E+02 -0.18492982875E+02  0.24130817433E+02  0.33298667866E+02  0.00000000000E+00 0. -1.
        -14    1    4    4    0    0  0.37352901518E+02  0.64868601802E+02  0.14858735715E+02  0.76314852936E+02  0.00000000000E+00 0.  1.
</event>
<event>
12    1  0.8451514E-002  0.1813512E+03  0.7818608E-02  0.1166522E+00
         21   -1    0    0  503  502  0.00000000000E+00  0.00000000000E+00  0.65135299359E+03  0.65135299359E+03  0.00000000000E+00 0. -1.
         21   -1    0    0  501  503 -0.00000000000E+00 -0.00000000000E+00 -0.68227515330E+02  0.68227515330E+02  0.00000000000E+00 0. -1.
          6    2    1    2  501    0 -0.56860392693E+02 -0.78768918492E+01  0.10794993844E+03  0.21097453069E+03  0.17193578368E+03 0.  0.
         24    2    3    3    0    0 -0.13575955101E+02 -0.52335285920E+02  0.13079591019E+02  0.97517207613E+02  0.80095201917E+02 0.  0.
         -6    2    1    2    0  502  0.56860392693E+02  0.78768918492E+01  0.47517553982E+03  0.50860597823E+03  0.17202644495E+03 0.  0.
        -24    2    5    5    0    0  0.27448161628E+01 -0.52252509844E+02  0.19722469799E+03  0.21908430192E+03  0.79765224590E+02 0.  0.
          5    1    3    3  501    0 -0.43284437592E+02  0.44458394070E+02  0.94870347420E+02  0.11345732308E+03  0.47000000000E+01 0. -1.
        -13    1    4    4    0    0 -0.29078236060E+02  0.95907763769E+01  0.14013285138E+02  0.33673416284E+02  0.00000000000E+00 0.  1.
         14    1    4    4    0    0  0.15502280959E+02 -0.61926062296E+02 -0.93369411925E+00  0.63843791328E+02  0.00000000000E+00 0. -1.
         -5    1    5    5    0  502  0.54115576530E+02  0.60129401694E+02  0.27795084184E+03  0.28952167630E+03  0.47000000000E+01 0.  1.
         11    1    6    6    0    0  0.42905999844E+01 -0.22876091716E+02  0.18623143332E+03  0.18768023757E+03  0.00000000000E+00 0. -1.
        -12    1    6    6    0    0 -0.15457838216E+01 -0.29376418128E+02  0.10993264667E+02  0.31404064350E+02  0.00000000000E+00 0.  1.
</event>
<event>
12    1  0.8451514E-002  0.2069195E+03  0.7818608E-02  0.1144267E+00
         21   -1    0    0  501  502  0.00000000000E+00  0.00000000000E+00  0.43732385754E+02  0.43732385754E+02  0.00000000000E+00 0.  1.
         21   -1    0    0  502  503 -0.00000000000E+00 -0.00000000000E+00 -0.10042112678E+04  0.10042112678E+04  0.00000000000E+00 0. -1.
         -6    2    1    2    0  503  0.60844106685E+02 -0.95070002431E+02 -0.57323457376E+03  0.60943707157E+03  0.17342248116E+03 0.  0.
        -24    2    3    3    0    0  0.63831649569E+01 -0.11809461576E+03 -0.45434990760E+03  0.47657706690E+03  0.81882715473E+02 0.  0.
          6    2    1    2  501    0 -0.60844106685E+02  0.95070002431E+02 -0.38724430831E+03  0.43850658201E+03  0.17201615466E+03 0.  0.
         24    2    5    5    0    0  0.20631722238E+02  0.48463894206E+02 -0.12093607965E+03  0.15610154898E+03  0.83472997017E+02 0.  0.
          5    1    5    5  501    0 -0.81475828923E+02  0.46606108225E+02 -0.26630822867E+03  0.28240503303E+03  0.47000000000E+01 0. -1.
        -11    1    6    6    0    0  0.34346544737E+02  0.67145732489E+02 -0.95514330351E+02  0.12170136330E+03  0.00000000000E+00 0.  1.
         12    1    6    6    0    0 -0.13714822500E+02 -0.18681838283E+02 -0.25421749295E+02  0.34400185684E+02  0.00000000000E+00 0. -1.
         -5    1    3    3    0  503  0.54460941728E+02  0.23024613329E+02 -0.11888466616E+03  0.13286000467E+03  0.47000000000E+01 0.  1.
         11    1    4    4    0    0 -0.24280867351E+02 -0.66752094905E+01 -0.12581454579E+03  0.12830985493E+03  0.00000000000E+00 0. -1.
        -12    1    4    4    0    0  0.30664032308E+02 -0.11141940627E+03 -0.32853536181E+03  0.34826721197E+03  0.00000000000E+00 0.  1.
</event>
<event>
12    1  0.8451514E-002  0.1950829E+03  0.7818608E-02  0.1157216E+00
         21   -1    0    0  503  502  0.00000000000E+00  0.00000000000E+00  0.72729954986E+03  0.72729954986E+03  0.00000000000E+00 0. -1.
         21   -1    0    0  501  503 -0.00000000000E+00 -0.00000000000E+00 -0.76414945667E+02  0.76414945667E+02  0.00000000000E+00 0. -1.
          6    2    1    2  501    0 -0.16779242038E+02 -0.45864384968E+02  0.90765107911E+02  0.21516419888E+03  0.18887096890E+03 0.  0.
         24    2    3    3    0    0  0.12613757090E+02 -0.22180756551E+02 -0.29595360521E+02  0.88935854145E+02  0.79891225795E+02 0.  0.
         -6    2    1    2    0  502  0.16779242038E+02  0.45864384968E+02  0.56011949628E+03  0.58855029665E+03  0.17398999052E+03 0.  0.
        -24    2    5    5    0    0  0.16180271709E+02  0.87608072708E+02  0.50694500619E+03  0.52078223169E+03  0.79271167194E+02 0.  0.
          5    1    3    3  501    0 -0.29392999128E+02 -0.23683628416E+02  0.12036046843E+03  0.12622834473E+03  0.47000000000E+01 0. -1.
        -13    1    4    4    0    0 -0.40444163159E+01  0.12424762145E+02 -0.45520604864E+02  0.47358816337E+02  0.00000000000E+00 0.  1.
         14    1    4    4    0    0  0.16658173405E+02 -0.34605518696E+02  0.15925244343E+02  0.41577037807E+02  0.00000000000E+00 0. -1.
         -5    1    5    5    0  502  0.59897032864E+00 -0.41743687741E+02  0.53174490089E+02  0.67768064956E+02  0.47000000000E+01 0.  1.
         13    1    6    6    0    0  0.43114254111E+02  0.24933888041E+02  0.17788835187E+03  0.18472899992E+03  0.00000000000E+00 0. -1.
        -14    1    6    6    0    0 -0.26933982402E+02  0.62674184667E+02  0.32905665433E+03  0.33605323178E+03  0.00000000000E+00 0.  1.
</event>
<event>
12    1  0.8451514E-002  0.2166243E+03  0.7818608E-02  0.1136485E+00
         21   -1    0    0  503  502  0.00000000000E+00  0.00000000000E+00  0.73468661670E+03  0.73468661670E+03  0.00000000000E+00 0.  1.
         21   -1    0    0  501  503 -0.00000000000E+00 -0.00000000000E+00 -0.22891620414E+03  0.22891620414E+03  0.00000000000E+00 0.  1.
          6    2    1    2  501    0 -0.13121824803E+03 -0.56349661805E+01 -0.15627857998E+03  0.26711244882E+03  0.17226747892E+03 0.  0.
         24    2    3    3    0    0 -0.88659403486E+02 -0.68657088108E+02 -0.11818344510E+03  0.18192810517E+03  0.80970508094E+02 0.  0.
         -6    2    1    2    0  502  0.13121824803E+03  0.56349661805E+01  0.66204899254E+03  0.69649037202E+03  0.17187201150E+03 0.  0.
        -24    2    5    5    0    0  0.97188442752E+02 -0.25266398046E+02  0.24343601122E+03  0.27533500866E+03  0.80400815673E+02 0.  0.
          5    1    3    3  501    0 -0.42558844546E+02  0.63022121927E+02 -0.38095134882E+02  0.85184343649E+02  0.47000000000E+01 0. -1.
        -11    1    4    4    0    0 -0.88176163077E+01 -0.51308811174E+02 -0.69438751379E+02  0.86787583527E+02  0.00000000000E+00 0.  1.
         12    1    4    4    0    0 -0.79841787178E+02 -0.17348276934E+02 -0.48744693719E+02  0.95140521641E+02  0.00000000000E+00 0. -1.
         -5    1    5    5    0  502  0.34029805280E+02  0.30901364227E+02  0.41861298132E+03  0.42115536336E+03  0.47000000000E+01 0.  1.
         11    1    6    6    0    0  0.56410771123E+02 -0.51262764589E+02  0.18073852455E+03  0.19615417505E+03  0.00000000000E+00 0. -1.
        -12    1    6    6    0    0  0.40777671629E+02  0.25996366543E+02  0.62697486662E+02  0.79180833606E+02  0.00000000000E+00 0.  1.
</event>
<event>
12    1  0.8451514E-002  0.1985168E+03  0.7818608E-02  0.1151674E+00
         21   -1    0    0  503  502  0.00000000000E+00  0.00000000000E+00  0.13035755794E+03  0.13035755794E+03  0.00000000000E+00 0. -1.
         21   -1    0    0  501  503 -0.00000000000E+00 -0.00000000000E+00 -0.78479411860E+03  0.78479411860E+03  0.00000000000E+00 0. -1.
          6    2    1    2  501    0 -0.66747343794E+02  0.71596763955E+02 -0.68677199661E+03  0.71401860339E+03  0.16907242872E+03 0.  0.
         24    2    3    3    0    0  0.47971537812E+01  0.31466966382E+02 -0.16558652490E+03  0.18639619892E+03  0.79444717157E+02 0.  0.
         -6    2    1    2    0  502  0.66747343794E+02 -0.71596763955E+02  0.32335435941E+02  0.20113307314E+03  0.17270676936E+03 0.  0.
        -24    2    5    5    0    0  0.14730539545E+02 -0.10677097948E+03  0.14703770814E+02  0.13574240885E+03  0.81195873237E+02 0.  0.
          5    1    3    3  501    0 -0.71544497576E+02  0.40129797573E+02 -0.52118547171E+03  0.52762240448E+03  0.47000000000E+01 0. -1.
        -11    1    4    4    0    0  0.47750544685E+01 -0.26682198375E+02 -0.60484484107E+02  0.66280567839E+02  0.00000000000E+00 0.  1.
         12    1    4    4    0    0  0.22099312691E-01  0.58149164757E+02 -0.10510204079E+03  0.12011563108E+03  0.00000000000E+00 0. -1.
         -5    1    5    5    0  502  0.52016804250E+02  0.35174215521E+02  0.17631665128E+02  0.65390664296E+02  0.47000000000E+01 0.  1.
         11    1    6    6    0    0 -0.10258336623E+01 -0.20175304582E+02  0.39442119888E+02  0.44314513096E+02  0.00000000000E+00 0. -1.
        -12    1    6    6    0    0  0.15756373207E+02 -0.86595674894E+02 -0.24738349074E+02  0.91427895753E+02  0.00000000000E+00 0.  1.
</event>
<event>
12    1  0.8451514E-002  0.1762810E+03  0.7818608E-02  0.1172287E+00
         21   -1    0    0  501  502  0.00000000000E+00  0.00000000000E+00  0.27677462487E+04  0.27677462487E+04  0.00000000000E+00 0. -1.
         21   -1    0    0  502  503 -0.00000000000E+00 -0.00000000000E+00 -0.19850408927E+02  0.19850408927E+02  0.00000000000E+00 0. -1.
         -6    2    1    2    0  503  0.28296387242E+02 -0.26998194807E+02  0.45143963389E+03  0.48463669278E+03  0.17188773337E+03 0.  0.
        -24    2    3    3    0    0  0.73381262888E+02 -0.40373786388E+02  0.21998029279E+03  0.24840149420E+03  0.79354399602E+02 0.  0.
          6    2    1    2  501    0 -0.28296387242E+02  0.26998194807E+02  0.22964562059E+04  0.23029599649E+04  0.16847523887E+03 0.  0.
         24    2    5    5    0    0 -0.29438837995E+02 -0.46429340479E+02  0.13958810289E+04  0.13993833784E+04  0.82265813917E+02 0.  0.
          5    1    5    5  501    0  0.11424507531E+01  0.73427535286E+02  0.90057517702E+03  0.90357658645E+03  0.47000000000E+01 0. -1.
        -13    1    6    6    0    0  0.17983821833E+02  0.13412369669E+02  0.28528914749E+03  0.28616989216E+03  0.00000000000E+00 0.  1.
         14    1    6    6    0    0 -0.47422659828E+02 -0.59841710148E+02  0.11105918814E+04  0.11132134863E+04  0.00000000000E+00 0. -1.
         -5    1    3    3    0  503 -0.45084875646E+02  0.13375591581E+02  0.23145934111E+03  0.23623519858E+03  0.47000000000E+01 0.  1.
         13    1    4    4    0    0  0.32295075891E+02 -0.52867063801E+02  0.75441959816E+02  0.97618582568E+02  0.00000000000E+00 0. -1.
        -14    1    4    4    0    0  0.41086186997E+02  0.12493277412E+02  0.14453833297E+03  0.15078291163E+03  0.00000000000E+00 0.  1.
</event>
<event>
12    1  0.8451514E-002  0.1820265E+03  0.7818608E-02  0.1165962E+00
         21   -1    0    0  503  502  0.00000000000E+00  0.00000000000E+00  0.47846672312E+03  0.47846672312E+03  0.00000000000E+00 0. -1.
         21   -1    0    0  501  503 -0.00000000000E+00 -0.00000000000E+00 -0.97897930521E+02  0.97897930521E+02  0.00000000000E+00 0. -1.
          6    2    1    2  501    0  0.48026756151E+02  0.34881103865E+02  0.34095859740E+02  0.18519226901E+03  0.17207669260E+03 0.  0.
         24    2    3    3    0    0  0.98297954679E+02  0.17699729792E+02  0.21517290112E+02  0.13039533999E+03  0.81019643218E+02 0.  0.
         -6    2    1    2    0  502 -0.48026756151E+02 -0.34881103865E+02  0.34647293286E+03  0.39117238464E+03  0.17160734420E+03 0.  0.
        -24    2    5    5    0    0 -0.32217187058E+02  0.46241889412E+02  0.16229218278E+03  0.18924288899E+03  0.79359050912E+02 0.  0.
          5    1    3    3  501    0 -0.50271198528E+02  0.17181374073E+02  0.12578569628E+02  0.54796929023E+02  0.47000000000E+01 0. -1.
        -13    1    4    4    0    0  0.48135350232E+02 -0.32074265273E+02  0.71453099374E+01  0.58282294814E+02  0.00000000000E+00 0.  1.
         14    1    4    4    0    0  0.50162604448E+02  0.49773995065E+02  0.14371980174E+02  0.72113045171E+02  0.00000000000E+00 0. -1.
         -5    1    5    5    0  502 -0.15809569093E+02 -0.81122993277E+02  0.18418075008E+03  0.20192949565E+03  0.47000000000E+01 0.  1.
         11    1    6    6    0    0  0.47017317919E+01 -0.15874976936E+02  0.70516660101E+02  0.72434249677E+02  0.00000000000E+00 0. -1.
        -12    1    6    6    0    0 -0.36918918850E+02  0.62116866348E+02  0.91775522681E+02  0.11680863931E+03  0.00000000000E+00 0.  1.
</event>
<event>
12    1  0.8451514E-002  0.1919352E+03  0.7818608E-02  0.1156838E+00
         21   -1    0    0  503  502  0.00000000000E+00  0.00000000000E+00  0.60546267413E+03  0.60546267413E+03  0.00000000000E+00 0. -1.
         21   -1    0    0  501  503 -0.00000000000E+00 -0.00000000000E+00 -0.60687481563E+02  0.60687481563E+02  0.00000000000E+00 0. -1.
          6    2    1    2  501    0  0.84763273073E+02 -0.11597160809E+01  0.27382004643E+03  0.33438982453E+03  0.17220040511E+03 0.  0.
         24    2    3    3    0    0  0.29310794173E+02 -0.14402044593E+02  0.42261505319E+02  0.95869836603E+02  0.79614378066E+02 0.  0.
         -6    2    1    2    0  502 -0.84763273073E+02  0.11597160809E+01  0.27095514614E+03  0.33176033116E+03  0.17164518260E+03 0.  0.
        -24    2    5    5    0    0 -0.61660615365E+02 -0.66043971842E+02  0.15941442063E+03  0.19942178081E+03  0.78690860024E+02 0.  0.
          5    1    3    3  501    0  0.55452478900E+02  0.13242328512E+02  0.23155854111E+03  0.23851998793E+03  0.47000000000E+01 0. -1.
        -11    1    4    4    0    0 -0.47253940480E+01  0.27134477399E+02  0.14253666559E-01  0.27542865061E+02  0.00000000000E+00 0.  1.
         12    1    4    4    0    0  0.34036188221E+02 -0.41536521992E+02  0.42247251653E+02  0.68326971542E+02  0.00000000000E+00 0. -1.
         -5    1    5    5    0  502 -0.23102657708E+02  0.67203687923E+02  0.11154072551E+03  0.13233855035E+03  0.47000000000E+01 0.  1.
         13    1    6    6    0    0 -0.69235810687E+02 -0.78790026830E+02  0.14227932979E+03  0.17676219476E+03  0.00000000000E+00 0. -1.
        -14    1    6    6    0    0  0.75751953219E+01  0.12746054987E+02  0.17135090842E+02  0.22659586053E+02  0.00000000000E+00 0.  1.
</event>
<event>
12    1  0.8451514E-002  0.2083226E+03  0.7818608E-02  0.1143127E+00
         21   -1    0    0  501  502  0.00000000000E+00  0.00000000000E+00  0.13333836113E+03  0.13333836113E+03  0.00000000000E+00 0. -1.
         21   -1    0    0  502  503 -0.00000000000E+00 -0.00000000000E+00 -0.33530137757E+03  0.33530137757E+03  0.00000000000E+00 0.  1.
         -6    2    1    2    0  503 -0.17584316685E+02  0.11580066668E+03 -0.57174251420E+02  0.21494285514E+03  0.17091674392E+03 0.  0.
        -24    2    3    3    0    0 -0.76057705000E+02  0.57179631409E+02 -0.42626729454E+02  0.13074497326E+03  0.78885519779E+02 0.  0.
          6    2    1    2  501    0  0.17584316685E+02 -0.11580066668E+03 -0.14478876503E+03  0.25369688356E+03  0.17227686918E+03 0.  0.
         24    2    5    5    0    0 -0.36254679492E+02 -0.11688206149E+03 -0.69692957458E+02  0.16116971329E+03  0.78375698275E+02 0.  0.
          5    1    5    5  501    0  0.53838996176E+02  0.10813948055E+01 -0.75095807568E+02  0.92527170270E+02  0.47000000000E+01 0. -1.
        -13    1    6    6    0    0 -0.34907831312E+02 -0.85376194152E+01 -0.25920103708E+02  0.44309134593E+02  0.00000000000E+00 0.  1.
         14    1    6    6    0    0 -0.13468481793E+01 -0.10834444207E+03 -0.43772853751E+02  0.11686057870E+03  0.00000000000E+00 0. -1.
         -5    1    3    3    0  503  0.58473388315E+02  0.58621035270E+02 -0.14547521965E+02  0.84197881877E+02  0.47000000000E+01 0.  1.
         11    1    4    4    0    0 -0.50466145084E+02  0.67856342633E+02 -0.54472748863E+02  0.10059122926E+03  0.00000000000E+00 0. -1.
        -12    1    4    4    0    0 -0.25591559916E+02 -0.10676711223E+02  0.11846019409E+02  0.30153744001E+02  0.00000000000E+00 0.  1.
</event>
<event>
12    1  0.8451514E-002  0.1962159E+03  0.7818608E-02  0.1153639E+00
         21   -1    0    0  503  502  0.00000000000E+00  0.00000000000E+00  0.22287046865E+02  0.22287046865E+02  0.00000000000E+00 0. -1.
         21   -1    0    0  501  503 -0.00000000000E+00 -0.00000000000E+00 -0.26179487843E+04  0.26179487843E+04  0.00000000000E+00 0. -1.
          6    2    1    2  501    0 -0.86686495277E+02 -0.28585799643E+02 -0.50980459382E+03  0.54517002928E+03  0.17022908253E+03 0.  0.
         24    2    3    3    0    0 -0.41687864368E+01  0.69336150568E+01 -0.37083548695E+03  0.37962455590E+03  0.80810836284E+02 0.  0.
         -6    2    1    2    0  502  0.86686495277E+02  0.28585799643E+02 -0.20858571436E+04  0.20950658019E+04  0.17369224006E+03 0.  0.
        -24    2    5    5    0    0  0.11238182429E+03 -0.73737666508E+01 -0.18395188201E+04  0.18447500014E+04  0.81172848238E+02 0.  0.
          5    1    3    3  501    0 -0.82517708841E+02 -0.35519414700E+02 -0.13896910687E+03  0.16554547338E+03  0.47000000000E+01 0. -1.
        -13    1    4    4    0    0  0.10083812689E+02  0.82644633918E+01 -0.36313726067E+03  0.36337123541E+03  0.00000000000E+00 0.  1.
         14    1    4    4    0    0 -0.14252599125E+02 -0.13308483350E+01 -0.76982262782E+01  0.16253320490E+02  0.00000000000E+00 0. -1.
         -5    1    5    5    0  502 -0.25695329013E+02  0.35959566294E+02 -0.24633832345E+03  0.25031580043E+03  0.47000000000E+01 0.  1.
         11    1    6    6    0    0  0.96404847012E+02  0.22000438897E+02 -0.10869220703E+04  0.10914107846E+04  0.00000000000E+00 0. -1.
        -12    1    6    6    0    0  0.15976977279E+02 -0.29374205548E+02 -0.75259674979E+03  0.75333921679E+03  0.00000000000E+00 0.  1.
</event>
<event>
12    1  0.8451514E-002  0.2653904E+03  0.7818608E-02  0.1104031E+00
         21   -1    0    0  501  502  0.00000000000E+00  0.00000000000E+00  0.13815707553E+04  0.13815707553E+04  0.00000000000E+00 0. -1.
         21   -1    0    0  502  503 -0.00000000000E+00 -0.00000000000E+00 -0.80998213063E+02  0.80998213063E+02  0.00000000000E+00 0.  1.
         -6    2    1    2    0  503  0.17375100814E+03 -0.10402994167E+03  0.20384853804E+03  0.33419155697E+03  0.17064034896E+03 0.  0.
        -24    2    3    3    0    0  0.71181300271E+02 -0.11331685502E+03  0.15433821806E+03  0.21982305817E+03  0.81205937036E+02 0.  0.
          6    2    1    2  501    0 -0.17375100814E+03  0.10402994167E+03  0.10967240042E+04  0.11283774114E+04  0.17152375804E+03 0.  0.
         24    2    5    5    0    0 -0.70978068953E+02 -0.19563418065E+01  0.30959886478E+03  0.32751322540E+03  0.79823193314E+02 0.  0.
          5    1    5    5  501    0 -0.10277293919E+03  0.10598628348E+03  0.78712513940E+03  0.80086418598E+03  0.47000000000E+01 0. -1.
        -11    1    6    6    0    0 -0.80696833404E+01  0.31926657407E+02  0.13278588725E+03  0.13680834439E+03  0.00000000000E+00 0.  1.
         12    1    6    6    0    0 -0.62908385613E+02 -0.33882999213E+02  0.17681297754E+03  0.19070488101E+03  0.00000000000E+00 0. -1.
         -5    1    3    3    0  503  0.10256970787E+03  0.92869133458E+01  0.49510319980E+02  0.11436849880E+03  0.47000000000E+01 0.  1.
         13    1    4    4    0    0  0.72476957590E+01 -0.14211919139E+01  0.59146072278E+02  0.59605425476E+02  0.00000000000E+00 0. -1.
        -14    1    4    4    0    0  0.63933604512E+02 -0.11189566311E+03  0.95192145783E+02  0.16021763270E+03  0.00000000000E+00 0.  1.
</event>
<event>
12    1  0.8451514E-002  0.2094788E+03  0.7818608E-02  0.1142176E+00
         21   -1    0    0  503  502  0.00000000000E+00  0.00000000000E+00  0.13154759552E+03  0.13154759552E+03  0.00000000000E+00 0.  1.
         21   -1    0    0  501  503 -0.00000000000E+00 -0.00000000000E+00 -0.40530175633E+03  0.40530175633E+03  0.00000000000E+00 0. -1.
          6    2    1    2  501    0  0.77819893186E+02 -0.89695428671E+02 -0.25128877614E+03  0.32715045856E+03  0.17256931310E+03 0.  0.
         24    2    3    3    0    0  0.60227200120E+02  0.12233416360E+02 -0.17597435495E+03  0.19911396244E+03  0.70017314506E+02 0.  0.
         -6    2    1    2    0  502 -0.77819893186E+02  0.89695428671E+02 -0.22465384675E+02  0.20969889329E+03  0.17137014511E+03 0.  0.
        -24    2    5    5    0    0  0.30158043294E+02  0.37565593260E+02 -0.19380983592E+02  0.89664073185E+02  0.73098167711E+02 0.  0.
          5    1    3    3  501    0  0.17592693066E+02 -0.10192884503E+03 -0.75314421191E+02  0.12803649612E+03  0.47000000000E+01 0. -1.
        -11    1    4    4    0    0  0.38890340200E+02  0.14284206667E+02 -0.17249190460E+03  0.17739772906E+03  0.00000000000E+00 0.  1.
         12    1    4    4    0    0  0.21336859920E+02 -0.20507903066E+01 -0.34824503452E+01  0.21716233387E+02  0.00000000000E+00 0. -1.
         -5    1    5    5    0  502 -0.10797793648E+03  0.52129835410E+02 -0.30844010834E+01  0.12003482010E+03  0.47000000000E+01 0.  1.
         13    1    6    6    0    0  0.75861772273E+01 -0.13474070330E+02  0.17050110607E+02  0.23017535227E+02  0.00000000000E+00 0. -1.
        -14    1    6    6    0    0  0.22571866067E+02  0.51039663591E+02 -0.36431094199E+02  0.66646537958E+02  0.00000000000E+00 0.  1.
</event>
<event>
12    1  0.8451514E-002  0.2696630E+03  0.7818608E-02  0.1101515E+00
         21   -1    0    0  503  502  0.00000000000E+00  0.00000000000E+00  0.59954136051E+03  0.59954136051E+03  0.00000000000E+00 0. -1.
         21   -1    0    0  501  503 -0.00000000000E+00 -0.00000000000E+00 -0.12987002270E+03  0.12987002270E+03  0.00000000000E+00 0.  1.
          6    2    1    2  501    0  0.18166631126E+03 -0.99068456707E+02  0.32942070945E+03  0.42571837540E+03  0.17291883523E+03 0.  0.
         24    2    3    3    0    0  0.16249238457E+03 -0.13452649995E+03  0.30012586088E+03  0.37566649783E+03  0.80923612102E+02 0.  0.
         -6    2    1    2    0  502 -0.18166631126E+03  0.99068456707E+02  0.14025062835E+03  0.30369300781E+03  0.17245868048E+03 0.  0.
        -24    2    5    5    0    0 -0.19020276291E+03  0.11299720256E+03  0.15450447981E+03  0.28150870595E+03  0.80187645180E+02 0.  0.
          5    1    3    3  501    0  0.19173926700E+02  0.35458043240E+02  0.29294848570E+02  0.50051877570E+02  0.47000000000E+01 0. -1.
        -11    1    4    4    0    0  0.29409181670E+02 -0.70705401073E+02  0.12553645070E+03  0.14704949562E+03  0.00000000000E+00 0.  1.
         12    1    4    4    0    0  0.13308320290E+03 -0.63821098874E+02  0.17458941017E+03  0.22861700221E+03  0.00000000000E+00 0. -1.
         -5    1    5    5    0  502  0.85364516416E+01 -0.13928745849E+02 -0.14253851458E+02  0.22184301858E+02  0.47000000000E+01 0.  1.
         11    1    6    6    0    0 -0.14230976067E+03  0.47678062294E+02  0.12495101302E+03  0.19528958309E+03  0.00000000000E+00 0. -1.
        -12    1    6    6    0    0 -0.47893002233E+02  0.65319140262E+02  0.29553466789E+02  0.86219122860E+02  0.00000000000E+00 0.  1.
</event>
<event>
12    1  0.8451514E-002  0.1722258E+03  0.7818608E-02  0.1176005E+00
         21   -1    0    0  503  502  0.00000000000E+00  0.00000000000E+00  0.30717189278E+03  0.30717189278E+03  0.00000000000E+00 0.  1.
         21   -1    0    0  501  503 -0.00000000000E+00 -0.00000000000E+00 -0.95940189182E+02  0.95940189182E+02  0.00000000000E+00 0.  1.
          6    2    1    2  501    0  0.25238166961E+02  0.18558142563E+02  0.11761266933E+03  0.20708597658E+03  0.16754250798E+03 0.  0.
         24    2    3    3    0    0  0.52844354760E+02 -0.36476110265E+02  0.96216104272E+02  0.14173482061E+03  0.81903529859E+02 0.  0.
         -6    2    1    2    0  502 -0.25238166961E+02 -0.18558142563E+02  0.93619034265E+02  0.19602610539E+03  0.16935271090E+03 0.  0.
        -24    2    5    5    0    0 -0.79714813248E+02 -0.20196548320E+02  0.45319198187E+02  0.12305108549E+03  0.79532307269E+02 0.  0.
          5    1    3    3  501    0 -0.27606187799E+02  0.55034252827E+02  0.21396565059E+02  0.65351155961E+02  0.47000000000E+01 0. -1.
        -11    1    4    4    0    0  0.15635459983E+02  0.11770013711E+02 -0.78975157567E+01  0.21103828723E+02  0.00000000000E+00 0.  1.
         12    1    4    4    0    0  0.37208894777E+02 -0.48246123976E+02  0.10411362003E+03  0.12063099189E+03  0.00000000000E+00 0. -1.
         -5    1    5    5    0  502  0.54476646287E+02  0.16384057569E+01  0.48299836078E+02  0.72975019900E+02  0.47000000000E+01 0.  1.
         11    1    6    6    0    0 -0.22758007195E+02 -0.45751467439E+02  0.12873278041E+02  0.52695777362E+02  0.00000000000E+00 0. -1.
        -12    1    6    6    0    0 -0.56956806053E+02  0.25554919119E+02  0.32445920146E+02  0.70355308123E+02  0.00000000000E+00 0.  1.
</event>
<event>
12    1  0.8451514E-002  0.2743174E+03  0.7818608E-02  0.1098951E+00
         21   -1    0    0  501  502  0.00000000000E+00  0.00000000000E+00  0.25793585601E+03  0.25793585601E+03  0.00000000000E+00 0.  1.
         21   -1    0    0  502  503 -0.00000000000E+00 -0.00000000000E+00 -0.48194217486E+03  0.48194217486E+03  0.00000000000E+00 0. -1.
         -6    2    1    2    0  503  0.33924290207E+02 -0.21076603008E+03 -0.34505259098E+03  0.44080761241E+03  0.17226979918E+03 0.  0.
        -24    2    3    3    0    0 -0.15261448029E+02 -0.66907209175E+02 -0.22331291216E+03  0.24598144220E+03  0.76998225519E+02 0.  0.
          6    2    1    2  501    0 -0.33924290207E+02  0.21076603008E+03  0.12104627214E+03  0.29907041847E+03  0.17093196981E+03 0.  0.
         24    2    5    5    0    0 -0.39067209584E+02  0.17158189194E+03  0.15426722305E+03  0.24722866038E+03  0.79731059827E+02 0.  0.
          5    1    5    5  501    0  0.51429193774E+01  0.39184138142E+02 -0.33220950918E+02  0.51841758087E+02  0.47000000000E+01 0. -1.
        -11    1    6    6    0    0  0.67351373547E+01  0.40973399295E+02  0.21650400361E+01  0.41579669591E+02  0.00000000000E+00 0.  1.
         12    1    6    6    0    0 -0.45802346939E+02  0.13060849264E+03  0.15210218302E+03  0.20564899079E+03  0.00000000000E+00 0. -1.
         -5    1    3    3    0  503  0.49185738236E+02 -0.14385882090E+03 -0.12173967883E+03  0.19482617021E+03  0.47000000000E+01 0.  1.
         11    1    4    4    0    0 -0.17997113865E+02 -0.55646141750E+02 -0.65765772901E+02  0.88008670507E+02  0.00000000000E+00 0. -1.
        -12    1    4    4    0    0  0.27356658360E+01 -0.11261067425E+02 -0.15754713926E+03  0.15797277169E+03  0.00000000000E+00 0.  1.
</event>
<event>
12    1  0.8451514E-002  0.2084360E+03  0.7818608E-02  0.1142957E+00
         21   -1    0    0  501  502  0.00000000000E+00  0.00000000000E+00  0.11466549827E+03  0.11466549827E+03  0.00000000000E+00 0.  1.
         21   -1    0    0  502  503 -0.00000000000E+00 -0.00000000000E+00 -0.37803866121E+03  0.37803866121E+03  0.00000000000E+00 0. -1.
         -6    2    1    2    0  503 -0.70558372476E+01  0.11566013586E+03 -0.14064322316E+03  0.25144800491E+03  0.17325856713E+03 0.  0.
        -24    2    3    3    0    0  0.93068235244E+01 -0.73143684890E+01 -0.68776988369E+02  0.10800006630E+03  0.82423438662E+02 0.  0.
          6    2    1    2  501    0  0.70558372476E+01 -0.11566013586E+03 -0.12272993978E+03  0.24125615457E+03  0.17237993541E+03 0.  0.
         24    2    5    5    0    0  0.58800343122E+02 -0.23052899380E+02 -0.83024784586E+02  0.12788868355E+03  0.73982998069E+02 0.  0.
          5    1    5    5  501    0 -0.51744505874E+02 -0.92607236480E+02 -0.39705155190E+02  0.11336747102E+03  0.47000000000E+01 0. -1.
        -11    1    6    6    0    0  0.65974527978E+02 -0.40730955302E+02 -0.60337800718E+02  0.98246115736E+02  0.00000000000E+00 0.  1.
         12    1    6    6    0    0 -0.71741848560E+01  0.17678055922E+02 -0.22686983867E+02  0.29642567813E+02  0.00000000000E+00 0. -1.
         -5    1    3    3    0  503 -0.16362660772E+02  0.12297450435E+03 -0.71866234793E+02  0.14344793861E+03  0.47000000000E+01 0.  1.
         13    1    4    4    0    0  0.15053896197E+02  0.35631821668E+02 -0.41837230612E+02  0.56978946737E+02  0.00000000000E+00 0. -1.
        -14    1    4    4    0    0 -0.57470726723E+01 -0.42946190157E+02 -0.26939757757E+02  0.51021119561E+02  0.00000000000E+00 0.  1.
</event>
<event>
12    1  0.8451514E-002  0.1955909E+03  0.7818608E-02  0.1154304E+00
         21   -1    0    0  501  502  0.00000000000E+00  0.00000000000E+00  0.62615156652E+03  0.62615156652E+03  0.00000000000E+00 0.  1.
         21   -1    0    0  502  503 -0.00000000000E+00 -0.00000000000E+00 -0.83295001844E+02  0.83295001844E+02  0.00000000000E+00 0.  1.
         -6    2    1    2    0  503 -0.82657816113E+02  0.44801598185E+02  0.85562828036E+02  0.21348721083E+03  0.17151178934E+03 0.  0.
        -24    2    3    3    0    0  0.50410840836E+01  0.23484703382E+02  0.90696356902E+02  0.12296676995E+03  0.79486184547E+02 0.  0.
          6    2    1    2  501    0  0.82657816113E+02 -0.44801598185E+02  0.45729373664E+03  0.49595935753E+03  0.16738764885E+03 0.  0.
         24    2    5    5    0    0  0.56650686161E+02  0.25346362583E+02  0.14919749261E+03  0.17887499526E+03  0.76711366766E+02 0.  0.
          5    1    5    5  501    0  0.26007129952E+02 -0.70147960769E+02  0.30809624404E+03  0.31708436227E+03  0.47000000000E+01 0. -1.
        -11    1    6    6    0    0 -0.47829999439E+01 -0.10859665494E+02  0.75124206427E+02  0.76055610012E+02  0.00000000000E+00 0.  1.
         12    1    6    6    0    0  0.61433686105E+02  0.36206028077E+02  0.74073286179E+02  0.10281938525E+03  0.00000000000E+00 0. -1.
         -5    1    3    3    0  503 -0.87698900196E+02  0.21316894803E+02 -0.51335288664E+01  0.90520440887E+02  0.47000000000E+01 0.  1.
         13    1    4    4    0    0 -0.15671756926E+02 -0.23851998418E+02  0.48421287807E+02  0.56206253269E+02  0.00000000000E+00 0. -1.
        -14    1    4    4    0    0  0.20712841009E+02  0.47336701800E+02  0.42275069095E+02  0.66760516677E+02  0.00000000000E+00 0.  1.
</event>
<event>
12    1  0.8451514E-002  0.1740810E+03  0.7818608E-02  0.1173844E+00
         21   -1    0    0  501  502  0.00000000000E+00  0.00000000000E+00  0.76291361150E+02  0.76291361150E+02  0.00000000000E+00 0. -1.
         21   -1    0    0  502  503 -0.00000000000E+00 -0.00000000000E+00 -0.48129040606E+03  0.48129040606E+03  0.00000000000E+00 0. -1.
         -6    2    1    2    0  503  0.16329233737E+02 -0.20230059840E+02 -0.31982429117E+03  0.36378053095E+03  0.17138494181E+03 0.  0.
        -24    2    3    3    0    0  0.54141863273E+02 -0.31576253302E+02 -0.30479780894E+03  0.32127857539E+03  0.79936334254E+02 0.  0.
          6    2    1    2  501    0 -0.16329233737E+02  0.20230059840E+02 -0.85174753744E+02  0.19380123626E+03  0.17212867659E+03 0.  0.
         24    2    5    5    0    0 -0.62278507243E+02 -0.33975556853E+02 -0.47027237157E+02  0.11301195703E+03  0.74345076969E+02 0.  0.
          5    1    5    5  501    0  0.45949273507E+02  0.54205616693E+02 -0.38147516587E+02  0.80789279231E+02  0.47000000000E+01 0. -1.
        -11    1    6    6    0    0 -0.36571162034E+02 -0.51200924486E+02 -0.83393035301E+01  0.63470690434E+02  0.00000000000E+00 0.  1.
         12    1    6    6    0    0 -0.25707345209E+02  0.17225367633E+02 -0.38687933626E+02  0.49541266597E+02  0.00000000000E+00 0. -1.
         -5    1    3    3    0  503 -0.37812629537E+02  0.11346193462E+02 -0.15026482223E+02  0.42501955561E+02  0.47000000000E+01 0.  1.
         13    1    4    4    0    0  0.16541781764E+01 -0.45673426193E+02 -0.16727670481E+03  0.17340788373E+03  0.00000000000E+00 0. -1.
        -14    1    4    4    0    0  0.52487685097E+02  0.14097172891E+02 -0.13752110413E+03  0.14787069166E+03  0.00000000000E+00 0.  1.
</event>
<event>
12    1  0.8451514E-002  0.1777251E+03  0.7818608E-02  0.1170123E+00
         21   -1    0    0  503  502  0.00000000000E+00  0.00000000000E+00  0.19256279340E+03  0.19256279340E+03  0.00000000000E+00 0. -1.
         21   -1    0    0  501  503 -0.00000000000E+00 -0.00000000000E+00 -0.36246690746E+03  0.36246690746E+03  0.00000000000E+00 0. -1.
          6    2    1    2  501    0  0.44817838562E+02  0.56322629794E+01 -0.29043606490E+03  0.34028763685E+03  0.17147071748E+03 0.  0.
         24    2    3    3    0    0  0.54024443187E+02  0.45307342457E+02 -0.15219211200E+03  0.19609209595E+03  0.10157891216E+03 0.  0.
         -6    2    1    2    0  502 -0.44817838562E+02 -0.56322629794E+01  0.12053195083E+03  0.21474206402E+03  0.17188903934E+03 0.  0.
        -24    2    5    5    0    0 -0.26501177829E+02 -0.61899627748E+02  0.11207945441E+03  0.15478331908E+03  0.82838369263E+02 0.  0.
          5    1    3    3  501    0 -0.92066046254E+01 -0.39675079477E+02 -0.13824395290E+03  0.14419554090E+03  0.47000000000E+01 0. -1.
        -13    1    4    4    0    0 -0.19009608670E+02 -0.24369109161E+01  0.16416353322E+01  0.19235350872E+02  0.00000000000E+00 0.  1.
         14    1    4    4    0    0  0.73034051857E+02  0.47744253373E+02 -0.15383374733E+03  0.17685674508E+03  0.00000000000E+00 0. -1.
         -5    1    5    5    0  502 -0.18316660733E+02  0.56267364768E+02  0.84524964202E+01  0.59958744934E+02  0.47000000000E+01 0.  1.
         13    1    6    6    0    0 -0.46328911931E+01 -0.83303517584E+01  0.93540526604E+02  0.94024935834E+02  0.00000000000E+00 0. -1.
        -14    1    6    6    0    0 -0.21868286636E+02 -0.53569275989E+02  0.18538927811E+02  0.60758383247E+02  0.00000000000E+00 0.  1.
</event>
<event>
12    1  0.8451514E-002  0.1742006E+03  0.7818608E-02  0.1173625E+00
         21   -1    0    0  503  502  0.00000000000E+00  0.00000000000E+00  0.25072439641E+03  0.25072439641E+03  0.00000000000E+00 0.  1.
         21   -1    0    0  501  503 -0.00000000000E+00 -0.00000000000E+00 -0.12890786599E+03  0.12890786599E+03  0.00000000000E+00 0.  1.
          6    2    1    2  501    0  0.50457281669E+01  0.69592394950E+00  0.13334688114E+02  0.17471018554E+03  0.17412607887E+03 0.  0.
         24    2    3    3    0    0  0.58530373942E+02 -0.42729466548E+02  0.71490609718E+01  0.10537964497E+03  0.76171835447E+02 0.  0.
         -6    2    1    2    0  502 -0.50457281669E+01 -0.69592394950E+00  0.10848184230E+03  0.20492207686E+03  0.17377803024E+03 0.  0.
        -24    2    5    5    0    0 -0.11870797254E+02 -0.56139471107E+02  0.11079775657E+03  0.14881484071E+03  0.81099678857E+02 0.  0.
          5    1    3    3  501    0 -0.53484645775E+02  0.43425390498E+02  0.61856271422E+01  0.69330540577E+02  0.47000000000E+01 0. -1.
        -13    1    4    4    0    0  0.83638555453E+01 -0.49947898973E+02 -0.10483227460E+02  0.51716967713E+02  0.00000000000E+00 0.  1.
         14    1    4    4    0    0  0.50166518397E+02  0.72184324253E+01  0.17632288432E+02  0.53662677254E+02  0.00000000000E+00 0. -1.
         -5    1    5    5    0  502  0.68250690870E+01  0.55443547158E+02 -0.23159142705E+01  0.56107236150E+02  0.47000000000E+01 0.  1.
         13    1    6    6    0    0 -0.17926978286E+02 -0.59272836493E+02  0.31965353343E+02  0.69688087294E+02  0.00000000000E+00 0. -1.
        -14    1    6    6    0    0  0.60561810318E+01  0.31333653864E+01  0.78832403228E+02  0.79126753415E+02  0.00000000000E+00 0.  1.
</event>
<event>
12    1  0.8451514E-002  0.2853578E+03  0.7818608E-02  0.1092800E+00
         21   -1    0    0  503  502  0.00000000000E+00  0.00000000000E+00  0.33224310914E+03  0.33224310914E+03  0.00000000000E+00 0. -1.
         21   -1    0    0  501  503 -0.00000000000E+00 -0.00000000000E+00 -0.24559918578E+03  0.24559918578E+03  0.00000000000E+00 0.  1.
          6    2    1    2  501    0 -0.20658113396E+02  0.22715202291E+03  0.29975171781E+02  0.28692781612E+03  0.17147670857E+03 0.  0.
         24    2    3    3    0    0  0.28123343372E+02  0.21152871966E+03  0.26438600960E+01  0.22867999447E+03  0.82171942836E+02 0.  0.
         -6    2    1    2    0  502  0.20658113396E+02 -0.22715202291E+03  0.56668751586E+02  0.29091447880E+03  0.17144995598E+03 0.  0.
        -24    2    5    5    0    0  0.36683923924E+02 -0.20011763590E+03 -0.81209180926E+01  0.21875163530E+03  0.79959678366E+02 0.  0.
          5    1    3    3  501    0 -0.48781456769E+02  0.15623303244E+02  0.27331311685E+02  0.58247821652E+02  0.47000000000E+01 0. -1.
        -13    1    4    4    0    0 -0.51693258718E+01 -0.53797763293E+01 -0.51951665783E+01  0.90914068823E+01  0.00000000000E+00 0.  1.
         14    1    4    4    0    0  0.33292669244E+02  0.21690849599E+03  0.78390266743E+01  0.21958858759E+03  0.00000000000E+00 0. -1.
         -5    1    5    5    0  502 -0.16025810528E+02 -0.27034387008E+02  0.64789669679E+02  0.72162843493E+02  0.47000000000E+01 0.  1.
         13    1    6    6    0    0 -0.21021602166E+02 -0.18499074848E+02  0.23086836892E+00  0.28003157466E+02  0.00000000000E+00 0. -1.
        -14    1    6    6    0    0  0.57705526090E+02 -0.18161856105E+03 -0.83517864616E+01  0.19074847784E+03  0.00000000000E+00 0.  1.
</event>
<event>
12    1  0.8451514E-002  0.1922054E+03  0.7818608E-02  0.1156766E+00
         21   -1    0    0  501  502  0.00000000000E+00  0.00000000000E+00  0.29782704705E+03  0.29782704705E+03  0.00000000000E+00 0. -1.
         21   -1    0    0  502  503 -0.00000000000E+00 -0.00000000000E+00 -0.23446361563E+03  0.23446361563E+03  0.00000000000E+00 0. -1.
         -6    2    1    2    0  503  0.51049346386E+02 -0.66948882593E+02 -0.15157461918E+03  0.24478107344E+03  0.17278518480E+03 0.  0.
        -24    2    3    3    0    0  0.35245003553E+02  0.59820394497E+00 -0.94329413030E+01  0.86544754152E+02  0.78475766744E+02 0.  0.
          6    2    1    2  501    0 -0.51049346386E+02  0.66948882593E+02  0.21493805059E+03  0.28750958924E+03  0.17139197667E+03 0.  0.
         24    2    5    5    0    0 -0.39070855847E+02  0.51036202050E+02  0.38618289896E+02  0.11000622124E+03  0.80490811287E+02 0.  0.
          5    1    5    5  501    0 -0.11978490539E+02  0.15912680543E+02  0.17631976070E+03  0.17750336800E+03  0.47000000000E+01 0. -1.
        -11    1    6    6    0    0  0.18236752310E+02 -0.44297873430E+01  0.21310628628E+02  0.28396215298E+02  0.00000000000E+00 0.  1.
         12    1    6    6    0    0 -0.57307608157E+02  0.55465989393E+02  0.17307661267E+02  0.81610005946E+02  0.00000000000E+00 0. -1.
         -5    1    3    3    0  503  0.15804342832E+02 -0.67547086538E+02 -0.14214167788E+03  0.15823631929E+03  0.47000000000E+01 0.  1.
         11    1    4    4    0    0  0.75031893795E+01  0.14286776164E+02 -0.39952670225E+02  0.43088579486E+02  0.00000000000E+00 0. -1.
        -12    1    4    4    0    0  0.27741814174E+02 -0.13688572219E+02  0.30519728922E+02  0.43456174665E+02  0.00000000000E+00 0.  1.
</event>
<event>
12    1  0.8451514E-002  0.1768807E+03  0.7818608E-02  0.1171103E+00
         21   -1    0    0  501  502  0.00000000000E+00  0.00000000000E+00  0.56889368122E+03  0.56889368122E+03  0.00000000000E+00 0. -1.
         21   -1    0    0  502  503 -0.00000000000E+00 -0.00000000000E+00 -0.30061736976E+03  0.30061736976E+03  0.00000000000E+00 0.  1.
         -6    2    1    2    0  503 -0.36121225349E+02  0.81625471411E+00 -0.25915783815E+03  0.31320758125E+03  0.17213597731E+03 0.  0.
        -24    2    3    3    0    0  0.31280345198E+02  0.43725013897E+02 -0.14106817036E+03  0.17054927281E+03  0.79350418599E+02 0.  0.
          6    2    1    2  501    0  0.36121225349E+02 -0.81625471411E+00  0.52743414962E+03  0.55630346974E+03  0.17315126065E+03 0.  0.
         24    2    5    5    0    0 -0.26497458531E+02  0.56223752701E+01  0.43771776094E+03  0.44660535706E+03  0.84414337072E+02 0.  0.
          5    1    5    5  501    0  0.62618683880E+02 -0.64386299842E+01  0.89716388681E+02  0.10969811268E+03  0.47000000000E+01 0. -1.
        -13    1    6    6    0    0  0.81270445440E+01 -0.66486962869E+01  0.38477171556E+01  0.11182975572E+02  0.00000000000E+00 0.  1.
         14    1    6    6    0    0 -0.34624503075E+02  0.12271071557E+02  0.43387004378E+03  0.43542238149E+03  0.00000000000E+00 0. -1.
         -5    1    3    3    0  503 -0.67401570547E+02 -0.42908759182E+02 -0.11808966780E+03  0.14265830844E+03  0.47000000000E+01 0.  1.
         13    1    4    4    0    0  0.31705231578E+02 -0.35898902470E+01 -0.13789641432E+02  0.34760081016E+02  0.00000000000E+00 0. -1.
        -14    1    4    4    0    0 -0.42488638043E+00  0.47314904144E+02 -0.12727852892E+03  0.13578919179E+03  0.00000000000E+00 0.  1.
</event>
<event>
12    1  0.8451514E-002  0.2326719E+03  0.7818608E-02  0.1124938E+00
         21   -1    0    0  503  502  0.00000000000E+00  0.00000000000E+00  0.75555065967E+02  0.75555065967E+02  0.00000000000E+00 0.  1.
         21   -1    0    0  501  503 -0.00000000000E+00 -0.00000000000E+00 -0.76642220356E+03  0.76642220356E+03  0.00000000000E+00 0.  1.
          6    2    1    2  501    0 -0.14053351466E+03 -0.66974264982E+02 -0.23425817405E+03  0.32950487141E+03  0.17164308102E+03 0.  0.
         24    2    3    3    0    0 -0.14961052997E+03 -0.84806631678E+02 -0.24268468835E+03  0.30729042449E+03  0.77175589224E+02 0.  0.
         -6    2    1    2    0  502  0.14053351466E+03  0.66974264982E+02 -0.45660896354E+03  0.51247239811E+03  0.17291903403E+03 0.  0.
        -24    2    5    5    0    0  0.68742369856E+00  0.37673702373E+02 -0.19984780705E+03  0.21859515570E+03  0.80155571925E+02 0.  0.
          5    1    3    3  501    0  0.90770153083E+01  0.17832366696E+02  0.84265142932E+01  0.22214446922E+02  0.47000000000E+01 0. -1.
        -13    1    4    4    0    0 -0.98918098349E+02 -0.92767279985E+02 -0.15744025049E+03  0.20779314448E+03  0.00000000000E+00 0.  1.
         14    1    4    4    0    0 -0.50692431620E+02  0.79606483071E+01 -0.85244437856E+02  0.99497280016E+02  0.00000000000E+00 0. -1.
         -5    1    5    5    0  502  0.13984609096E+03  0.29300562609E+02 -0.25676115649E+03  0.29387724241E+03  0.47000000000E+01 0.  1.
         11    1    6    6    0    0 -0.40051197032E+01  0.43528479490E+02 -0.20492519534E+03  0.20953545093E+03  0.00000000000E+00 0. -1.
        -12    1    6    6    0    0  0.46925434017E+01 -0.58547771169E+01  0.50773882908E+01  0.90597047701E+01  0.00000000000E+00 0.  1.
</event>
<event>
12    1  0.8451514E-002  0.1968523E+03  0.7818608E-02  0.1154032E+00
         21   -1    0    0  503  502  0.00000000000E+00  0.00000000000E+00  0.38641234468E+03  0.38641234468E+03  0.00000000000E+00 0. -1.
         21   -1    0    0  501  503 -0.00000000000E+00 -0.00000000000E+00 -0.11536236730E+03  0.11536236730E+03  0.00000000000E+00 0. -1.
          6    2    1    2  501    0  0.46027692459E+02 -0.61969471617E+02  0.23457337228E+03  0.30157139359E+03  0.17309498712E+03 0.  0.
         24    2    3    3    0    0 -0.35719968172E+02 -0.28234171693E+02  0.16409989933E+03  0.18839299076E+03  0.80560892668E+02 0.  0.
         -6    2    1    2    0  502 -0.46027692459E+02  0.61969471617E+02  0.36476605104E+02  0.20020331839E+03  0.18108578655E+03 0.  0.
        -24    2    5    5    0    0 -0.67174697434E+02  0.49047703878E+01 -0.29385491384E+02  0.11040642702E+03  0.82398879097E+02 0.  0.
          5    1    3    3  501    0  0.81747660631E+02 -0.33735299923E+02  0.70473472944E+02  0.11317840284E+03  0.47000000000E+01 0. -1.
        -13    1    4    4    0    0  0.87191542415E+01 -0.24782783598E+02  0.12903017096E+03  0.13167761780E+03  0.00000000000E+00 0.  1.
         14    1    4    4    0    0 -0.44439122414E+02 -0.34513880949E+01  0.35069728377E+02  0.56715372952E+02  0.00000000000E+00 0. -1.
         -5    1    5    5    0  502  0.21147004975E+02  0.57064701229E+02  0.65862096488E+02  0.89796891369E+02  0.47000000000E+01 0.  1.
         11    1    6    6    0    0 -0.12605239413E+02  0.12137499941E+02  0.26633731393E+02  0.31867955903E+02  0.00000000000E+00 0. -1.
        -12    1    6    6    0    0 -0.54569458021E+02 -0.72327295537E+01 -0.56019222777E+02  0.78538471121E+02  0.00000000000E+00 0.  1.
</event>
<event>
12    1  0.8451514E-002  0.2798544E+03  0.7818608E-02  0.1095929E+00
         21   -1    0    0  501  502  0.00000000000E+00  0.00000000000E+00  0.42513703670E+03  0.42513703670E+03  0.00000000000E+00 0.  1.
         21   -1    0    0  502  503 -0.00000000000E+00 -0.00000000000E+00 -0.18357518344E+03  0.18357518344E+03  0.00000000000E+00 0. -1.
         -6    2    1    2    0  503  0.21747122771E+02  0.21918813793E+03  0.11309964674E+03  0.30184436487E+03  0.17263288607E+03 0.  0.
        -24    2    3    3    0    0 -0.41016953205E+02  0.15455976581E+03  0.11354284640E+03  0.21163105021E+03  0.79527427891E+02 0.  0.
          6    2    1    2  501    0 -0.21747122771E+02 -0.21918813793E+03  0.12846220652E+03  0.30686785527E+03  0.17073067954E+03 0.  0.
         24    2    5    5    0    0 -0.42964461948E+02 -0.13736225356E+03  0.14654026359E+03  0.22029674588E+03  0.79638393360E+02 0.  0.
          5    1    5    5  501    0  0.21217339177E+02 -0.81825884361E+02 -0.18078057069E+02  0.86571109388E+02  0.47000000000E+01 0. -1.
        -13    1    6    6    0    0 -0.66212716792E+02 -0.91979480319E+02  0.96446660092E+02  0.14881635296E+03  0.00000000000E+00 0.  1.
         14    1    6    6    0    0  0.23248254844E+02 -0.45382773246E+02  0.50093603499E+02  0.71480392922E+02  0.00000000000E+00 0. -1.
         -5    1    3    3    0  503  0.62764075977E+02  0.64628372115E+02 -0.44319966446E+00  0.90213314657E+02  0.47000000000E+01 0.  1.
         11    1    4    4    0    0 -0.22099778277E+02  0.10582999176E+02 -0.39732662729E+01  0.24823112543E+02  0.00000000000E+00 0. -1.
        -12    1    4    4    0    0 -0.18917174928E+02  0.14397676663E+03  0.11751611267E+03  0.18680793767E+03  0.00000000000E+00 0.  1.
</event>
<event>
12    1  0.8451514E-002  0.2946976E+03  0.7818608E-02  0.1087925E+00
         21   -1    0    0  501  502  0.00000000000E+00  0.00000000000E+00  0.14991282849E+03  0.14991282849E+03  0.00000000000E+00 0. -1.
         21   -1    0    0  502  503 -0.00000000000E+00 -0.00000000000E+00 -0.58062885260E+03  0.58062885260E+03  0.00000000000E+00 0.  1.
         -6    2    1    2    0  503  0.78112180826E+02  0.22613082859E+03 -0.23306642716E+03  0.37570078894E+03  0.17203040113E+03 0.  0.
        -24    2    3    3    0    0  0.22127873874E+02  0.10598331942E+03 -0.38272083818E+02  0.14003875810E+03  0.80149825779E+02 0.  0.
          6    2    1    2  501    0 -0.78112180826E+02 -0.22613082859E+03 -0.19764959696E+03  0.35484089214E+03  0.17207565524E+03 0.  0.
         24    2    5    5    0    0  0.33282003941E+01 -0.36624647574E+02 -0.71312291458E+02  0.11291459531E+03  0.79446970956E+02 0.  0.
          5    1    5    5  501    0 -0.81440381220E+02 -0.18950618102E+03 -0.12633730550E+03  0.24192629683E+03  0.47000000000E+01 0. -1.
        -13    1    6    6    0    0  0.10635052131E+02 -0.42444392101E+02 -0.28837671346E+01  0.43851418079E+02  0.00000000000E+00 0.  1.
         14    1    6    6    0    0 -0.73068517370E+01  0.58197445270E+01 -0.68428524323E+02  0.69063177235E+02  0.00000000000E+00 0. -1.
         -5    1    3    3    0  503  0.55984306952E+02  0.12014750917E+03 -0.19479434334E+03  0.23566203085E+03  0.47000000000E+01 0.  1.
         11    1    4    4    0    0 -0.22362185535E+02  0.35280307848E+01 -0.10413800367E+02  0.24919100730E+02  0.00000000000E+00 0. -1.
        -12    1    4    4    0    0  0.44490059409E+02  0.10245528864E+03 -0.27858283452E+02  0.11511965737E+03  0.00000000000E+00 0.  1.
</event>
<event>
12    1  0.8451514E-002  0.1885363E+03  0.7818608E-02  0.1159882E+00
         21   -1    0    0  501  502  0.00000000000E+00  0.00000000000E+00  0.37749733776E+02  0.37749733776E+02  0.00000000000E+00 0. -1.
         21   -1    0    0  502  503 -0.00000000000E+00 -0.00000000000E+00 -0.19366650253E+04  0.19366650253E+04  0.00000000000E+00 0. -1.
         -6    2    1    2    0  503  0.45879725178E+02  0.58205093691E+02 -0.16573066955E+04  0.16679500200E+04  0.17291328530E+03 0.  0.
        -24    2    3    3    0    0  0.71172080200E+02  0.69147550190E+02 -0.77791513296E+03  0.78811421099E+03  0.78263700342E+02 0.  0.
          6    2    1    2  501    0 -0.45879725178E+02 -0.58205093691E+02 -0.24160859598E+03  0.30646473901E+03  0.17335841626E+03 0.  0.
         24    2    5    5    0    0 -0.55378758737E+02 -0.75586571684E+02 -0.25450694885E+03  0.28236484435E+03  0.78587413567E+02 0.  0.
          5    1    5    5  501    0  0.94990335583E+01  0.17381477993E+02  0.12898352873E+02  0.24099894660E+02  0.47000000000E+01 0. -1.
        -11    1    6    6    0    0 -0.30141954416E+01  0.11391687755E+02 -0.76824091374E+02  0.77722563902E+02  0.00000000000E+00 0.  1.
         12    1    6    6    0    0 -0.52364563295E+02 -0.86978259440E+02 -0.17768285748E+03  0.20464228044E+03  0.00000000000E+00 0. -1.
         -5    1    3    3    0  503 -0.25292355021E+02 -0.10942456499E+02 -0.87939156257E+03  0.87983580905E+03  0.47000000000E+01 0.  1.
         13    1    4    4    0    0 -0.20755347594E+01 -0.11595160012E+02 -0.17691697544E+03  0.17730869065E+03  0.00000000000E+00 0. -1.
        -14    1    4    4    0    0  0.73247614959E+02  0.80742710202E+02 -0.60099815751E+03  0.61080552034E+03  0.00000000000E+00 0.  1.
</event>
<event>
12    1  0.8451514E-002  0.1855177E+03  0.7818608E-02  0.1162868E+00
         21   -1    0    0  501  502  0.00000000000E+00  0.00000000000E+00  0.24775788329E+02  0.24775788329E+02  0.00000000000E+00 0. -1.
         21   -1    0    0  502  503 -0.00000000000E+00 -0.00000000000E+00 -0.14302663258E+04  0.14302663258E+04  0.00000000000E+00 0. -1.
         -6    2    1    2    0  503 -0.16352188161E+02  0.61515722596E+02 -0.83745844781E+03  0.85748268727E+03  0.17288241373E+03 0.  0.
        -24    2    3    3    0    0  0.12862090305E+02  0.58458777979E+02 -0.81287810462E+03  0.81889379965E+03  0.78951757686E+02 0.  0.
          6    2    1    2  501    0  0.16352188161E+02 -0.61515722596E+02 -0.56803208966E+03  0.59755942686E+03  0.17425623535E+03 0.  0.
         24    2    5    5    0    0  0.32519763392E+02 -0.16610953271E+02 -0.52702978307E+03  0.53446340525E+03  0.80977037045E+02 0.  0.
          5    1    5    5  501    0 -0.16167575231E+02 -0.44904769325E+02 -0.41002306589E+02  0.63096021607E+02  0.47000000000E+01 0. -1.
        -11    1    6    6    0    0 -0.10968723105E+02 -0.30290215562E+02 -0.35624242323E+03  0.35769606393E+03  0.00000000000E+00 0.  1.
         12    1    6    6    0    0  0.43488486497E+02  0.13679262291E+02 -0.17078735985E+03  0.17676734132E+03  0.00000000000E+00 0. -1.
         -5    1    3    3    0  503 -0.29214278466E+02  0.30569446172E+01 -0.24580343192E+02  0.38588887625E+02  0.47000000000E+01 0.  1.
         11    1    4    4    0    0 -0.37006710397E+01  0.14274539730E+02 -0.21277209985E+02  0.25887779267E+02  0.00000000000E+00 0. -1.
        -12    1    4    4    0    0  0.16562761345E+02  0.44184238249E+02 -0.79160089464E+03  0.79300602038E+03  0.00000000000E+00 0.  1.
</event>
<event>
12    1  0.8451514E-002  0.2335871E+03  0.7818608E-02  0.1124594E+00
         21   -1    0    0  503  502  0.00000000000E+00  0.00000000000E+00  0.92466163141E+02  0.92466163141E+02  0.00000000000E+00 0.  1.
         21   -1    0    0  501  503 -0.00000000000E+00 -0.00000000000E+00 -0.65904795684E+03  0.65904795684E+03  0.00000000000E+00 0.  1.
          6    2    1    2  501    0  0.17168731921E+02 -0.15381011100E+03 -0.15466350369E+03  0.27797466939E+03  0.17145495574E+03 0.  0.
         24    2    3    3    0    0  0.92612714192E+01 -0.46638540420E+01 -0.54107277748E+02  0.97861431479E+02  0.80881021154E+02 0.  0.
         -6    2    1    2    0  502 -0.17168731921E+02  0.15381011100E+03 -0.41191829001E+03  0.47353945059E+03  0.17495890381E+03 0.  0.
        -24    2    5    5    0    0 -0.66215297894E+02  0.15069270233E+03 -0.31871823941E+03  0.36807086142E+03  0.82474763924E+02 0.  0.
          5    1    3    3  501    0  0.79074605017E+01 -0.14914625695E+03 -0.10055622595E+03  0.18011323791E+03  0.47000000000E+01 0. -1.
        -11    1    4    4    0    0 -0.20175397077E+02 -0.31062978222E+02 -0.94728667327E+01  0.38232060726E+02  0.00000000000E+00 0.  1.
         12    1    4    4    0    0  0.29436668496E+02  0.26399124180E+02 -0.44634411015E+02  0.59629370752E+02  0.00000000000E+00 0. -1.
         -5    1    5    5    0  502  0.49046565973E+02  0.31174086699E+01 -0.93200050602E+02  0.10546858918E+03  0.47000000000E+01 0.  1.
         13    1    6    6    0    0  0.46296356829E+01  0.25143277086E+02 -0.10183780464E+02  0.27519580188E+02  0.00000000000E+00 0. -1.
        -14    1    6    6    0    0 -0.70844933577E+02  0.12554942524E+03 -0.30853445894E+03  0.34055128123E+03  0.00000000000E+00 0.  1.
</event>
<event>
12    1  0.8451514E-002  0.1867799E+03  0.7818608E-02  0.1164201E+00
         21   -1    0    0  501  502  0.00000000000E+00  0.00000000000E+00  0.86127222087E+02  0.86127222087E+02  0.00000000000E+00 0. -1.
         21   -1    0    0  502  503 -0.00000000000E+00 -0.00000000000E+00 -0.51993337206E+03  0.51993337206E+03  0.00000000000E+00 0. -1.
         -6    2    1    2    0  503  0.15737353271E+02  0.23574987155E+02 -0.37919773870E+03  0.42270277707E+03  0.18461654423E+03 0.  0.
        -24    2    3    3    0    0  0.41701690825E+02  0.69801319569E+02 -0.33344378414E+03  0.35251349733E+03  0.80434777214E+02 0.  0.
          6    2    1    2  501    0 -0.15737353271E+02 -0.23574987155E+02 -0.54608411267E+02  0.18335781707E+03  0.17272685429E+03 0.  0.
         24    2    5    5    0    0 -0.19056540750E+02  0.43152262754E+02 -0.68566714478E+02  0.11494387759E+03  0.79280710995E+02 0.  0.
          5    1    5    5  501    0  0.33191874786E+01 -0.66727249909E+02  0.13958303211E+02  0.68413939475E+02  0.47000000000E+01 0. -1.
        -11    1    6    6    0    0  0.14070279092E+02 -0.11514225865E+01 -0.56614785129E+02  0.58348371211E+02  0.00000000000E+00 0.  1.
         12    1    6    6    0    0 -0.33126819842E+02  0.44303685341E+02 -0.11951929348E+02  0.56595506383E+02  0.00000000000E+00 0. -1.
         -5    1    3    3    0  503 -0.25964337554E+02 -0.46226332415E+02 -0.45753954560E+02  0.70189279744E+02  0.47000000000E+01 0.  1.
         13    1    4    4    0    0  0.24877330134E+02  0.86391589972E+02 -0.28001597695E+03  0.29409409331E+03  0.00000000000E+00 0. -1.
        -14    1    4    4    0    0  0.16824360691E+02 -0.16590270403E+02 -0.53427807197E+02  0.58419404024E+02  0.00000000000E+00 0.  1.
</event>
<event>
12    1  0.8451514E-002  0.2310037E+03  0.7818608E-02  0.1126128E+00
         21   -1    0    0  501  502  0.00000000000E+00  0.00000000000E+00  0.18847851998E+03  0.18847851998E+03  0.00000000000E+00 0. -1.
         21   -1    0    0  502  503 -0.00000000000E+00 -0.00000000000E+00 -0.28451092652E+03  0.28451092652E+03  0.00000000000E+00 0.  1.
         -6    2    1    2    0  503 -0.62056976469E+02 -0.13742578880E+03 -0.71082583232E+02  0.24064228659E+03  0.17354843906E+03 0.  0.
        -24    2    3    3    0    0 -0.17549303953E+02 -0.57836118651E+02  0.29199588695E+02  0.10501761143E+03  0.80765636504E+02 0.  0.
          6    2    1    2  501    0  0.62056976469E+02  0.13742578880E+03 -0.24949823312E+02  0.23234715991E+03  0.17500226650E+03 0.  0.
         24    2    5    5    0    0  0.58088598097E+02  0.10186004465E+03 -0.83092867335E+02  0.16391198071E+03  0.78822324844E+02 0.  0.
          5    1    5    5  501    0  0.39683783719E+01  0.35565744151E+02  0.58143044023E+02  0.68435179200E+02  0.47000000000E+01 0. -1.
        -13    1    6    6    0    0  0.30079140814E+02 -0.52879407815E+01 -0.17765823353E+02  0.35331876673E+02  0.00000000000E+00 0.  1.
         14    1    6    6    0    0  0.28009457283E+02  0.10714798543E+03 -0.65327043982E+02  0.12858010404E+03  0.00000000000E+00 0. -1.
         -5    1    3    3    0  503 -0.44507672516E+02 -0.79589670147E+02 -0.10028217193E+03  0.13562467516E+03  0.47000000000E+01 0.  1.
         11    1    4    4    0    0  0.35633332493E+01 -0.69532777773E+02  0.34277287949E+01  0.69708348520E+02  0.00000000000E+00 0. -1.
        -12    1    4    4    0    0 -0.21112637202E+02  0.11696659122E+02  0.25771859900E+02  0.35309262906E+02  0.00000000000E+00 0.  1.
</event>
<event>
12    1  0.8451514E-002  0.2153525E+03  0.7818608E-02  0.1137560E+00
         21   -1    0    0  503  502  0.00000000000E+00  0.00000000000E+00  0.13820042246E+03  0.13820042246E+03  0.00000000000E+00 0.  1.
         21   -1    0    0  501  503 -0.00000000000E+00 -0.00000000000E+00 -0.70041326521E+03  0.70041326521E+03  0.00000000000E+00 0.  1.
          6    2    1    2  501    0 -0.12656012778E+03 -0.39943854031E+01 -0.58455018698E+03  0.62295717380E+03  0.17419327840E+03 0.  0.
         24    2    3    3    0    0 -0.10839099060E+03 -0.90226605190E+01 -0.58800231964E+03  0.60322374237E+03  0.79386020271E+02 0.  0.
         -6    2    1    2    0  502  0.12656012778E+03  0.39943854031E+01  0.22337344231E+02  0.21565651387E+03  0.17313391918E+03 0.  0.
        -24    2    5    5    0    0  0.36751308953E+02 -0.23000143405E+02 -0.43336643865E+02  0.10107252181E+03  0.80361213635E+02 0.  0.
          5    1    3    3  501    0 -0.18169137171E+02  0.50282751159E+01  0.34521326597E+01  0.19733431432E+02  0.47000000000E+01 0. -1.
        -11    1    4    4    0    0 -0.53525364907E+02  0.27661011064E+02 -0.38703256402E+03  0.39169414322E+03  0.00000000000E+00 0.  1.
         12    1    4    4    0    0 -0.54865625697E+02 -0.36683671583E+02 -0.20096975562E+03  0.21152959915E+03  0.00000000000E+00 0. -1.
         -5    1    5    5    0  502  0.89808818822E+02  0.26994528808E+02  0.65673988096E+02  0.11458399206E+03  0.47000000000E+01 0.  1.
         11    1    6    6    0    0  0.35399649155E+02 -0.12697325541E+02 -0.66099918874E+02  0.76049697641E+02  0.00000000000E+00 0. -1.
        -12    1    6    6    0    0  0.13516597983E+01 -0.10302817865E+02  0.22763275009E+02  0.25022824167E+02  0.00000000000E+00 0.  1.
</event>
<event>
12    1  0.8451514E-002  0.2342773E+03  0.7818608E-02  0.1123744E+00
         21   -1    0    0  501  502  0.00000000000E+00  0.00000000000E+00  0.89055443371E+02  0.89055443371E+02  0.00000000000E+00 0.  1.
         21   -1    0    0  502  503 -0.00000000000E+00 -0.00000000000E+00 -0.12361815593E+04  0.12361815593E+04  0.00000000000E+00 0.  1.
         -6    2    1    2    0  503 -0.91970393898E+02 -0.12836476408E+03 -0.10435163443E+04  0.10694915712E+04  0.17306008781E+03 0.  0.
        -24    2    3    3    0    0 -0.29405662284E+02 -0.72788720107E+02 -0.28228915123E+03  0.30366393276E+03  0.79760443862E+02 0.  0.
          6    2    1    2  501    0  0.91970393898E+02  0.12836476408E+03 -0.10360977163E+03  0.25574543150E+03  0.17243745226E+03 0.  0.
         24    2    5    5    0    0  0.12555875460E+03  0.71151007798E+02 -0.87774521904E+02  0.18737557691E+03  0.81103473158E+02 0.  0.
          5    1    5    5  501    0 -0.33588360705E+02  0.57213756277E+02 -0.15835249730E+02  0.68369854587E+02  0.47000000000E+01 0. -1.
        -13    1    6    6    0    0  0.55491091597E+02  0.70873757894E+02 -0.25302532738E+02  0.93501705694E+02  0.00000000000E+00 0.  1.
         14    1    6    6    0    0  0.70067663006E+02  0.27724990388E+00 -0.62471989165E+02  0.93873871215E+02  0.00000000000E+00 0. -1.
         -5    1    3    3    0  503 -0.62564731614E+02 -0.55576043968E+02 -0.76122719307E+03  0.76582763843E+03  0.47000000000E+01 0.  1.
         11    1    4    4    0    0 -0.35251628748E+02 -0.13258611168E+02 -0.43697230485E+02  0.57688092806E+02  0.00000000000E+00 0. -1.
        -12    1    4    4    0    0  0.58459664635E+01 -0.59530108940E+02 -0.23859192075E+03  0.24597583995E+03  0.00000000000E+00 0.  1.
</event>
<event>
12    1  0.8451514E-002  0.1948911E+03  0.7818608E-02  0.1154562E+00
         21   -1    0    0  501  502  0.00000000000E+00  0.00000000000E+00  0.62756893207E+02  0.62756893207E+02  0.00000000000E+00 0.  1.
         21   -1    0    0  502  503 -0.00000000000E+00 -0.00000000000E+00 -0.11188854515E+04  0.11188854515E+04  0.00000000000E+00 0.  1.
         -6    2    1    2    0  503 -0.34352370905E+02  0.80380924255E+02 -0.92932296404E+03  0.94912953472E+03  0.17194337387E+03 0.  0.
        -24    2    3    3    0    0  0.21908716061E+02 -0.68812721347E+01 -0.31454205542E+03  0.32562519918E+03  0.81041483036E+02 0.  0.
          6    2    1    2  501    0  0.34352370905E+02 -0.80380924255E+02 -0.12680559424E+03  0.23251280998E+03  0.17418774268E+03 0.  0.
         24    2    5    5    0    0 -0.57237066779E+01 -0.10688073305E+03 -0.57834932331E+02  0.14832626672E+03  0.84850162568E+02 0.  0.
          5    1    5    5  501    0  0.40076077583E+02  0.26499808790E+02 -0.68970661912E+02  0.84186543254E+02  0.47000000000E+01 0. -1.
        -13    1    6    6    0    0  0.20639195111E+02 -0.45603282086E+02 -0.64095103671E+02  0.81325383654E+02  0.00000000000E+00 0.  1.
         14    1    6    6    0    0 -0.26362901789E+02 -0.61277450959E+02  0.62601713399E+01  0.67000883069E+02  0.00000000000E+00 0. -1.
         -5    1    3    3    0  503 -0.56261086966E+02  0.87262196389E+02 -0.61478090862E+03  0.62350433554E+03  0.47000000000E+01 0.  1.
         13    1    4    4    0    0  0.28031553699E+02  0.27061643468E+01 -0.31286096338E+03  0.31412588836E+03  0.00000000000E+00 0. -1.
        -14    1    4    4    0    0 -0.61228376382E+01 -0.95874364815E+01 -0.16810920330E+01  0.11499310825E+02  0.00000000000E+00 0.  1.
</event>
<event>
12    1  0.8451514E-002  0.2396052E+03  0.7818608E-02  0.1120595E+00
         21   -1    0    0  503  502  0.00000000000E+00  0.00000000000E+00  0.10922314976E+03  0.10922314976E+03  0.00000000000E+00 0. -1.
         21   -1    0    0  501  503 -0.00000000000E+00 -0.00000000000E+00 -0.77878701644E+03  0.77878701644E+03  0.00000000000E+00 0.  1.
          6    2    1    2  501    0 -0.39241440403E+02  0.15748931099E+03 -0.59291203066E+03  0.63949614284E+03  0.17626079226E+03 0.  0.
         24    2    3    3    0    0  0.43112521760E+02  0.12368368324E+03 -0.41124070394E+03  0.43713123357E+03  0.69343029612E+02 0.  0.
         -6    2    1    2    0  502  0.39241440403E+02 -0.15748931099E+03 -0.76651836025E+02  0.24851402337E+03  0.17187478618E+03 0.  0.
        -24    2    5    5    0    0  0.38648030779E+02 -0.55090567162E+01 -0.11105568336E+02  0.82933973144E+02  0.72323511146E+02 0.  0.
          5    1    3    3  501    0 -0.82353962162E+02  0.33805627752E+02 -0.18167132672E+03  0.20236490927E+03  0.47000000000E+01 0. -1.
        -11    1    4    4    0    0 -0.10811790173E+02  0.76847537145E+01 -0.96201778230E+02  0.97111957971E+02  0.00000000000E+00 0.  1.
         12    1    4    4    0    0  0.53924311932E+02  0.11599892952E+03 -0.31503892571E+03  0.34001927560E+03  0.00000000000E+00 0. -1.
         -5    1    5    5    0  502  0.59340962429E+00 -0.15198025427E+03 -0.65546267689E+02  0.16558005022E+03  0.47000000000E+01 0.  1.
         11    1    6    6    0    0  0.17798424839E+01 -0.31833339649E+02  0.93535403214E+01  0.33226767357E+02  0.00000000000E+00 0. -1.
        -12    1    6    6    0    0  0.36868188295E+02  0.26324282933E+02 -0.20459108657E+02  0.49707205787E+02  0.00000000000E+00 0.  1.
</event>
<event>
12    1  0.8451514E-002  0.2003548E+03  0.7818608E-02  0.1149565E+00
         21   -1    0    0  503  502  0.00000000000E+00  0.00000000000E+00  0.25401735789E+03  0.25401735789E+03  0.00000000000E+00 0. -1.
         21   -1    0    0  501  503 -0.00000000000E+00 -0.00000000000E+00 -0.21080834191E+03  0.21080834191E+03  0.00000000000E+00 0.  1.
          6    2    1    2  501    0 -0.12880430944E+02 -0.10091288452E+03 -0.95223779595E+02  0.22129814633E+03  0.17191854352E+03 0.  0.
         24    2    3    3    0    0  0.14294039355E+01 -0.12685431099E+03 -0.34875567237E+02  0.15390581949E+03  0.79853845686E+02 0.  0.
         -6    2    1    2    0  502  0.12880430944E+02  0.10091288452E+03  0.13843279557E+03  0.24352755348E+03  0.17260566227E+03 0.  0.
        -24    2    5    5    0    0 -0.35169942643E+02  0.11067220835E+03  0.63463144962E+02  0.15382459190E+03  0.78416654721E+02 0.  0.
          5    1    3    3  501    0 -0.14309834879E+02  0.25941426469E+02 -0.60348212358E+02  0.67392326836E+02  0.47000000000E+01 0. -1.
        -11    1    4    4    0    0  0.24178656124E+02 -0.74124441411E+02  0.13117520752E+02  0.79063958775E+02  0.00000000000E+00 0.  1.
         12    1    4    4    0    0 -0.22749252189E+02 -0.52729869582E+02 -0.47993087988E+02  0.74841860719E+02  0.00000000000E+00 0. -1.
         -5    1    5    5    0  502  0.48050373587E+02 -0.97593238254E+01  0.74969650610E+02  0.89702961579E+02  0.47000000000E+01 0.  1.
         11    1    6    6    0    0  0.21771679024E+02  0.46470307294E+02  0.39404114273E+02  0.64700693112E+02  0.00000000000E+00 0. -1.
        -12    1    6    6    0    0 -0.56941621667E+02  0.64201901055E+02  0.24059030689E+02  0.89123898786E+02  0.00000000000E+00 0.  1.
</event>
<event>
12    1  0.8451514E-002  0.1812058E+03  0.7818608E-02  0.1166882E+00
         21   -1    0    0  501  502  0.00000000000E+00  0.00000000000E+00  0.24807044997E+03  0.24807044997E+03  0.00000000000E+00 0. -1.
         21   -1    0    0  502  503 -0.00000000000E+00 -0.00000000000E+00 -0.14031915409E+03  0.14031915409E+03  0.00000000000E+00 0. -1.
         -6    2    1    2    0  503  0.18751261748E+01 -0.56217163796E+02  0.57003748469E+01  0.18129541077E+03  0.17225459672E+03 0.  0.
        -24    2    3    3    0    0  0.61179063995E+01  0.23669293645E+02  0.44052217687E+02  0.92453972718E+02  0.77520803323E+02 0.  0.
          6    2    1    2  501    0 -0.18751261748E+01  0.56217163796E+02  0.10205092103E+03  0.20709419329E+03  0.17120084348E+03 0.  0.
         24    2    5    5    0    0 -0.27695391015E+02  0.82244875538E+02  0.23849988585E+02  0.12059792927E+03  0.80273185763E+02 0.  0.
          5    1    5    5  501    0  0.25820264840E+02 -0.26027711742E+02  0.78200932443E+02  0.86496264023E+02  0.47000000000E+01 0. -1.
        -11    1    6    6    0    0  0.26602182733E+02  0.22648628944E+02 -0.43030508641E+01  0.35201601753E+02  0.00000000000E+00 0.  1.
         12    1    6    6    0    0 -0.54297573748E+02  0.59596246594E+02  0.28153039449E+02  0.85396327516E+02  0.00000000000E+00 0. -1.
         -5    1    3    3    0  503 -0.42427802246E+01 -0.79886457441E+02 -0.38351842840E+02  0.88841438055E+02  0.47000000000E+01 0.  1.
         13    1    4    4    0    0  0.32266643635E+02  0.12352066004E+00 -0.44075354468E+01  0.32566515281E+02  0.00000000000E+00 0. -1.
        -14    1    4    4    0    0 -0.26148737235E+02  0.23545772984E+02  0.48459753134E+02  0.59887457437E+02  0.00000000000E+00 0.  1.
</event>
<event>
12    1  0.8451514E-002  0.1932369E+03  0.7818608E-02  0.1159883E+00
         21   -1    0    0  501  502  0.00000000000E+00  0.00000000000E+00  0.44059499872E+03  0.44059499872E+03  0.00000000000E+00 0. -1.
         21   -1    0    0  502  503 -0.00000000000E+00 -0.00000000000E+00 -0.89745937780E+02  0.89745937780E+02  0.00000000000E+00 0. -1.
         -6    2    1    2    0  503 -0.16575257815E+02  0.66948065962E+02  0.82471809841E+02  0.21010018393E+03  0.18050957083E+03 0.  0.
        -24    2    3    3    0    0  0.97162844990E+00  0.10463363261E+01 -0.24877871973E+02  0.82832845731E+02  0.78995777966E+02 0.  0.
          6    2    1    2  501    0  0.16575257815E+02 -0.66948065962E+02  0.26837725110E+03  0.32024075257E+03  0.16053351049E+03 0.  0.
         24    2    5    5    0    0 -0.45147042630E+02 -0.27261977876E+02  0.10773075925E+03  0.14356587235E+03  0.78890888683E+02 0.  0.
          5    1    5    5  501    0  0.61722300445E+02 -0.39686088085E+02  0.16064649185E+03  0.17667488023E+03  0.47000000000E+01 0. -1.
        -11    1    6    6    0    0 -0.13423135546E+02 -0.34300454109E+02  0.67000066204E+01  0.37437839263E+02  0.00000000000E+00 0.  1.
         12    1    6    6    0    0 -0.31723907084E+02  0.70384762329E+01  0.10103075263E+03  0.10612803308E+03  0.00000000000E+00 0. -1.
         -5    1    3    3    0  503 -0.17546886265E+02  0.65901729636E+02  0.10734968181E+03  0.12726733820E+03  0.47000000000E+01 0.  1.
         13    1    4    4    0    0 -0.19807825314E+01  0.18095950080E+02  0.24493258447E+02  0.30517316692E+02  0.00000000000E+00 0. -1.
        -14    1    4    4    0    0  0.29524109813E+01 -0.17049613754E+02 -0.49371130420E+02  0.52315529040E+02  0.00000000000E+00 0.  1.
</event>
<event>
12    1  0.8451514E-002  0.2222035E+03  0.7818608E-02  0.1132458E+00
         21   -1    0    0  503  502  0.00000000000E+00  0.00000000000E+00  0.32219796641E+02  0.32219796641E+02  0.00000000000E+00 0. -1.
         21   -1    0    0  501  503 -0.00000000000E+00 -0.00000000000E+00 -0.15431646186E+04  0.15431646186E+04  0.00000000000E+00 0. -1.
          6    2    1    2  501    0  0.85406742939E+02 -0.11123131340E+03 -0.67120483059E+03  0.70702922482E+03  0.17235916952E+03 0.  0.
         24    2    3    3    0    0  0.35621505976E+02  0.12810020635E+02 -0.19064630215E+03  0.20820720082E+03  0.74640723691E+02 0.  0.
         -6    2    1    2    0  502 -0.85406742939E+02  0.11123131340E+03 -0.83973999137E+03  0.86835519043E+03  0.17091157600E+03 0.  0.
        -24    2    5    5    0    0 -0.11555520421E+03  0.45958204319E+02 -0.59725034920E+03  0.61538715876E+03  0.80797362445E+02 0.  0.
          5    1    3    3  501    0  0.49785236963E+02 -0.12404133404E+03 -0.48055852844E+03  0.49882202400E+03  0.47000000000E+01 0. -1.
        -13    1    4    4    0    0  0.82935574003E+01  0.42042341112E+02 -0.83975829583E+02  0.94277682909E+02  0.00000000000E+00 0.  1.
         14    1    4    4    0    0  0.27327948576E+02 -0.29232320477E+02 -0.10667047257E+03  0.11392951791E+03  0.00000000000E+00 0. -1.
         -5    1    5    5    0  502  0.30148461269E+02  0.65273109085E+02 -0.24248964217E+03  0.25296803167E+03  0.47000000000E+01 0.  1.
         11    1    6    6    0    0 -0.22973095984E+02  0.15807524807E+02 -0.34914783389E+02  0.44684259854E+02  0.00000000000E+00 0. -1.
        -12    1    6    6    0    0 -0.92582108224E+02  0.30150679511E+02 -0.56233556582E+03  0.57070289891E+03  0.00000000000E+00 0.  1.
</event>
<event>
12    1  0.8451514E-002  0.1948712E+03  0.7818608E-02  0.1154385E+00
         21   -1    0    0  501  502  0.00000000000E+00  0.00000000000E+00  0.16288449539E+03  0.16288449539E+03  0.00000000000E+00 0.  1.
         21   -1    0    0  502  503 -0.00000000000E+00 -0.00000000000E+00 -0.23911050736E+03  0.23911050736E+03  0.00000000000E+00 0.  1.
         -6    2    1    2    0  503 -0.43369866865E+02  0.81377677387E+02 -0.30711647037E+01  0.19489542894E+03  0.17167272480E+03 0.  0.
        -24    2    3    3    0    0 -0.84480797773E+02  0.95271517092E+02 -0.89667559049E+01  0.15085004987E+03  0.80384498955E+02 0.  0.
          6    2    1    2  501    0  0.43369866865E+02 -0.81377677387E+02 -0.73154847264E+02  0.20709957381E+03  0.17039756473E+03 0.  0.
         24    2    5    5    0    0  0.23770582192E+02 -0.59276020927E+02  0.24799457114E+02  0.10468008873E+03  0.79146829814E+02 0.  0.
          5    1    5    5  501    0  0.19599284673E+02 -0.22101656460E+02 -0.97954304378E+02  0.10241948508E+03  0.47000000000E+01 0. -1.
        -13    1    6    6    0    0 -0.12164153005E+02  0.13707789705E+02  0.13020146295E+02  0.22480976991E+02  0.00000000000E+00 0.  1.
         14    1    6    6    0    0  0.35934735197E+02 -0.72983810632E+02  0.11779310819E+02  0.82199111743E+02  0.00000000000E+00 0. -1.
         -5    1    3    3    0  503  0.41110930909E+02 -0.13893839705E+02  0.58955912012E+01  0.44045379071E+02  0.47000000000E+01 0.  1.
         11    1    4    4    0    0 -0.82791643031E+02  0.68481496955E+02  0.22203871869E+02  0.10971409894E+03  0.00000000000E+00 0. -1.
        -12    1    4    4    0    0 -0.16891547425E+01  0.26790020138E+02 -0.31170627774E+02  0.41135950925E+02  0.00000000000E+00 0.  1.
</event>
<event>
12    1  0.8451514E-002  0.2385439E+03  0.7818608E-02  0.1120941E+00
         21   -1    0    0  501  502  0.00000000000E+00  0.00000000000E+00  0.10014969460E+03  0.10014969460E+03  0.00000000000E+00 0. -1.
         21   -1    0    0  502  503 -0.00000000000E+00 -0.00000000000E+00 -0.57953806277E+03  0.57953806277E+03  0.00000000000E+00 0.  1.
         -6    2    1    2    0  503 -0.59121683236E+02 -0.15354226007E+03 -0.18671456071E+03  0.30211507348E+03  0.17129095535E+03 0.  0.
        -24    2    3    3    0    0 -0.87200080094E+01 -0.74178521274E+02 -0.17324183732E+03  0.20702282260E+03  0.85248010664E+02 0.  0.
          6    2    1    2  501    0  0.59121683236E+02  0.15354226007E+03 -0.29267380745E+03  0.37757268389E+03  0.17272109019E+03 0.  0.
         24    2    5    5    0    0  0.33962226956E+02  0.11929955845E+03 -0.29977262815E+03  0.33423627761E+03  0.80401761030E+02 0.  0.
          5    1    5    5  501    0  0.25159456279E+02  0.34242701614E+02  0.70988206937E+01  0.43336406281E+02  0.47000000000E+01 0. -1.
        -11    1    6    6    0    0 -0.24308731418E+02  0.17290489738E+02 -0.72468684350E+02  0.78368269535E+02  0.00000000000E+00 0.  1.
         12    1    6    6    0    0  0.58270958374E+02  0.10200906871E+03 -0.22730394380E+03  0.25586800807E+03  0.00000000000E+00 0. -1.
         -5    1    3    3    0  503 -0.50401675226E+02 -0.79363738792E+02 -0.13472723391E+02  0.95092250874E+02  0.47000000000E+01 0.  1.
         13    1    4    4    0    0  0.50367575102E+01 -0.59285597571E+02 -0.38735572240E+02  0.70997151791E+02  0.00000000000E+00 0. -1.
        -14    1    4    4    0    0 -0.13756765520E+02 -0.14892923703E+02 -0.13450626508E+03  0.13602567081E+03  0.00000000000E+00 0.  1.
</event>
<event>
12    1  0.8451514E-002  0.1864634E+03  0.7818608E-02  0.1162012E+00
         21   -1    0    0  503  502  0.00000000000E+00  0.00000000000E+00  0.75307089273E+02  0.75307089273E+02  0.00000000000E+00 0. -1.
         21   -1    0    0  501  503 -0.00000000000E+00 -0.00000000000E+00 -0.65141535717E+03  0.65141535717E+03  0.00000000000E+00 0. -1.
          6    2    1    2  501    0 -0.54318757184E+02  0.44190127928E+02 -0.48667160994E+03  0.52116969094E+03  0.17281578644E+03 0.  0.
         24    2    3    3    0    0 -0.40532669604E+02 -0.35980484162E+02 -0.18180062552E+03  0.20559752741E+03  0.79255178323E+02 0.  0.
         -6    2    1    2    0  502  0.54318757184E+02 -0.44190127928E+02 -0.89436657951E+02  0.20555275550E+03  0.17131761357E+03 0.  0.
        -24    2    5    5    0    0  0.80159855481E+02 -0.24433440754E+01 -0.26266708379E+02  0.12540858009E+03  0.92767449194E+02 0.  0.
          5    1    3    3  501    0 -0.13786087580E+02  0.80170612090E+02 -0.30487098442E+03  0.31557216353E+03  0.47000000000E+01 0. -1.
        -11    1    4    4    0    0 -0.37763268604E+02 -0.60427786366E+02 -0.12990826686E+03  0.14816794397E+03  0.00000000000E+00 0.  1.
         12    1    4    4    0    0 -0.27694009997E+01  0.24447302204E+02 -0.51892358660E+02  0.57429583441E+02  0.00000000000E+00 0. -1.
         -5    1    5    5    0  502 -0.25841098297E+02 -0.41746783852E+02 -0.63169949572E+02  0.80144175410E+02  0.47000000000E+01 0.  1.
         11    1    6    6    0    0  0.46137318049E+02 -0.38259141622E+02 -0.42426565076E+02  0.73433149589E+02  0.00000000000E+00 0. -1.
        -12    1    6    6    0    0  0.34022537432E+02  0.35815797547E+02  0.16159856697E+02  0.51975430500E+02  0.00000000000E+00 0.  1.
</event>
<event>
12    1  0.8451514E-002  0.1909297E+03  0.7818608E-02  0.1157675E+00
         21   -1    0    0  501  502  0.00000000000E+00  0.00000000000E+00  0.55174349274E+02  0.55174349274E+02  0.00000000000E+00 0.  1.
         21   -1    0    0  502  503 -0.00000000000E+00 -0.00000000000E+00 -0.69142642481E+03  0.69142642481E+03  0.00000000000E+00 0.  1.
         -6    2    1    2    0  503 -0.25429866235E+02 -0.76820066432E+02 -0.39795969137E+03  0.44139104289E+03  0.17293390668E+03 0.  0.
        -24    2    3    3    0    0 -0.81713763423E+02 -0.59064699846E+02 -0.23377144018E+03  0.26685450816E+03  0.79977899326E+02 0.  0.
          6    2    1    2  501    0  0.25429866235E+02  0.76820066432E+02 -0.23829238417E+03  0.30520973120E+03  0.17268966085E+03 0.  0.
         24    2    5    5    0    0  0.76367141229E+02  0.74414066392E+02 -0.13357972930E+03  0.18864547892E+03  0.79838456280E+02 0.  0.
          5    1    5    5  501    0 -0.50937274994E+02  0.24060000403E+01 -0.10471265487E+03  0.11656425228E+03  0.47000000000E+01 0. -1.
        -13    1    6    6    0    0  0.43213282029E+01  0.27671755459E+02 -0.86043124067E+02  0.90486568765E+02  0.00000000000E+00 0.  1.
         14    1    6    6    0    0  0.72045813027E+02  0.46742310933E+02 -0.47536605230E+02  0.98158910155E+02  0.00000000000E+00 0. -1.
         -5    1    3    3    0  503  0.56283897187E+02 -0.17755366586E+02 -0.16418825119E+03  0.17453653473E+03  0.47000000000E+01 0.  1.
         13    1    4    4    0    0 -0.30383048013E+02 -0.24057518302E+02 -0.18170316123E+03  0.18579002286E+03  0.00000000000E+00 0. -1.
        -14    1    4    4    0    0 -0.51330715410E+02 -0.35007181543E+02 -0.52068278952E+02  0.81064485301E+02  0.00000000000E+00 0.  1.
</event>
<event>
12    1  0.8451514E-002  0.1777696E+03  0.7818608E-02  0.1170097E+00
         21   -1    0    0  501  502  0.00000000000E+00  0.00000000000E+00  0.24525706608E+02  0.24525706608E+02  0.00000000000E+00 0. -1.
         21   -1    0    0  502  503 -0.00000000000E+00 -0.00000000000E+00 -0.12880544590E+04  0.12880544590E+04  0.00000000000E+00 0. -1.
         -6    2    1    2    0  503  0.35622806671E+02  0.21067279663E+02 -0.66252457994E+03  0.68583617017E+03  0.17239378951E+03 0.  0.
        -24    2    3    3    0    0  0.10255232192E+02  0.23343098880E+02 -0.65169505552E+03  0.65776373196E+03  0.85420206249E+02 0.  0.
          6    2    1    2  501    0 -0.35622806671E+02 -0.21067279663E+02 -0.60100417242E+03  0.62674399541E+03  0.17288494985E+03 0.  0.
         24    2    5    5    0    0 -0.32521236025E+02  0.18471954758E+02 -0.15467826235E+03  0.17863476899E+03  0.81155233618E+02 0.  0.
          5    1    5    5  501    0 -0.31015706457E+01 -0.39539234422E+02 -0.44632591008E+03  0.44810922642E+03  0.47000000000E+01 0. -1.
        -11    1    6    6    0    0 -0.57614681761E+02  0.18144786798E+02 -0.82727216210E+02  0.10243279330E+03  0.00000000000E+00 0.  1.
         12    1    6    6    0    0  0.25093445736E+02  0.32716796054E+00 -0.71951046136E+02  0.76201975683E+02  0.00000000000E+00 0. -1.
         -5    1    3    3    0  503  0.25367574479E+02 -0.22758192173E+01 -0.10829524420E+02  0.28072438213E+02  0.47000000000E+01 0.  1.
         13    1    4    4    0    0  0.77376797183E+01  0.52547460766E+02 -0.28559202333E+03  0.29048908949E+03  0.00000000000E+00 0. -1.
        -14    1    4    4    0    0  0.25175524736E+01 -0.29204361885E+02 -0.36610303219E+03  0.36727464247E+03  0.00000000000E+00 0.  1.
</event>
<event>
12    1  0.8451514E-002  0.2052360E+03  0.7818608E-02  0.1145535E+00
         21   -1    0    0  503  502  0.00000000000E+00  0.00000000000E+00  0.20404335778E+03  0.20404335778E+03  0.00000000000E+00 0. -1.
         21   -1    0    0  501  503 -0.00000000000E+00 -0.00000000000E+00 -0.25511096994E+03  0.25511096994E+03  0.00000000000E+00 0. -1.
          6    2    1    2  501    0  0.14643165786E+02 -0.11016276302E+03 -0.12655336449E+03  0.24111729462E+03  0.17254431037E+03 0.  0.
         24    2    3    3    0    0 -0.57078526546E+02 -0.81538730320E+02 -0.71357062345E+02  0.14608015362E+03  0.79630761648E+02 0.  0.
         -6    2    1    2    0  502 -0.14643165786E+02  0.11016276302E+03  0.75485752333E+02  0.21803703310E+03  0.17173174528E+03 0.  0.
        -24    2    5    5    0    0 -0.73165319649E+02  0.47374354996E+02  0.59229357967E+02  0.13055225138E+03  0.77060236081E+02 0.  0.
          5    1    3    3  501    0  0.71721692332E+02 -0.28624032700E+02 -0.55196302144E+02  0.95037141000E+02  0.47000000000E+01 0. -1.
        -13    1    4    4    0    0 -0.54408915570E+02 -0.35474179960E+02 -0.48481026565E+01  0.65132569708E+02  0.00000000000E+00 0.  1.
         14    1    4    4    0    0 -0.26696109763E+01 -0.46064550359E+02 -0.66508959688E+02  0.80947583914E+02  0.00000000000E+00 0. -1.
         -5    1    5    5    0  502  0.58522153863E+02  0.62788408024E+02  0.16256394367E+02  0.87484781720E+02  0.47000000000E+01 0.  1.
         11    1    6    6    0    0 -0.90859988106E+01  0.48500286366E+02  0.40346658694E+02  0.63739203162E+02  0.00000000000E+00 0. -1.
        -12    1    6    6    0    0 -0.64079320838E+02 -0.11259313698E+01  0.18882699273E+02  0.66813048219E+02  0.00000000000E+00 0.  1.
</event>
<event>
12    1  0.8451514E-002  0.1791399E+03  0.7818608E-02  0.1168641E+00
         21   -1    0    0  503  502  0.00000000000E+00  0.00000000000E+00  0.35757018910E+03  0.35757018910E+03  0.00000000000E+00 0. -1.
         21   -1    0    0  501  503 -0.00000000000E+00 -0.00000000000E+00 -0.89744400288E+02  0.89744400288E+02  0.00000000000E+00 0. -1.
          6    2    1    2  501    0 -0.30170529462E+02 -0.34871401296E+02  0.13521786435E+03  0.22444367774E+03  0.17310348975E+03 0.  0.
         24    2    3    3    0    0 -0.15205028468E+02  0.38337039844E+02  0.78678538451E+02  0.13062349096E+03  0.95766708539E+02 0.  0.
         -6    2    1    2    0  502  0.30170529462E+02  0.34871401296E+02  0.13260792446E+03  0.22287091164E+03  0.17309045656E+03 0.  0.
        -24    2    5    5    0    0  0.76091265952E+02  0.54870886244E+02  0.67611662459E+02  0.14068029471E+03  0.80118122214E+02 0.  0.
          5    1    3    3  501    0 -0.14965500993E+02 -0.73208441140E+02  0.56539325899E+02  0.93820186779E+02  0.47000000000E+01 0. -1.
        -13    1    4    4    0    0  0.75393116221E+01  0.50205262149E+02  0.31601621357E+01  0.50866454485E+02  0.00000000000E+00 0.  1.
         14    1    4    4    0    0 -0.22744340090E+02 -0.11868222304E+02  0.75518376315E+02  0.79757036480E+02  0.00000000000E+00 0. -1.
         -5    1    5    5    0  502 -0.45920736490E+02 -0.19999484948E+02  0.64996262002E+02  0.82190616936E+02  0.47000000000E+01 0.  1.
         11    1    6    6    0    0  0.63709542938E+02  0.21572856384E+02  0.34635955440E+01  0.67351989488E+02  0.00000000000E+00 0. -1.
        -12    1    6    6    0    0  0.12381723014E+02  0.33298029860E+02  0.64148066915E+02  0.73328305219E+02  0.00000000000E+00 0.  1.
</event>
<event>
12    1  0.8451514E-002  0.1803736E+03  0.7818608E-02  0.1168896E+00
         21   -1    0    0  501  502  0.00000000000E+00  0.00000000000E+00  0.41582458368E+02  0.41582458368E+02  0.00000000000E+00 0. -1.
         21   -1    0    0  502  503 -0.00000000000E+00 -0.00000000000E+00 -0.10312388245E+04  0.10312388245E+04  0.00000000000E+00 0. -1.
         -6    2    1    2    0  503  0.21975491497E+02  0.18850242800E+02 -0.21215091180E+03  0.27466754963E+03  0.17203487891E+03 0.  0.
        -24    2    3    3    0    0  0.66666226637E+02 -0.28811889080E+02 -0.13514275323E+03  0.17356716828E+03  0.81163337953E+02 0.  0.
          6    2    1    2  501    0 -0.21975491497E+02 -0.18850242800E+02 -0.77750545430E+03  0.79815373320E+03  0.17803481818E+03 0.  0.
         24    2    5    5    0    0 -0.41179083684E+02  0.57470750491E+02 -0.39036918736E+03  0.40307114545E+03  0.71271605551E+02 0.  0.
          5    1    5    5  501    0  0.19203592186E+02 -0.76320993292E+02 -0.38713626694E+03  0.39508258775E+03  0.47000000000E+01 0. -1.
        -11    1    6    6    0    0 -0.25571433850E+02  0.52718572109E+02 -0.13482350834E+03  0.14700518520E+03  0.00000000000E+00 0.  1.
         12    1    6    6    0    0 -0.15607649834E+02  0.47521783827E+01 -0.25554567902E+03  0.25606596025E+03  0.00000000000E+00 0. -1.
         -5    1    3    3    0  503 -0.44690735140E+02  0.47662131880E+02 -0.77008158573E+02  0.10110038135E+03  0.47000000000E+01 0.  1.
         13    1    4    4    0    0  0.78507834369E+02 -0.33068740179E+02 -0.79507712501E+02  0.11652681229E+03  0.00000000000E+00 0. -1.
        -14    1    4    4    0    0 -0.11841607732E+02  0.42568510992E+01 -0.55635040730E+02  0.57040355995E+02  0.00000000000E+00 0.  1.
</event>
<event>
12    1  0.8451514E-002  0.1843684E+03  0.7818608E-02  0.1163894E+00
         21   -1    0    0  501  502  0.00000000000E+00  0.00000000000E+00  0.37835423008E+02  0.37835423008E+02  0.00000000000E+00 0.  1.
         21   -1    0    0  502  503 -0.00000000000E+00 -0.00000000000E+00 -0.11336841974E+04  0.11336841974E+04  0.00000000000E+00 0. -1.
         -6    2    1    2    0  503 -0.41323263230E+02  0.51150937899E+02 -0.81898393591E+03  0.83947982562E+03  0.17224302548E+03 0.  0.
        -24    2    3    3    0    0 -0.52325410829E+02 -0.30659854092E+02 -0.48497903252E+03  0.49539347247E+03  0.80821131608E+02 0.  0.
          6    2    1    2  501    0  0.41323263230E+02 -0.51150937899E+02 -0.27686483848E+03  0.33203979478E+03  0.17109136740E+03 0.  0.
         24    2    5    5    0    0  0.89832209993E+02 -0.14787828813E+02 -0.18922656276E+03  0.22537231618E+03  0.81838151343E+02 0.  0.
          5    1    5    5  501    0 -0.48508946763E+02 -0.36363109086E+02 -0.87638275728E+02  0.10666747860E+03  0.47000000000E+01 0. -1.
        -13    1    6    6    0    0  0.39872349148E+02 -0.25171108236E+02 -0.24937144983E+02  0.53340885973E+02  0.00000000000E+00 0.  1.
         14    1    6    6    0    0  0.49959860844E+02  0.10383279423E+02 -0.16428941777E+03  0.17203143021E+03  0.00000000000E+00 0. -1.
         -5    1    3    3    0  503  0.11002147600E+02  0.81810791991E+02 -0.33400490339E+03  0.34408635315E+03  0.47000000000E+01 0.  1.
         11    1    4    4    0    0 -0.24629397537E+02  0.25038037405E+01 -0.39291878448E+03  0.39369791395E+03  0.00000000000E+00 0. -1.
        -12    1    4    4    0    0 -0.27696013292E+02 -0.33163657832E+02 -0.92060248042E+02  0.10169555852E+03  0.00000000000E+00 0.  1.
</event>
<event>
12    1  0.8451514E-002  0.1780512E+03  0.7818608E-02  0.1170418E+00
         21   -1    0    0  501  502  0.00000000000E+00  0.00000000000E+00  0.20679234368E+03  0.20679234368E+03  0.00000000000E+00 0. -1.
         21   -1    0    0  502  503 -0.00000000000E+00 -0.00000000000E+00 -0.33235565328E+03  0.33235565328E+03  0.00000000000E+00 0. -1.
         -6    2    1    2    0  503 -0.21255247595E+02 -0.28002168088E+02 -0.26223916220E+03  0.31697254264E+03  0.17454600433E+03 0.  0.
        -24    2    3    3    0    0 -0.12190705683E+02  0.19271945201E+02 -0.45767885926E+02  0.95164266964E+02  0.80259062714E+02 0.  0.
          6    2    1    2  501    0  0.21255247595E+02  0.28002168088E+02  0.13667585261E+03  0.22217545432E+03  0.17159760153E+03 0.  0.
         24    2    5    5    0    0 -0.28747050318E+02  0.45412846572E+02  0.26674536618E+02  0.10000450425E+03  0.80004065092E+02 0.  0.
          5    1    5    5  501    0  0.50002297913E+02 -0.17410678484E+02  0.11000131599E+03  0.12217095007E+03  0.47000000000E+01 0. -1.
        -11    1    6    6    0    0 -0.53767229301E+01  0.64689367504E+02  0.10806497995E+02  0.65805803821E+02  0.00000000000E+00 0.  1.
         12    1    6    6    0    0 -0.23370327388E+02 -0.19276520932E+02  0.15868038623E+02  0.34198700431E+02  0.00000000000E+00 0. -1.
         -5    1    3    3    0  503 -0.90645419119E+01 -0.47274113290E+02 -0.21647127627E+03  0.22180827567E+03  0.47000000000E+01 0.  1.
         11    1    4    4    0    0  0.97314265086E+01  0.12619164558E+02 -0.63956888944E+02  0.65912272146E+02  0.00000000000E+00 0. -1.
        -12    1    4    4    0    0 -0.21922132192E+02  0.66527806430E+01  0.18189003017E+02  0.29251994819E+02  0.00000000000E+00 0.  1.
</event>
<event>
12    1  0.8451514E-002  0.2223030E+03  0.7818608E-02  0.1132257E+00
         21   -1    0    0  501  502  0.00000000000E+00  0.00000000000E+00  0.10673686141E+04  0.10673686141E+04  0.00000000000E+00 0.  1.
         21   -1    0    0  502  503 -0.00000000000E+00 -0.00000000000E+00 -0.10339287004E+03  0.10339287004E+03  0.00000000000E+00 0.  1.
         -6    2    1    2    0  503  0.11596866201E+03  0.82271874368E+02  0.46443237763E+02  0.22668280845E+03  0.17032536344E+03 0.  0.
        -24    2    3    3    0    0  0.26515749139E+02  0.91893355625E+02  0.56454149655E+02  0.13603676673E+03  0.78558622240E+02 0.  0.
          6    2    1    2  501    0 -0.11596866201E+03 -0.82271874368E+02  0.91753250630E+03  0.94407867569E+03  0.17088374378E+03 0.  0.
         24    2    5    5    0    0 -0.79124580285E+02 -0.10033367546E+03  0.86017041286E+03  0.87339476818E+03  0.81226450638E+02 0.  0.
          5    1    5    5  501    0 -0.36844081725E+02  0.18061801092E+02  0.57362093438E+02  0.70683907506E+02  0.47000000000E+01 0. -1.
        -13    1    6    6    0    0 -0.74382854776E+01 -0.63031939283E+02  0.25157809651E+03  0.25946077181E+03  0.00000000000E+00 0.  1.
         14    1    6    6    0    0 -0.71686294808E+02 -0.37301736178E+02  0.60859231635E+03  0.61393399637E+03  0.00000000000E+00 0. -1.
         -5    1    3    3    0  503  0.89452912871E+02 -0.96214812565E+01 -0.10010911892E+02  0.90646041720E+02  0.47000000000E+01 0.  1.
         11    1    4    4    0    0  0.35144792759E+02  0.10527913827E+02  0.36638958759E+02  0.51849847894E+02  0.00000000000E+00 0. -1.
        -12    1    4    4    0    0 -0.86290436198E+01  0.81365441798E+02  0.19815190896E+02  0.84186918835E+02  0.00000000000E+00 0.  1.
</event>
<event>
12    1  0.8451514E-002  0.2108026E+03  0.7818608E-02  0.1141418E+00
         21   -1    0    0  501  502  0.00000000000E+00  0.00000000000E+00  0.29497201182E+03  0.29497201182E+03  0.00000000000E+00 0. -1.
         21   -1    0    0  502  503 -0.00000000000E+00 -0.00000000000E+00 -0.18608577669E+03  0.18608577669E+03  0.00000000000E+00 0.  1.
         -6    2    1    2    0  503  0.47202457567E+02  0.10789782877E+03 -0.52816702777E+02  0.21731849850E+03  0.17483624408E+03 0.  0.
        -24    2    3    3    0    0  0.33968216363E+02 -0.57817574722E+01 -0.54237449787E+02  0.10276588181E+03  0.80198859483E+02 0.  0.
          6    2    1    2  501    0 -0.47202457567E+02 -0.10789782877E+03  0.16170293791E+03  0.26373929001E+03  0.17187367312E+03 0.  0.
         24    2    5    5    0    0 -0.41446139972E+01  0.12352689160E+02  0.55798677279E+02  0.97751436916E+02  0.79196491579E+02 0.  0.
          5    1    5    5  501    0 -0.43057843570E+02 -0.12025051793E+03  0.10590426063E+03  0.16598785310E+03  0.47000000000E+01 0. -1.
        -13    1    6    6    0    0 -0.40977486321E+02  0.94239990941E+01  0.38268869281E+02  0.56854837087E+02  0.00000000000E+00 0.  1.
         14    1    6    6    0    0  0.36832872324E+02  0.29286900657E+01  0.17529807998E+02  0.40896599829E+02  0.00000000000E+00 0. -1.
         -5    1    3    3    0  503  0.13234241204E+02  0.11367958624E+03  0.14207470103E+01  0.11455261669E+03  0.47000000000E+01 0.  1.
         13    1    4    4    0    0 -0.23871635900E+02 -0.85913042950E+00 -0.85416921113E+00  0.23902357847E+02  0.00000000000E+00 0. -1.
        -14    1    4    4    0    0  0.57839852263E+02 -0.49226270427E+01 -0.53383280576E+02  0.78863523963E+02  0.00000000000E+00 0.  1.
</event>
<event>
12    1  0.8451514E-002  0.1888312E+03  0.7818608E-02  0.1159523E+00
         21   -1    0    0  501  502  0.00000000000E+00  0.00000000000E+00  0.47673888301E+02  0.47673888301E+02  0.00000000000E+00 0. -1.
         21   -1    0    0  502  503 -0.00000000000E+00 -0.00000000000E+00 -0.76704325285E+03  0.76704325285E+03  0.00000000000E+00 0.  1.
         -6    2    1    2    0  503  0.67905441950E+02  0.35872195798E+02 -0.42404373154E+03  0.46418264467E+03  0.17249486333E+03 0.  0.
        -24    2    3    3    0    0  0.32739217809E+01  0.68929045558E+02 -0.17888257530E+03  0.20845608905E+03  0.81810961576E+02 0.  0.
          6    2    1    2  501    0 -0.67905441950E+02 -0.35872195798E+02 -0.29532563301E+03  0.35053449648E+03  0.17250866713E+03 0.  0.
         24    2    5    5    0    0 -0.10014230521E+03  0.86842665041E+01 -0.24031370904E+03  0.27260571191E+03  0.80369755731E+02 0.  0.
          5    1    5    5  501    0  0.32236863263E+02 -0.44556462302E+02 -0.55011923968E+02  0.77928784570E+02  0.47000000000E+01 0. -1.
        -13    1    6    6    0    0 -0.78046749270E+02 -0.30274130371E+02 -0.16363380682E+03  0.18380381056E+03  0.00000000000E+00 0.  1.
         14    1    6    6    0    0 -0.22095555943E+02  0.38958396875E+02 -0.76679902220E+02  0.88801901354E+02  0.00000000000E+00 0. -1.
         -5    1    3    3    0  503  0.64631520169E+02 -0.33056849760E+02 -0.24516115624E+03  0.25572655562E+03  0.47000000000E+01 0.  1.
         11    1    4    4    0    0 -0.31967162622E+02  0.49458005219E+01 -0.72728713860E+02  0.79597903544E+02  0.00000000000E+00 0. -1.
        -12    1    4    4    0    0  0.35241084403E+02  0.63983245036E+02 -0.10615386144E+03  0.12885818551E+03  0.00000000000E+00 0.  1.
</event>
<event>
12    1  0.8451514E-002  0.2472448E+03  0.7818608E-02  0.1115278E+00
         21   -1    0    0  503  502  0.00000000000E+00  0.00000000000E+00  0.20555467852E+03  0.20555467852E+03  0.00000000000E+00 0. -1.
         21   -1    0    0  501  503 -0.00000000000E+00 -0.00000000000E+00 -0.30596742565E+03  0.30596742565E+03  0.00000000000E+00 0. -1.
          6    2    1    2  501    0 -0.69989757772E+02 -0.16094034395E+03 -0.96814757875E+02  0.26425113774E+03  0.17220686963E+03 0.  0.
         24    2    3    3    0    0  0.20330700318E+02 -0.54288345396E+02 -0.33501169302E+02  0.11074825684E+03  0.88217267174E+02 0.  0.
         -6    2    1    2    0  502  0.69989757772E+02  0.16094034395E+03 -0.35979892463E+01  0.24727096643E+03  0.17415402611E+03 0.  0.
        -24    2    5    5    0    0  0.11393971174E+03  0.11838688643E+03  0.15192696495E+02  0.18310263257E+03  0.79360211928E+02 0.  0.
          5    1    3    3  501    0 -0.90320458090E+02 -0.10665199855E+03 -0.63313588573E+02  0.15350288089E+03  0.47000000000E+01 0. -1.
        -13    1    4    4    0    0 -0.12246691552E+02  0.13234551808E+02 -0.30846867757E+02  0.35730436129E+02  0.00000000000E+00 0.  1.
         14    1    4    4    0    0  0.32577391869E+02 -0.67522897204E+02 -0.26543015445E+01  0.75017820713E+02  0.00000000000E+00 0. -1.
         -5    1    5    5    0  502 -0.43949953966E+02  0.42553457516E+02 -0.18790685742E+02  0.64168333864E+02  0.47000000000E+01 0.  1.
         13    1    6    6    0    0  0.25163199694E+02  0.74779426842E+02  0.27225775660E+02  0.83464915731E+02  0.00000000000E+00 0. -1.
        -14    1    6    6    0    0  0.88776512045E+02  0.43607459590E+02 -0.12033079165E+02  0.99637716839E+02  0.00000000000E+00 0.  1.
</event>
<event>
12    1  0.8451514E-002  0.3117877E+03  0.7818608E-02  0.1079517E+00
         21   -1    0    0  503  502  0.00000000000E+00  0.00000000000E+00  0.28960969686E+03  0.28960969686E+03  0.00000000000E+00 0.  1.
         21   -1    0    0  501  503 -0.00000000000E+00 -0.00000000000E+00 -0.39203810514E+03  0.39203810514E+03  0.00000000000E+00 0. -1.
          6    2    1    2  501    0  0.25960037112E+03 -0.12267367434E+02  0.78304694827E+02  0.32126461256E+03  0.17186181968E+03 0.  0.
         24    2    3    3    0    0  0.26448503992E+03 -0.42538479938E+02  0.64905395132E+02  0.28747361563E+03  0.81648703285E+02 0.  0.
         -6    2    1    2    0  502 -0.25960037112E+03  0.12267367434E+02 -0.18073310311E+03  0.36038318943E+03  0.17224618335E+03 0.  0.
        -24    2    5    5    0    0 -0.41607794452E+02  0.14092738831E+02 -0.36082652906E+02  0.98715579274E+02  0.80703122020E+02 0.  0.
          5    1    3    3  501    0 -0.48846688010E+01  0.30271112504E+02  0.13399299696E+02  0.33790996935E+02  0.47000000000E+01 0. -1.
        -11    1    4    4    0    0  0.13988051914E+03  0.18814604576E+02  0.34443147906E+02  0.14528206846E+03  0.00000000000E+00 0.  1.
         12    1    4    4    0    0  0.12460452078E+03 -0.61353084514E+02  0.30462247226E+02  0.14219154717E+03  0.00000000000E+00 0. -1.
         -5    1    5    5    0  502 -0.21799257667E+03 -0.18253713969E+01 -0.14465045020E+03  0.26166761016E+03  0.47000000000E+01 0.  1.
         13    1    6    6    0    0 -0.15658016966E+02  0.25312563065E+02 -0.56487715741E+02  0.63849521328E+02  0.00000000000E+00 0. -1.
        -14    1    6    6    0    0 -0.25949777486E+02 -0.11219824234E+02  0.20405062835E+02  0.34866057946E+02  0.00000000000E+00 0.  1.
</event>
<event>
12    1  0.8451514E-002  0.2804137E+03  0.7818608E-02  0.1095586E+00
         21   -1    0    0  503  502  0.00000000000E+00  0.00000000000E+00  0.89058681596E+03  0.89058681596E+03  0.00000000000E+00 0.  1.
         21   -1    0    0  501  503 -0.00000000000E+00 -0.00000000000E+00 -0.92014099305E+02  0.92014099305E+02  0.00000000000E+00 0.  1.
          6    2    1    2  501    0  0.17376511574E+03  0.13680250357E+03  0.50240607194E+03  0.57536396890E+03  0.17240242215E+03 0.  0.
         24    2    3    3    0    0  0.18120168958E+03  0.15068828823E+03  0.50043648096E+03  0.55880839780E+03  0.79304107497E+02 0.  0.
         -6    2    1    2    0  502 -0.17376511574E+03 -0.13680250357E+03  0.29616664472E+03  0.40723694636E+03  0.17093276048E+03 0.  0.
        -24    2    5    5    0    0 -0.66484876845E+02 -0.70988516447E+02  0.32505229694E+02  0.11503844819E+03  0.52131049178E+02 0.  0.
          5    1    3    3  501    0 -0.74365738364E+01 -0.13885784654E+02  0.19695909784E+01  0.16555571102E+02  0.47000000000E+01 0. -1.
        -11    1    4    4    0    0  0.24506458163E+01  0.36246817967E+02  0.78266106379E+02  0.86286852332E+02  0.00000000000E+00 0.  1.
         12    1    4    4    0    0  0.17875104376E+03  0.11444147026E+03  0.42217037458E+03  0.47252154547E+03  0.00000000000E+00 0. -1.
         -5    1    5    5    0  502 -0.10728023890E+03 -0.65813987126E+02  0.26366141502E+03  0.29219849817E+03  0.47000000000E+01 0.  1.
         11    1    6    6    0    0 -0.20428465099E+02 -0.39888407395E+02  0.38580007370E+02  0.59133951326E+02  0.00000000000E+00 0. -1.
        -12    1    6    6    0    0 -0.46056411746E+02 -0.31100109052E+02 -0.60747776751E+01  0.55904496866E+02  0.00000000000E+00 0.  1.
</event>
<event>
12    1  0.8451514E-002  0.1994565E+03  0.7818608E-02  0.1150389E+00
         21   -1    0    0  501  502  0.00000000000E+00  0.00000000000E+00  0.10202310837E+04  0.10202310837E+04  0.00000000000E+00 0.  1.
         21   -1    0    0  502  503 -0.00000000000E+00 -0.00000000000E+00 -0.39448313765E+02  0.39448313765E+02  0.00000000000E+00 0. -1.
         -6    2    1    2    0  503 -0.61449117370E+02  0.78288933602E+02  0.42454844616E+03  0.46906747611E+03  0.17285185233E+03 0.  0.
        -24    2    3    3    0    0 -0.71702793620E+02  0.76720844883E+02  0.18530075672E+03  0.22954890964E+03  0.85609303376E+02 0.  0.
          6    2    1    2  501    0  0.61449117370E+02 -0.78288933602E+02  0.55623432382E+03  0.59061192140E+03  0.17181579543E+03 0.  0.
         24    2    5    5    0    0 -0.13451400612E+02  0.99159266961E+01  0.25243047264E+03  0.26548263179E+03  0.80502288682E+02 0.  0.
          5    1    5    5  501    0  0.74900517982E+02 -0.88204860299E+02  0.30380385118E+03  0.32512928962E+03  0.47000000000E+01 0. -1.
        -13    1    6    6    0    0 -0.32197863999E+02 -0.87466562531E+01  0.43188290126E+02  0.54575038669E+02  0.00000000000E+00 0.  1.
         14    1    6    6    0    0  0.18746463387E+02  0.18662582949E+02  0.20924218251E+03  0.21090759312E+03  0.00000000000E+00 0. -1.
         -5    1    3    3    0  503  0.10253676250E+02  0.15680887197E+01  0.23924768944E+03  0.23951856647E+03  0.47000000000E+01 0.  1.
         13    1    4    4    0    0 -0.48581729739E+02  0.42711848918E+02  0.34644467399E+02  0.73380689721E+02  0.00000000000E+00 0. -1.
        -14    1    4    4    0    0 -0.23121063880E+02  0.34008995964E+02  0.15065628932E+03  0.15616821992E+03  0.00000000000E+00 0.  1.
</event>
<event>
12    1  0.8451514E-002  0.1743288E+03  0.7818608E-02  0.1173604E+00
         21   -1    0    0  503  502  0.00000000000E+00  0.00000000000E+00  0.74548749597E+02  0.74548749597E+02  0.00000000000E+00 0.  1.
         21   -1    0    0  501  503 -0.00000000000E+00 -0.00000000000E+00 -0.56092070873E+03  0.56092070873E+03  0.00000000000E+00 0.  1.
          6    2    1    2  501    0 -0.28981152440E+02  0.21088720323E+01 -0.40985934105E+03  0.44508900319E+03  0.17109993214E+03 0.  0.
         24    2    3    3    0    0 -0.66905953482E+02  0.26329993735E+02 -0.19167923453E+03  0.22226709639E+03  0.86556675111E+02 0.  0.
         -6    2    1    2    0  502  0.28981152440E+02 -0.21088720323E+01 -0.76512618089E+02  0.19038045514E+03  0.17189003006E+03 0.  0.
        -24    2    5    5    0    0 -0.26889814399E+02 -0.49285726855E+02 -0.59023836329E+02  0.11504674387E+03  0.81239122532E+02 0.  0.
          5    1    3    3  501    0  0.37924801042E+02 -0.24221121702E+02 -0.21818010651E+03  0.22282190680E+03  0.47000000000E+01 0. -1.
        -11    1    4    4    0    0 -0.23392848050E+02 -0.18145711360E+02 -0.11695961287E+02  0.31832180119E+02  0.00000000000E+00 0.  1.
         12    1    4    4    0    0 -0.43513105432E+02  0.44475705095E+02 -0.17998327325E+03  0.19043491628E+03  0.00000000000E+00 0. -1.
         -5    1    5    5    0  502  0.55870966839E+02  0.47176854822E+02 -0.17488781760E+02  0.75333711271E+02  0.47000000000E+01 0.  1.
         11    1    6    6    0    0  0.20809412591E+01  0.17329450647E+02  0.50653421872E+01  0.18174098814E+02  0.00000000000E+00 0. -1.
        -12    1    6    6    0    0 -0.28970755658E+02 -0.66615177501E+02 -0.64089178516E+02  0.96872645054E+02  0.00000000000E+00 0.  1.
</event>
<event>
12    1  0.8451514E-002  0.1761221E+03  0.7818608E-02  0.1172303E+00
         21   -1    0    0  503  502  0.00000000000E+00  0.00000000000E+00  0.17105650648E+04  0.17105650648E+04  0.00000000000E+00 0.  1.
         21   -1    0    0  501  503 -0.00000000000E+00 -0.00000000000E+00 -0.28223343343E+02  0.28223343343E+02  0.00000000000E+00 0.  1.
          6    2    1    2  501    0  0.15376241143E+02  0.31961225119E+02  0.30992553222E+03  0.35511749871E+03  0.16969576797E+03 0.  0.
         24    2    3    3    0    0 -0.15876811789E+02  0.40188772080E+02  0.72699574963E+02  0.11565415988E+03  0.78888820148E+02 0.  0.
         -6    2    1    2    0  502 -0.15376241143E+02 -0.31961225119E+02  0.13724161892E+04  0.13836709094E+04  0.17251388473E+03 0.  0.
        -24    2    5    5    0    0 -0.54669913727E+01  0.44133499919E+02  0.70066047376E+03  0.70753007227E+03  0.87727132964E+02 0.  0.
          5    1    3    3  501    0  0.31253052932E+02 -0.82275469613E+01  0.23722595726E+03  0.23946333883E+03  0.47000000000E+01 0. -1.
        -13    1    4    4    0    0  0.14448725368E+02 -0.15930410008E+02  0.39441107157E+01  0.21865489639E+02  0.00000000000E+00 0.  1.
         14    1    4    4    0    0 -0.30325537157E+02  0.56119182088E+02  0.68755464247E+02  0.93788670243E+02  0.00000000000E+00 0. -1.
         -5    1    5    5    0  502 -0.99092497701E+01 -0.76094725037E+02  0.67175571544E+03  0.67614083713E+03  0.47000000000E+01 0.  1.
         13    1    6    6    0    0 -0.27032333626E+02  0.13135504400E+02  0.58683962998E+03  0.58760874726E+03  0.00000000000E+00 0. -1.
        -14    1    6    6    0    0  0.21565342253E+02  0.30997995519E+02  0.11382084378E+03  0.11992132501E+03  0.00000000000E+00 0.  1.
</event>
<event>
12    1  0.8451514E-002  0.1820507E+03  0.7818608E-02  0.1166154E+00
         21   -1    0    0  501  502  0.00000000000E+00  0.00000000000E+00  0.58763501063E+03  0.58763501063E+03  0.00000000000E+00 0.  1.
         21   -1    0    0  502  503 -0.00000000000E+00 -0.00000000000E+00 -0.59805201348E+02  0.59805201348E+02  0.00000000000E+00 0.  1.
         -6    2    1    2    0  503  0.11783449915E+00 -0.57897103728E+02  0.18301633412E+03  0.25814229825E+03  0.17259889654E+03 0.  0.
        -24    2    3    3    0    0 -0.23079668979E+02 -0.10057175595E+03  0.13534921481E+03  0.18992577259E+03  0.84291398901E+02 0.  0.
          6    2    1    2  501    0 -0.11783449915E+00  0.57897103728E+02  0.34481347516E+03  0.38929791372E+03  0.17118540963E+03 0.  0.
         24    2    5    5    0    0  0.22889791075E+02  0.83056357537E+02  0.33250834751E+03  0.35274869959E+03  0.80296592958E+02 0.  0.
          5    1    5    5  501    0 -0.23007625574E+02 -0.25159253810E+02  0.12305127653E+02  0.36549214128E+02  0.47000000000E+01 0. -1.
        -11    1    6    6    0    0 -0.14074232846E+02  0.12906307153E+02  0.17857532676E+03  0.17959344120E+03  0.00000000000E+00 0.  1.
         12    1    6    6    0    0  0.36964023921E+02  0.70150050385E+02  0.15393302075E+03  0.17315525840E+03  0.00000000000E+00 0. -1.
         -5    1    3    3    0  503  0.23197503478E+02  0.42674652225E+02  0.47667119311E+02  0.68216525664E+02  0.47000000000E+01 0.  1.
         11    1    4    4    0    0 -0.49465067686E+01  0.10373190491E+02  0.42792154802E+02  0.44308458817E+02  0.00000000000E+00 0. -1.
        -12    1    4    4    0    0 -0.18133162211E+02 -0.11094494644E+03  0.92557060005E+02  0.14561731377E+03  0.00000000000E+00 0.  1.
</event>
<event>
12    1  0.8451514E-002  0.2669726E+03  0.7818608E-02  0.1103183E+00
         21   -1    0    0  501  502  0.00000000000E+00  0.00000000000E+00  0.38273011077E+03  0.38273011077E+03  0.00000000000E+00 0. -1.
         21   -1    0    0  502  503 -0.00000000000E+00 -0.00000000000E+00 -0.45895947109E+03  0.45895947109E+03  0.00000000000E+00 0.  1.
         -6    2    1    2    0  503 -0.20198404675E+03 -0.26739405985E+02 -0.36301417975E+03  0.45061475680E+03  0.17251612496E+03 0.  0.
        -24    2    3    3    0    0 -0.16243425902E+03 -0.37174570052E+02 -0.36525340564E+03  0.40938148757E+03  0.80101903060E+02 0.  0.
          6    2    1    2  501    0  0.20198404675E+03  0.26739405985E+02  0.28678481942E+03  0.39107482507E+03  0.17082574505E+03 0.  0.
         24    2    5    5    0    0  0.13239217979E+03  0.61624526231E+02  0.11572019938E+03  0.20307165011E+03  0.80756789384E+02 0.  0.
          5    1    5    5  501    0  0.69591866964E+02 -0.34885120246E+02  0.17106462004E+03  0.18800317495E+03  0.47000000000E+01 0. -1.
        -13    1    6    6    0    0  0.88802709478E+01  0.13836458023E+02 -0.10996474665E+02  0.19779515610E+02  0.00000000000E+00 0.  1.
         14    1    6    6    0    0  0.12351190884E+03  0.47788068208E+02  0.12671667405E+03  0.18329213450E+03  0.00000000000E+00 0. -1.
         -5    1    3    3    0  503 -0.39549787732E+02  0.10435164067E+02  0.22392258868E+01  0.41233269229E+02  0.47000000000E+01 0.  1.
         11    1    4    4    0    0 -0.27684181448E+02 -0.41689089784E+02 -0.10137463593E+03  0.11305401771E+03  0.00000000000E+00 0. -1.
        -12    1    4    4    0    0 -0.13475007757E+03  0.45145197326E+01 -0.26387876970E+03  0.29632746986E+03  0.00000000000E+00 0.  1.
</event>
<event>
12    1  0.8451514E-002  0.2202696E+03  0.7818608E-02  0.1133917E+00
         21   -1    0    0  501  502  0.00000000000E+00  0.00000000000E+00  0.80131990860E+03  0.80131990860E+03  0.00000000000E+00 0. -1.
         21   -1    0    0  502  503 -0.00000000000E+00 -0.00000000000E+00 -0.21861356362E+03  0.21861356362E+03  0.00000000000E+00 0.  1.
         -6    2    1    2    0  503 -0.12915717673E+03 -0.46315958833E+02 -0.14252212183E+03  0.26235713456E+03  0.17231357028E+03 0.  0.
        -24    2    3    3    0    0 -0.10817044354E+03  0.17733078816E+02 -0.44051416495E+02  0.14293648307E+03  0.80467409281E+02 0.  0.
          6    2    1    2  501    0  0.12915717673E+03  0.46315958833E+02  0.72522846681E+03  0.75757633766E+03  0.17070100748E+03 0.  0.
         24    2    5    5    0    0  0.99534670523E+02  0.52245223371E+02  0.30007916927E+03  0.33132915086E+03  0.84230543017E+02 0.  0.
          5    1    5    5  501    0  0.29622506208E+02 -0.59292645379E+01  0.42514929754E+03  0.42624718680E+03  0.47000000000E+01 0. -1.
        -13    1    6    6    0    0 -0.91477758707E+01 -0.11312423141E+02  0.29495781606E+02  0.32888506401E+02  0.00000000000E+00 0.  1.
         14    1    6    6    0    0  0.10868244639E+03  0.63557646512E+02  0.27058338766E+03  0.29844064445E+03  0.00000000000E+00 0. -1.
         -5    1    3    3    0  503 -0.20986733187E+02 -0.64049037649E+02 -0.98470705334E+02  0.11942065149E+03  0.47000000000E+01 0.  1.
         11    1    4    4    0    0 -0.10099800394E+03  0.36662468166E+02 -0.54143789986E+02  0.12031742753E+03  0.00000000000E+00 0. -1.
        -12    1    4    4    0    0 -0.71724396015E+01 -0.18929389350E+02  0.10092373491E+02  0.22619055544E+02  0.00000000000E+00 0.  1.
</event>
<event>
12    1  0.8451514E-002  0.1793251E+03  0.7818608E-02  0.1168748E+00
         21   -1    0    0  501  502  0.00000000000E+00  0.00000000000E+00  0.19602629866E+03  0.19602629866E+03  0.00000000000E+00 0. -1.
         21   -1    0    0  502  503 -0.00000000000E+00 -0.00000000000E+00 -0.16913633515E+03  0.16913633515E+03  0.00000000000E+00 0. -1.
         -6    2    1    2    0  503 -0.24293592786E+02 -0.40805187435E+02  0.48287744329E+02  0.18456537865E+03  0.17168992623E+03 0.  0.
        -24    2    3    3    0    0 -0.56741040315E+02 -0.80920927105E+02  0.28730607394E+02  0.12918775658E+03  0.78078720211E+02 0.  0.
          6    2    1    2  501    0  0.24293592786E+02  0.40805187435E+02 -0.21397780812E+02  0.18059725517E+03  0.17292270405E+03 0.  0.
         24    2    5    5    0    0 -0.15339964538E+02 -0.25846007246E+02  0.25497001112E+02  0.89853598691E+02  0.80748012542E+02 0.  0.
          5    1    5    5  501    0  0.39633557324E+02  0.66651194681E+02 -0.46894781924E+02  0.90743656474E+02  0.47000000000E+01 0. -1.
        -13    1    6    6    0    0 -0.46090615524E+02 -0.10262938630E+02  0.28657775315E+02  0.55235322346E+02  0.00000000000E+00 0.  1.
         14    1    6    6    0    0  0.30750650986E+02 -0.15583068616E+02 -0.31607742028E+01  0.34618276345E+02  0.00000000000E+00 0. -1.
         -5    1    3    3    0  503  0.32447447530E+02  0.40115739670E+02  0.19557136935E+02  0.55377622065E+02  0.47000000000E+01 0.  1.
         11    1    4    4    0    0 -0.30139440389E+02  0.61871593777E+01  0.22070365559E+02  0.37865127017E+02  0.00000000000E+00 0. -1.
        -12    1    4    4    0    0 -0.26601599926E+02 -0.87108086483E+02  0.66602418354E+01  0.91322629565E+02  0.00000000000E+00 0.  1.
</event>
<event>
12    1  0.8451514E-002  0.3037772E+03  0.7818608E-02  0.1083616E+00
         21   -1    0    0  503  502  0.00000000000E+00  0.00000000000E+00  0.18273441457E+03  0.18273441457E+03  0.00000000000E+00 0.  1.
         21   -1    0    0  501  503 -0.00000000000E+00 -0.00000000000E+00 -0.61178316136E+03  0.61178316136E+03  0.00000000000E+00 0.  1.
          6    2    1    2  501    0  0.25015933667E+03  0.75530052010E+01 -0.38248761043E+03  0.48719277909E+03  0.16859208242E+03 0.  0.
         24    2    3    3    0    0  0.10836300020E+03  0.64305015925E+02 -0.19432241586E+03  0.24479801387E+03  0.79291811719E+02 0.  0.
         -6    2    1    2    0  502 -0.25015933667E+03 -0.75530052010E+01 -0.46561136363E+02  0.30732479684E+03  0.17217389385E+03 0.  0.
        -24    2    5    5    0    0 -0.22084145496E+03  0.33750658041E+02 -0.74174592666E+02  0.24944454326E+03  0.82526691554E+02 0.  0.
          5    1    3    3  501    0  0.14179633647E+03 -0.56752010724E+02 -0.18816519457E+03  0.24239476522E+03  0.47000000000E+01 0. -1.
        -13    1    4    4    0    0  0.90145192128E+02  0.93300833530E+01 -0.11043049942E+03  0.14285692605E+03  0.00000000000E+00 0.  1.
         14    1    4    4    0    0  0.18217808072E+02  0.54974932571E+02 -0.83891916440E+02  0.10194108782E+03  0.00000000000E+00 0. -1.
         -5    1    5    5    0  502 -0.29317881705E+02 -0.41303663242E+02  0.27613456303E+02  0.57880253575E+02  0.47000000000E+01 0.  1.
         11    1    6    6    0    0 -0.99745208920E+02  0.56648597096E+02 -0.40991871184E+02  0.12181339729E+03  0.00000000000E+00 0. -1.
        -12    1    6    6    0    0 -0.12109624604E+03 -0.22897939054E+02 -0.33182721482E+02  0.12763114598E+03  0.00000000000E+00 0.  1.
</event>
<event>
12    1  0.8451514E-002  0.1876947E+03  0.7818608E-02  0.1163701E+00
         21   -1    0    0  501  502  0.00000000000E+00  0.00000000000E+00  0.67861461954E+03  0.67861461954E+03  0.00000000000E+00 0.  1.
         21   -1    0    0  502  503 -0.00000000000E+00 -0.00000000000E+00 -0.52402296505E+02  0.52402296505E+02  0.00000000000E+00 0.  1.
         -6    2    1    2    0  503 -0.27433239157E+02 -0.70000645699E+02  0.20072671967E+03  0.26597142895E+03  0.15747035283E+03 0.  0.
        -24    2    3    3    0    0 -0.33947233150E+02 -0.18819538156E+01  0.17037250957E+03  0.19096438680E+03  0.79275775740E+02 0.  0.
          6    2    1    2  501    0  0.27433239157E+02  0.70000645699E+02  0.42548560337E+03  0.46504548709E+03  0.17197858409E+03 0.  0.
         24    2    5    5    0    0  0.37799895211E+02  0.11034948192E+03  0.36498671891E+03  0.39144045219E+03  0.80028010082E+02 0.  0.
          5    1    5    5  501    0 -0.10366656054E+02 -0.40348836217E+02  0.60498884458E+02  0.73605034899E+02  0.47000000000E+01 0. -1.
        -11    1    6    6    0    0  0.50640700386E+02  0.29396135174E+02  0.17468351182E+03  0.18423610559E+03  0.00000000000E+00 0.  1.
         12    1    6    6    0    0 -0.12840805175E+02  0.80953346743E+02  0.19030320708E+03  0.20720434661E+03  0.00000000000E+00 0. -1.
         -5    1    3    3    0  503  0.65139939934E+01 -0.68118691884E+02  0.30354210096E+02  0.75007042151E+02  0.47000000000E+01 0.  1.
         13    1    4    4    0    0  0.21442821140E+02  0.16880136548E+02  0.64010005312E+02  0.69584584273E+02  0.00000000000E+00 0. -1.
        -14    1    4    4    0    0 -0.55390054290E+02 -0.18762090364E+02  0.10636250426E+03  0.12137980252E+03  0.00000000000E+00 0.  1.
</event>
<event>
12    1  0.8451514E-002  0.3315704E+03  0.7818608E-02  0.1070497E+00
         21   -1    0    0  503  502  0.00000000000E+00  0.00000000000E+00  0.25563556119E+03  0.25563556119E+03  0.00000000000E+00 0. -1.
         21   -1    0    0  501  503 -0.00000000000E+00 -0.00000000000E+00 -0.16681052769E+04  0.16681052769E+04  0.00000000000E+00 0. -1.
          6    2    1    2  501    0 -0.14845868504E+02 -0.28235466624E+03 -0.15352278267E+04  0.15706251574E+04  0.17318876407E+03 0.  0.
         24    2    3    3    0    0  0.61983859115E+02 -0.13158092907E+03 -0.72782854888E+03  0.74566987946E+03  0.71649374637E+02 0.  0.
         -6    2    1    2    0  502  0.14845868504E+02  0.28235466624E+03  0.12275811098E+03  0.35311568064E+03  0.17226889661E+03 0.  0.
        -24    2    5    5    0    0 -0.51160974357E+02  0.21616035351E+03  0.10492259825E+03  0.25783301770E+03  0.78271129191E+02 0.  0.
          5    1    3    3  501    0 -0.76829727620E+02 -0.15077373717E+03 -0.80739927780E+03  0.82495527797E+03  0.47000000000E+01 0. -1.
        -13    1    4    4    0    0  0.52467198361E+02 -0.46080080384E+02 -0.22671245171E+03  0.23722292569E+03  0.00000000000E+00 0.  1.
         14    1    4    4    0    0  0.95166607539E+01 -0.85500848689E+02 -0.50111609717E+03  0.50844695377E+03  0.00000000000E+00 0. -1.
         -5    1    5    5    0  502  0.66006842862E+02  0.66194312732E+02  0.17835512735E+02  0.95282662941E+02  0.47000000000E+01 0.  1.
         11    1    6    6    0    0  0.51140590958E+01  0.13759207764E+03  0.74296262248E+02  0.15645340525E+03  0.00000000000E+00 0. -1.
        -12    1    6    6    0    0 -0.56275033453E+02  0.78568275865E+02  0.30626336000E+02  0.10137961244E+03  0.00000000000E+00 0.  1.
</event>
<event>
12    1  0.8451514E-002  0.1854715E+03  0.7818608E-02  0.1164528E+00
         21   -1    0    0  501  502  0.00000000000E+00  0.00000000000E+00  0.39918306150E+03  0.39918306150E+03  0.00000000000E+00 0. -1.
         21   -1    0    0  502  503 -0.00000000000E+00 -0.00000000000E+00 -0.92490484852E+02  0.92490484852E+02  0.00000000000E+00 0. -1.
         -6    2    1    2    0  503 -0.10575834610E+02 -0.42111324640E+02  0.69441973229E+02  0.19052985514E+03  0.17202972450E+03 0.  0.
        -24    2    3    3    0    0 -0.26170097867E+02  0.27883497076E+02  0.78522477473E+02  0.11809366480E+03  0.79485663895E+02 0.  0.
          6    2    1    2  501    0  0.10575834610E+02  0.42111324640E+02  0.23725060342E+03  0.30114369122E+03  0.18031766967E+03 0.  0.
         24    2    5    5    0    0  0.49586806194E+01 -0.34686797308E+02  0.53754876275E+02  0.10209024153E+03  0.79404460017E+02 0.  0.
          5    1    5    5  501    0  0.56171539906E+01  0.76798121948E+02  0.18349572715E+03  0.19905344969E+03  0.47000000000E+01 0. -1.
        -11    1    6    6    0    0 -0.28097193008E+02 -0.16800586013E+02 -0.42101083343E+01  0.33006619904E+02  0.00000000000E+00 0.  1.
         12    1    6    6    0    0  0.33055873627E+02 -0.17886211296E+02  0.57964984609E+02  0.69083621623E+02  0.00000000000E+00 0. -1.
         -5    1    3    3    0  503  0.15594263257E+02 -0.69994821716E+02 -0.90805042439E+01  0.72436190339E+02  0.47000000000E+01 0.  1.
         11    1    4    4    0    0 -0.39197833403E+02  0.59887378647E+01  0.83222452941E+02  0.92186288558E+02  0.00000000000E+00 0. -1.
        -12    1    4    4    0    0  0.13027735536E+02  0.21894759211E+02 -0.46999754672E+01  0.25907376238E+02  0.00000000000E+00 0.  1.
</event>
<event>
12    1  0.8451514E-002  0.1871591E+03  0.7818608E-02  0.1161479E+00
         21   -1    0    0  503  502  0.00000000000E+00  0.00000000000E+00  0.87818938927E+03  0.87818938927E+03  0.00000000000E+00 0.  1.
         21   -1    0    0  501  503 -0.00000000000E+00 -0.00000000000E+00 -0.42078726983E+02  0.42078726983E+02  0.00000000000E+00 0. -1.
          6    2    1    2  501    0  0.68194765393E+02  0.25368778630E+02  0.53411099576E+03  0.56595323912E+03  0.17243669017E+03 0.  0.
         24    2    3    3    0    0  0.30356989712E+02  0.82072929696E+02  0.30874204576E+03  0.33045310824E+03  0.78867568205E+02 0.  0.
         -6    2    1    2    0  502 -0.68194765393E+02 -0.25368778630E+02  0.30199966652E+03  0.35431487713E+03  0.17041459040E+03 0.  0.
        -24    2    5    5    0    0 -0.70555065405E+02 -0.10387332652E+02  0.82746004935E+02  0.13448705164E+03  0.78447127373E+02 0.  0.
          5    1    3    3  501    0  0.37837775681E+02 -0.56704151066E+02  0.22536895000E+03  0.23550013087E+03  0.47000000000E+01 0. -1.
        -11    1    4    4    0    0  0.34365812074E+01 -0.12215941414E+02  0.88021377194E+02  0.88931446397E+02  0.00000000000E+00 0.  1.
         12    1    4    4    0    0  0.26920408504E+02  0.94288871110E+02  0.22072066857E+03  0.24152166185E+03  0.00000000000E+00 0. -1.
         -5    1    5    5    0  502  0.23603000125E+01 -0.14981445978E+02  0.21925366159E+03  0.21982782549E+03  0.47000000000E+01 0.  1.
         13    1    6    6    0    0 -0.29717960897E+02  0.29923730910E+02  0.12919354570E+02  0.44107783825E+02  0.00000000000E+00 0. -1.
        -14    1    6    6    0    0 -0.40837104509E+02 -0.40311063563E+02  0.69826650365E+02  0.90379267818E+02  0.00000000000E+00 0.  1.
</event>
<event>
12    1  0.8451514E-002  0.2035835E+03  0.7818608E-02  0.1146761E+00
         21   -1    0    0  501  502  0.00000000000E+00  0.00000000000E+00  0.36967734944E+03  0.36967734944E+03  0.00000000000E+00 0.  1.
         21   -1    0    0  502  503 -0.00000000000E+00 -0.00000000000E+00 -0.21125213505E+03  0.21125213505E+03  0.00000000000E+00 0.  1.
         -6    2    1    2    0  503 -0.45173585331E+01 -0.10830689050E+03 -0.11979246949E+03  0.23621281318E+03  0.17232373112E+03 0.  0.
        -24    2    3    3    0    0  0.15402515665E+02 -0.14183447534E+03 -0.93389348005E+02  0.18888295835E+03  0.81246204532E+02 0.  0.
          6    2    1    2  501    0  0.45173585331E+01  0.10830689050E+03  0.27821768388E+03  0.34471667131E+03  0.17226060141E+03 0.  0.
         24    2    5    5    0    0 -0.33523598727E+02  0.27354962221E+01  0.93653355364E+02  0.12866455936E+03  0.81561653074E+02 0.  0.
          5    1    5    5  501    0  0.38040957260E+02  0.10557139428E+03  0.18456432852E+03  0.21605211195E+03  0.47000000000E+01 0. -1.
        -11    1    6    6    0    0 -0.31931979240E+02  0.13357094611E+02  0.10646287753E+03  0.11194823610E+03  0.00000000000E+00 0.  1.
         12    1    6    6    0    0 -0.15916194868E+01 -0.10621598389E+02 -0.12809522167E+02  0.16716323252E+02  0.00000000000E+00 0. -1.
         -5    1    3    3    0  503 -0.19919874198E+02  0.33527584845E+02 -0.26403121482E+02  0.47329854823E+02  0.47000000000E+01 0.  1.
         11    1    4    4    0    0  0.79564936521E+01 -0.79181787580E+02 -0.42763176941E+01  0.79695345966E+02  0.00000000000E+00 0. -1.
        -12    1    4    4    0    0  0.74460220126E+01 -0.62652687764E+02 -0.89113030310E+02  0.10918761239E+03  0.00000000000E+00 0.  1.
</event>
<event>
12    1  0.8451514E-002  0.2223524E+03  0.7818608E-02  0.1132243E+00
         21   -1    0    0  503  502  0.00000000000E+00  0.00000000000E+00  0.36383829124E+03  0.36383829124E+03  0.00000000000E+00 0.  1.
         21   -1    0    0  501  503 -0.00000000000E+00 -0.00000000000E+00 -0.27176069224E+03  0.27176069224E+03  0.00000000000E+00 0.  1.
          6    2    1    2  501    0  0.12207825117E+03 -0.71261208538E+02 -0.17892460803E+03  0.28540251397E+03  0.17163717653E+03 0.  0.
         24    2    3    3    0    0  0.13760563746E+03 -0.10237485697E+03 -0.14511258581E+03  0.23667365506E+03  0.74436776088E+02 0.  0.
         -6    2    1    2    0  502 -0.12207825117E+03  0.71261208538E+02  0.27100220704E+03  0.35019646952E+03  0.17092136142E+03 0.  0.
        -24    2    5    5    0    0 -0.22851473855E+02 -0.20019768197E+02  0.10657720362E+03  0.13750927715E+03  0.81407124952E+02 0.  0.
          5    1    3    3  501    0 -0.15527386289E+02  0.31113648436E+02 -0.33812022221E+02  0.48728858910E+02  0.47000000000E+01 0. -1.
        -11    1    4    4    0    0  0.98251705245E+02 -0.63613013971E+02 -0.51275784696E+02  0.12778583343E+03  0.00000000000E+00 0.  1.
         12    1    4    4    0    0  0.39353932218E+02 -0.38761843004E+02 -0.93836801116E+02  0.10888782162E+03  0.00000000000E+00 0. -1.
         -5    1    5    5    0  502 -0.99226777319E+02  0.91280976735E+02  0.16442500341E+03  0.21268719237E+03  0.47000000000E+01 0.  1.
         13    1    6    6    0    0 -0.23095644321E+02  0.37720689184E+01 -0.45701905285E+01  0.23843739892E+02  0.00000000000E+00 0. -1.
        -14    1    6    6    0    0  0.24417046635E+00 -0.23791837115E+02  0.11114739415E+03  0.11366553725E+03  0.00000000000E+00 0.  1.
</event>
<event>
12    1  0.8451514E-002  0.1829761E+03  0.7818608E-02  0.1165098E+00
         21   -1    0    0  501  502  0.00000000000E+00  0.00000000000E+00  0.73758512719E+02  0.73758512719E+02  0.00000000000E+00 0. -1.
         21   -1    0    0  502  503 -0.00000000000E+00 -0.00000000000E+00 -0.90402893853E+03  0.90402893853E+03  0.00000000000E+00 0. -1.
         -6    2    1    2    0  503 -0.48335995938E+02  0.36357468170E+02 -0.76033824383E+03  0.78190292592E+03  0.17204565246E+03 0.  0.
        -24    2    3    3    0    0 -0.60927758250E+02 -0.19434540641E+02 -0.28066709574E+03  0.29881100812E+03  0.80150526202E+02 0.  0.
          6    2    1    2  501    0  0.48335995938E+02 -0.36357468170E+02 -0.69932181981E+02  0.19588452533E+03  0.17269048379E+03 0.  0.
         24    2    5    5    0    0  0.43235253617E+02 -0.91141713512E+02 -0.47351405731E+02  0.13622455076E+03  0.78350963665E+02 0.  0.
          5    1    5    5  501    0  0.51007423217E+01  0.54784245343E+02 -0.22580776250E+02  0.59659974573E+02  0.47000000000E+01 0. -1.
        -11    1    6    6    0    0  0.47681555248E+02 -0.30681045617E+02 -0.49923462958E+02  0.75546074846E+02  0.00000000000E+00 0.  1.
         12    1    6    6    0    0 -0.44463016307E+01 -0.60460667896E+02  0.25720572276E+01  0.60678475912E+02  0.00000000000E+00 0. -1.
         -5    1    3    3    0  503  0.12591762312E+02  0.55792008811E+02 -0.47967114809E+03  0.48309191780E+03  0.47000000000E+01 0.  1.
         11    1    4    4    0    0 -0.55387695754E+02 -0.85653973387E+01 -0.28107132702E+03  0.28660469944E+03  0.00000000000E+00 0. -1.
        -12    1    4    4    0    0 -0.55400624960E+01 -0.10869143303E+02  0.40423128099E+00  0.12206308677E+02  0.00000000000E+00 0.  1.
</event>
<event>
12    1  0.8451514E-002  0.1875184E+03  0.7818608E-02  0.1162040E+00
         21   -1    0    0  501  502  0.00000000000E+00  0.00000000000E+00  0.40711186459E+03  0.40711186459E+03  0.00000000000E+00 0.  1.
         21   -1    0    0  502  503 -0.00000000000E+00 -0.00000000000E+00 -0.36948842345E+03  0.36948842345E+03  0.00000000000E+00 0.  1.
         -6    2    1    2    0  503 -0.65444897340E+02  0.31054511676E+02 -0.32256367523E+03  0.37310922135E+03  0.17296169864E+03 0.  0.
        -24    2    3    3    0    0 -0.93236338073E+02 -0.35298949810E+01 -0.29838684736E+03  0.32236422783E+03  0.78603497423E+02 0.  0.
          6    2    1    2  501    0  0.65444897340E+02 -0.31054511676E+02  0.36018711636E+03  0.40349106669E+03  0.16680187296E+03 0.  0.
         24    2    5    5    0    0  0.30745892954E+01 -0.39900490152E+02  0.93555899142E+02  0.12947901831E+03  0.80066270706E+02 0.  0.
          5    1    5    5  501    0  0.62370308045E+02  0.88459784755E+01  0.26663121722E+03  0.27401204838E+03  0.47000000000E+01 0. -1.
        -13    1    6    6    0    0 -0.64273750161E+01 -0.15431018151E+02  0.10085705191E+03  0.10223293203E+03  0.00000000000E+00 0.  1.
         14    1    6    6    0    0  0.95019643116E+01 -0.24469472001E+02 -0.73011527722E+01  0.27246086280E+02  0.00000000000E+00 0. -1.
         -5    1    3    3    0  503  0.27791440733E+02  0.34584406657E+02 -0.24176827861E+02  0.50744993519E+02  0.47000000000E+01 0.  1.
         13    1    4    4    0    0 -0.11697913738E+02 -0.31649990746E+02 -0.59760597317E+02  0.68628653577E+02  0.00000000000E+00 0. -1.
        -14    1    4    4    0    0 -0.81538424335E+02  0.28120095765E+02 -0.23862625005E+03  0.25373557425E+03  0.00000000000E+00 0.  1.
</event>
<event>
12    1  0.8451514E-002  0.2014381E+03  0.7818608E-02  0.1151407E+00
         21   -1    0    0  501  502  0.00000000000E+00  0.00000000000E+00  0.46914961750E+03  0.46914961750E+03  0.00000000000E+00 0. -1.
         21   -1    0    0  502  503 -0.00000000000E+00 -0.00000000000E+00 -0.49409334421E+03  0.49409334421E+03  0.00000000000E+00 0.  1.
         -6    2    1    2    0  503 -0.56732250193E+01 -0.10539381227E+03 -0.45293694490E+03  0.49571076861E+03  0.17157286764E+03 0.  0.
        -24    2    3    3    0    0 -0.33634133557E+02 -0.65906177088E+01 -0.10720135842E+03  0.13501828266E+03  0.74586287098E+02 0.  0.
          6    2    1    2  501    0  0.56732250193E+01  0.10539381227E+03  0.42799321819E+03  0.46753219311E+03  0.15578226993E+03 0.  0.
         24    2    5    5    0    0  0.55107225784E+02  0.57236310049E+02  0.32190920653E+03  0.34088791577E+03  0.79159537320E+02 0.  0.
          5    1    5    5  501    0 -0.49434000764E+02  0.48157502217E+02  0.10608401167E+03  0.12664427734E+03  0.47000000000E+01 0. -1.
        -13    1    6    6    0    0 -0.18229599314E+02  0.87852553878E+01  0.10342354017E+03  0.10538466522E+03  0.00000000000E+00 0.  1.
         14    1    6    6    0    0  0.73336825097E+02  0.48451054661E+02  0.21848566636E+03  0.23550325054E+03  0.00000000000E+00 0. -1.
         -5    1    3    3    0  503  0.27960908538E+02 -0.98803194557E+02 -0.34573558648E+03  0.36069248595E+03  0.47000000000E+01 0.  1.
         11    1    4    4    0    0  0.17939103200E+02  0.15921592393E+02 -0.19967584787E+02  0.31209180864E+02  0.00000000000E+00 0. -1.
        -12    1    4    4    0    0 -0.51573236757E+02 -0.22512210101E+02 -0.87233773631E+02  0.10380910179E+03  0.00000000000E+00 0.  1.
</event>
<event>
12    1  0.8451514E-002  0.2495797E+03  0.7818608E-02  0.1113629E+00
         21   -1    0    0  501  502  0.00000000000E+00  0.00000000000E+00  0.51147337382E+03  0.51147337382E+03  0.00000000000E+00 0.  1.
         21   -1    0    0  502  503 -0.00000000000E+00 -0.00000000000E+00 -0.13298709711E+03  0.13298709711E+03  0.00000000000E+00 0. -1.
         -6    2    1    2    0  503 -0.12919148537E+03  0.12555016039E+03  0.95107022580E+02  0.26708680434E+03  0.17273312549E+03 0.  0.
        -24    2    3    3    0    0 -0.92095755756E+02  0.44320154372E+02  0.11793254514E+03  0.17479649329E+03  0.78738964625E+02 0.  0.
          6    2    1    2  501    0  0.12919148537E+03 -0.12555016039E+03  0.28337925413E+03  0.37737366660E+03  0.17220278715E+03 0.  0.
         24    2    5    5    0    0 -0.22660863608E+01 -0.51985065425E+02  0.14420150084E+03  0.17222627233E+03  0.78487157306E+02 0.  0.
          5    1    5    5  501    0  0.13145757173E+03 -0.73565094969E+02  0.13917775329E+03  0.20514739426E+03  0.47000000000E+01 0. -1.
        -11    1    6    6    0    0 -0.99827025224E+01 -0.44826827774E+02  0.24478130764E+02  0.52041115703E+02  0.00000000000E+00 0.  1.
         12    1    6    6    0    0  0.77166161616E+01 -0.71582376513E+01  0.11972337008E+03  0.12018515663E+03  0.00000000000E+00 0. -1.
         -5    1    3    3    0  503 -0.37095729614E+02  0.81230006022E+02 -0.22825522562E+02  0.92290311052E+02  0.47000000000E+01 0.  1.
         11    1    4    4    0    0 -0.79461396003E+02  0.65851730060E+02  0.86513557394E+02  0.13466684603E+03  0.00000000000E+00 0. -1.
        -12    1    4    4    0    0 -0.12634359753E+02 -0.21531575688E+02  0.31418987748E+02  0.40129647258E+02  0.00000000000E+00 0.  1.
</event>
<event>
12    1  0.8451514E-002  0.2551539E+03  0.7818608E-02  0.1110191E+00
         21   -1    0    0  501  502  0.00000000000E+00  0.00000000000E+00  0.82466543363E+02  0.82466543363E+02  0.00000000000E+00 0.  1.
         21   -1    0    0  502  503 -0.00000000000E+00 -0.00000000000E+00 -0.13112488964E+04  0.13112488964E+04  0.00000000000E+00 0. -1.
         -6    2    1    2    0  503 -0.12544426851E+03  0.13925475394E+03 -0.10553136837E+04  0.10857211835E+04  0.17313395447E+03 0.  0.
        -24    2    3    3    0    0 -0.35194136788E+02  0.15633965825E+02 -0.57103661304E+03  0.57781021025E+03  0.79364837838E+02 0.  0.
          6    2    1    2  501    0  0.12544426851E+03 -0.13925475394E+03 -0.17346866933E+03  0.30799425630E+03  0.17216541952E+03 0.  0.
         24    2    5    5    0    0  0.76240142627E+02 -0.38364239796E+02 -0.15914450830E+02  0.11448621095E+03  0.74628737834E+02 0.  0.
          5    1    5    5  501    0  0.49204125887E+02 -0.10089051414E+03 -0.15755421850E+03  0.19350804535E+03  0.47000000000E+01 0. -1.
        -13    1    6    6    0    0  0.73291063526E+02 -0.51926694749E+02 -0.30011812699E+02  0.94703065007E+02  0.00000000000E+00 0.  1.
         14    1    6    6    0    0  0.29490791013E+01  0.13562454953E+02  0.14097361869E+02  0.19783145947E+02  0.00000000000E+00 0. -1.
         -5    1    3    3    0  503 -0.90250131727E+02  0.12362078811E+03 -0.48427707067E+03  0.50791097321E+03  0.47000000000E+01 0.  1.
         13    1    4    4    0    0 -0.32611461319E+02 -0.16238907940E+02 -0.11452044302E+03  0.12017546093E+03  0.00000000000E+00 0. -1.
        -14    1    4    4    0    0 -0.25826754689E+01  0.31872873765E+02 -0.45651617001E+03  0.45763474931E+03  0.00000000000E+00 0.  1.
</event>
<event>
12    1  0.8451514E-002  0.2129668E+03  0.7818608E-02  0.1139310E+00
         21   -1    0    0  501  502  0.00000000000E+00  0.00000000000E+00  0.51653623900E+02  0.51653623900E+02  0.00000000000E+00 0.  1.
         21   -1    0    0  502  503 -0.00000000000E+00 -0.00000000000E+00 -0.93833583021E+03  0.93833583021E+03  0.00000000000E+00 0.  1.
         -6    2    1    2    0  503 -0.27492861352E+01 -0.12509898856E+03 -0.57072804553E+03  0.60916776562E+03  0.17232976876E+03 0.  0.
        -24    2    3    3    0    0 -0.48960412725E+02 -0.51773362523E+02 -0.43994820230E+03  0.45220416140E+03  0.76528294109E+02 0.  0.
          6    2    1    2  501    0  0.27492861352E+01  0.12509898856E+03 -0.31595416077E+03  0.38082168849E+03  0.17187440530E+03 0.  0.
         24    2    5    5    0    0  0.34045760714E+02  0.52661751149E+02 -0.67611049999E+02  0.12020124924E+03  0.77101960934E+02 0.  0.
          5    1    5    5  501    0 -0.31296474578E+02  0.72437237408E+02 -0.24834311077E+03  0.26062043925E+03  0.47000000000E+01 0. -1.
        -13    1    6    6    0    0 -0.22030315537E+02  0.22641891824E+02 -0.70342413149E+01  0.32364650762E+02  0.00000000000E+00 0.  1.
         14    1    6    6    0    0  0.56076076251E+02  0.30019859325E+02 -0.60576808684E+02  0.87836598477E+02  0.00000000000E+00 0. -1.
         -5    1    3    3    0  503  0.46211126590E+02 -0.73325626035E+02 -0.13077984323E+03  0.15696360422E+03  0.47000000000E+01 0.  1.
         11    1    4    4    0    0 -0.37022925058E+02  0.11683502927E+02 -0.19916419612E+03  0.20291273552E+03  0.00000000000E+00 0. -1.
        -12    1    4    4    0    0 -0.11937487666E+02 -0.63456865450E+02 -0.24078400618E+03  0.24929142588E+03  0.00000000000E+00 0.  1.
</event>
<event>
12    1  0.8451514E-002  0.2603381E+03  0.7818608E-02  0.1107503E+00
         21   -1    0    0  503  502  0.00000000000E+00  0.00000000000E+00  0.46221229471E+03  0.46221229471E+03  0.00000000000E+00 0.  1.
         21   -1    0    0  501  503 -0.00000000000E+00 -0.00000000000E+00 -0.18914485728E+03  0.18914485728E+03  0.00000000000E+00 0. -1.
          6    2    1    2  501    0  0.13003443769E+03  0.14560427165E+03 -0.22361196580E+02  0.25758820217E+03  0.16655959857E+03 0.  0.
         24    2    3    3    0    0  0.10395314094E+03  0.13259154475E+03 -0.66433912992E+02  0.20454049314E+03  0.95060903041E+02 0.  0.
         -6    2    1    2    0  502 -0.13003443769E+03 -0.14560427165E+03  0.29542863402E+03  0.39376894982E+03  0.17223922066E+03 0.  0.
        -24    2    5    5    0    0 -0.25198126289E+02 -0.68642363629E+01  0.10957226250E+03  0.13920239582E+03  0.81787303315E+02 0.  0.
          5    1    3    3  501    0  0.26081296749E+02  0.13012726899E+02  0.44072716413E+02  0.53047709031E+02  0.47000000000E+01 0. -1.
        -11    1    4    4    0    0  0.96104824575E+02  0.75039940484E+02 -0.80679072919E+01  0.12219746766E+03  0.00000000000E+00 0.  1.
         12    1    4    4    0    0  0.78483163649E+01  0.57551604270E+02 -0.58366005700E+02  0.82343025480E+02  0.00000000000E+00 0. -1.
         -5    1    5    5    0  502 -0.10483631140E+03 -0.13874003529E+03  0.18585637152E+03  0.25456655400E+03  0.47000000000E+01 0.  1.
         13    1    6    6    0    0 -0.37207332445E+02 -0.37566621340E+02  0.68732682066E+02  0.86716885384E+02  0.00000000000E+00 0. -1.
        -14    1    6    6    0    0  0.12009206156E+02  0.30702384978E+02  0.40839580429E+02  0.52485510433E+02  0.00000000000E+00 0.  1.
</event>
<event>
12    1  0.8451514E-002  0.2807928E+03  0.7818608E-02  0.1095668E+00
         21   -1    0    0  503  502  0.00000000000E+00  0.00000000000E+00  0.15119574012E+04  0.15119574012E+04  0.00000000000E+00 0.  1.
         21   -1    0    0  501  503 -0.00000000000E+00 -0.00000000000E+00 -0.15335415219E+03  0.15335415219E+03  0.00000000000E+00 0. -1.
          6    2    1    2  501    0 -0.96321591077E+02 -0.19576875854E+03  0.22475052468E+01  0.28080183371E+03  0.17675226394E+03 0.  0.
         24    2    3    3    0    0 -0.43164689294E+02 -0.22996271009E+02  0.20995027739E+02  0.99006486540E+02  0.83483377417E+02 0.  0.
         -6    2    1    2    0  502  0.96321591077E+02  0.19576875854E+03  0.13563557437E+04  0.13845097196E+04  0.17193895577E+03 0.  0.
        -24    2    5    5    0    0 -0.87644480572E+01  0.43225309401E+02  0.48927521824E+03  0.49785121313E+03  0.80748673702E+02 0.  0.
          5    1    3    3  501    0 -0.53156901782E+02 -0.17277248753E+03 -0.18747522492E+02  0.18179534717E+03  0.47000000000E+01 0. -1.
        -13    1    4    4    0    0  0.13574292982E+02 -0.24754992126E+02 -0.14820498226E+02  0.31886019394E+02  0.00000000000E+00 0.  1.
         14    1    4    4    0    0 -0.56738982277E+02  0.17587211172E+01  0.35815525965E+02  0.67120467146E+02  0.00000000000E+00 0. -1.
         -5    1    5    5    0  502  0.10508603913E+03  0.15254344914E+03  0.86708052549E+03  0.88665850652E+03  0.47000000000E+01 0.  1.
         13    1    6    6    0    0  0.19191919774E+01  0.27133692012E+02  0.41259366763E+02  0.49419185401E+02  0.00000000000E+00 0. -1.
        -14    1    6    6    0    0 -0.10683640035E+02  0.16091617389E+02  0.44801585148E+03  0.44843202773E+03  0.00000000000E+00 0.  1.
</event>
<event>
12    1  0.8451514E-002  0.2765599E+03  0.7818608E-02  0.1097657E+00
         21   -1    0    0  501  502  0.00000000000E+00  0.00000000000E+00  0.24260707164E+03  0.24260707164E+03  0.00000000000E+00 0. -1.
         21   -1    0    0  502  503 -0.00000000000E+00 -0.00000000000E+00 -0.56830149784E+03  0.56830149784E+03  0.00000000000E+00 0. -1.
         -6    2    1    2    0  503 -0.21085538241E+03 -0.47252287991E+02 -0.43380651324E+03  0.51446425999E+03  0.17260536741E+03 0.  0.
        -24    2    3    3    0    0 -0.70173034566E+02 -0.95382683602E+01 -0.80210043134E+02  0.13201632373E+03  0.77326744201E+02 0.  0.
          6    2    1    2  501    0  0.21085538241E+03  0.47252287991E+02  0.10811208705E+03  0.29644430949E+03  0.17175050000E+03 0.  0.
         24    2    5    5    0    0  0.20921273618E+03  0.29622092433E+02  0.43700196927E+02  0.22947787259E+03  0.78121376447E+02 0.  0.
          5    1    5    5  501    0  0.16426462324E+01  0.17630195558E+02  0.64411890120E+02  0.66966436898E+02  0.47000000000E+01 0. -1.
        -11    1    6    6    0    0  0.23430681616E+02 -0.13202481678E+02 -0.13951944366E+02  0.30297840105E+02  0.00000000000E+00 0.  1.
         12    1    6    6    0    0  0.18578205457E+03  0.42824574111E+02  0.57652141293E+02  0.19918003249E+03  0.00000000000E+00 0. -1.
         -5    1    3    3    0  503 -0.14068234785E+03 -0.37714019631E+02 -0.35359647011E+03  0.38244793626E+03  0.47000000000E+01 0.  1.
         13    1    4    4    0    0 -0.58050116611E+02  0.73765458470E+01 -0.91294031348E+02  0.10843813733E+03  0.00000000000E+00 0. -1.
        -14    1    4    4    0    0 -0.12122917955E+02 -0.16914814207E+02  0.11083988214E+02  0.23578186405E+02  0.00000000000E+00 0.  1.
</event>
<event>
12    1  0.8451514E-002  0.1748288E+03  0.7818608E-02  0.1173080E+00
         21   -1    0    0  501  502  0.00000000000E+00  0.00000000000E+00  0.13039098915E+03  0.13039098915E+03  0.00000000000E+00 0. -1.
         21   -1    0    0  502  503 -0.00000000000E+00 -0.00000000000E+00 -0.23933150502E+03  0.23933150502E+03  0.00000000000E+00 0. -1.
         -6    2    1    2    0  503  0.23705036537E+02 -0.16555872976E+02 -0.83290413435E+02  0.19302203086E+03  0.17170959711E+03 0.  0.
        -24    2    3    3    0    0  0.56484224270E+02 -0.58183998714E+02 -0.31207660552E+02  0.11857688898E+03  0.80689003127E+02 0.  0.
          6    2    1    2  501    0 -0.23705036537E+02  0.16555872976E+02 -0.25650102434E+02  0.17670046332E+03  0.17242128725E+03 0.  0.
         24    2    5    5    0    0  0.50420676761E+02 -0.91346050596E+01 -0.73214976146E+01  0.95999473312E+02  0.80849297426E+02 0.  0.
          5    1    5    5  501    0 -0.74125713299E+02  0.25690478035E+02 -0.18328604819E+02  0.80700990009E+02  0.47000000000E+01 0. -1.
        -13    1    6    6    0    0  0.21429970429E+02 -0.34717518570E+02  0.23025434402E+02  0.46847842615E+02  0.00000000000E+00 0.  1.
         14    1    6    6    0    0  0.28990706332E+02  0.25582913511E+02 -0.30346932017E+02  0.49151630697E+02  0.00000000000E+00 0. -1.
         -5    1    3    3    0  503 -0.32779187733E+02  0.41628125739E+02 -0.52082752883E+02  0.74445141875E+02  0.47000000000E+01 0.  1.
         11    1    4    4    0    0  0.16496086954E+02 -0.24966170297E+02 -0.54060887583E+02  0.61790048636E+02  0.00000000000E+00 0. -1.
        -12    1    4    4    0    0  0.39988137316E+02 -0.33217828418E+02  0.22853227031E+02  0.56786840346E+02  0.00000000000E+00 0.  1.
</event>
<event>
12    1  0.8451514E-002  0.1811601E+03  0.7818608E-02  0.1166724E+00
         21   -1    0    0  503  502  0.00000000000E+00  0.00000000000E+00  0.26366376865E+03  0.26366376865E+03  0.00000000000E+00 0. -1.
         21   -1    0    0  501  503 -0.00000000000E+00 -0.00000000000E+00 -0.13743062287E+03  0.13743062287E+03  0.00000000000E+00 0. -1.
          6    2    1    2  501    0 -0.50537944676E+01  0.58047175237E+02  0.12498743464E+03  0.22009276253E+03  0.17153410714E+03 0.  0.
         24    2    3    3    0    0 -0.10084384766E+02  0.93142467600E+02  0.13528919730E+03  0.18287445120E+03  0.79766433477E+02 0.  0.
         -6    2    1    2    0  502  0.50537944676E+01 -0.58047175237E+02  0.12457111426E+01  0.18100162899E+03  0.17136225521E+03 0.  0.
        -24    2    5    5    0    0  0.19976473606E+02 -0.45823713981E+02  0.64861704256E+02  0.11435942061E+03  0.79825836312E+02 0.  0.
          5    1    3    3  501    0  0.50305902984E+01 -0.35095292363E+02 -0.10301762657E+02  0.37218311335E+02  0.47000000000E+01 0. -1.
        -13    1    4    4    0    0  0.15693268013E+02  0.65834433483E+00  0.56597750769E+02  0.58736849339E+02  0.00000000000E+00 0.  1.
         14    1    4    4    0    0 -0.25777652779E+02  0.92484123265E+02  0.78691446527E+02  0.12413760186E+03  0.00000000000E+00 0. -1.
         -5    1    5    5    0  502 -0.14922679138E+02 -0.12223461256E+02 -0.63615993113E+02  0.66642208378E+02  0.47000000000E+01 0.  1.
         13    1    6    6    0    0  0.99550241874E+01 -0.66751645145E+02  0.60729511791E+02  0.90790738726E+02  0.00000000000E+00 0. -1.
        -14    1    6    6    0    0  0.10021449418E+02  0.20927931164E+02  0.41321924646E+01  0.23568681885E+02  0.00000000000E+00 0.  1.
</event>
<event>
12    1  0.8451514E-002  0.2283308E+03  0.7818608E-02  0.1127844E+00
         21   -1    0    0  501  502  0.00000000000E+00  0.00000000000E+00  0.73079704580E+02  0.73079704580E+02  0.00000000000E+00 0.  1.
         21   -1    0    0  502  503 -0.00000000000E+00 -0.00000000000E+00 -0.74369751661E+03  0.74369751661E+03  0.00000000000E+00 0.  1.
         -6    2    1    2    0  503  0.10339713022E+03  0.10971610086E+03 -0.25241170331E+03  0.34036246024E+03  0.17148278935E+03 0.  0.
        -24    2    3    3    0    0  0.13817548908E+03  0.70611655292E+02 -0.21091594476E+03  0.27340964188E+03  0.78669084596E+02 0.  0.
          6    2    1    2  501    0 -0.10339713022E+03 -0.10971610086E+03 -0.41820610872E+03  0.47641476095E+03  0.17130699273E+03 0.  0.
         24    2    5    5    0    0 -0.12605104037E+03 -0.12976124998E+03 -0.36600295495E+03  0.41589809456E+03  0.79285656016E+02 0.  0.
          5    1    5    5  501    0  0.22653910151E+02  0.20045149117E+02 -0.52203153765E+02  0.60516666392E+02  0.47000000000E+01 0. -1.
        -11    1    6    6    0    0 -0.14895112918E+02 -0.22697313946E+02 -0.11933656010E+02  0.29655431121E+02  0.00000000000E+00 0.  1.
         12    1    6    6    0    0 -0.11115592745E+03 -0.10706393603E+03 -0.35406929894E+03  0.38624266344E+03  0.00000000000E+00 0. -1.
         -5    1    3    3    0  503 -0.34778358862E+02  0.39104445572E+02 -0.41495758554E+02  0.66952818362E+02  0.47000000000E+01 0.  1.
         13    1    4    4    0    0  0.12567053493E+03  0.35699170986E+02 -0.19074315869E+03  0.23119356986E+03  0.00000000000E+00 0. -1.
        -14    1    4    4    0    0  0.12504954158E+02  0.34912484306E+02 -0.20172786074E+02  0.42216072021E+02  0.00000000000E+00 0.  1.
</event>
<event>
12    1  0.8451514E-002  0.1765514E+03  0.7818608E-02  0.1171256E+00
         21   -1    0    0  501  502  0.00000000000E+00  0.00000000000E+00  0.17358281615E+04  0.17358281615E+04  0.00000000000E+00 0. -1.
         21   -1    0    0  502  503 -0.00000000000E+00 -0.00000000000E+00 -0.19401034692E+02  0.19401034692E+02  0.00000000000E+00 0. -1.
         -6    2    1    2    0  503  0.56582034304E+01  0.35314989851E+02  0.61568331263E+03  0.64041651062E+03  0.17259258922E+03 0.  0.
        -24    2    3    3    0    0 -0.17973408306E+02 -0.34527890270E+02  0.45833474349E+03  0.46658572167E+03  0.78206649109E+02 0.  0.
          6    2    1    2  501    0 -0.56582034304E+01 -0.35314989851E+02  0.11007438141E+04  0.11148126855E+04  0.17289076228E+03 0.  0.
         24    2    5    5    0    0  0.15994458694E+02 -0.26187382591E+01  0.10343764679E+04  0.10375818802E+04  0.79867391726E+02 0.  0.
          5    1    5    5  501    0 -0.21652662124E+02 -0.32696251592E+02  0.66367346191E+02  0.77230805289E+02  0.47000000000E+01 0. -1.
        -13    1    6    6    0    0 -0.16539458724E+01  0.31481469712E+02  0.21422820203E+03  0.21653531125E+03  0.00000000000E+00 0.  1.
         14    1    6    6    0    0  0.17648404566E+02 -0.34100207971E+02  0.82014826592E+03  0.82104656899E+03  0.00000000000E+00 0. -1.
         -5    1    3    3    0  503  0.23631611736E+02  0.69842880121E+02  0.15734856914E+03  0.17383078895E+03  0.47000000000E+01 0.  1.
         13    1    4    4    0    0  0.15133810578E+02 -0.98034742590E-01  0.17355954661E+02  0.23027613763E+02  0.00000000000E+00 0. -1.
        -14    1    4    4    0    0 -0.33107218884E+02 -0.34429855527E+02  0.44097878883E+03  0.44355810791E+03  0.00000000000E+00 0.  1.
</event>
<event>
12    1  0.8451514E-002  0.1953334E+03  0.7818608E-02  0.1155366E+00
         21   -1    0    0  503  502  0.00000000000E+00  0.00000000000E+00  0.13545059363E+03  0.13545059363E+03  0.00000000000E+00 0. -1.
         21   -1    0    0  501  503 -0.00000000000E+00 -0.00000000000E+00 -0.30617892157E+03  0.30617892157E+03  0.00000000000E+00 0. -1.
          6    2    1    2  501    0  0.67905417677E+01 -0.73490573565E+02 -0.12196734890E+02  0.19571376931E+03  0.18085392806E+03 0.  0.
         24    2    3    3    0    0 -0.13269119697E+02 -0.12103682533E+03 -0.11264359432E+02  0.14388717961E+03  0.75833053740E+02 0.  0.
         -6    2    1    2    0  502 -0.67905417677E+01  0.73490573565E+02 -0.15853159305E+03  0.24591574589E+03  0.17290260907E+03 0.  0.
        -24    2    5    5    0    0 -0.59317068436E+02  0.79509079407E+02 -0.79890273338E+02  0.15103790031E+03  0.81177479877E+02 0.  0.
          5    1    3    3  501    0  0.20059661464E+02  0.47546251768E+02 -0.93237545812E+00  0.51826589694E+02  0.47000000000E+01 0. -1.
        -11    1    4    4    0    0 -0.37455387027E+02 -0.52558544756E+02  0.15695875707E+02  0.66420382101E+02  0.00000000000E+00 0.  1.
         12    1    4    4    0    0  0.24186267331E+02 -0.68478280577E+02 -0.26960235139E+02  0.77466797513E+02  0.00000000000E+00 0. -1.
         -5    1    5    5    0  502  0.52526526668E+02 -0.60185058420E+01 -0.78641319716E+02  0.94877845586E+02  0.47000000000E+01 0.  1.
         11    1    6    6    0    0 -0.33244547337E+02  0.75454460050E+02 -0.90652430456E+02  0.12254157913E+03  0.00000000000E+00 0. -1.
        -12    1    6    6    0    0 -0.26072521099E+02  0.40546193569E+01  0.10762157118E+02  0.28496321173E+02  0.00000000000E+00 0.  1.
</event>
<event>
12    1  0.8451514E-002  0.2199381E+03  0.7818608E-02  0.1134171E+00
         21   -1    0    0  501  502  0.00000000000E+00  0.00000000000E+00  0.31320519655E+02  0.31320519655E+02  0.00000000000E+00 0. -1.
         21   -1    0    0  502  503 -0.00000000000E+00 -0.00000000000E+00 -0.15359498394E+04  0.15359498394E+04  0.00000000000E+00 0. -1.
         -6    2    1    2    0  503  0.80141267964E+02  0.10981176803E+03 -0.76949434937E+03  0.80030889952E+03  0.17289168200E+03 0.  0.
        -24    2    3    3    0    0  0.10220876607E+03  0.24827929691E+02 -0.47757557024E+03  0.49543533415E+03  0.79465005367E+02 0.  0.
          6    2    1    2  501    0 -0.80141267964E+02 -0.10981176803E+03 -0.73513497041E+03  0.76696145957E+03  0.17124604673E+03 0.  0.
         24    2    5    5    0    0 -0.11702795800E+03 -0.95204334848E+02 -0.48906695633E+03  0.51767134232E+03  0.77702783473E+02 0.  0.
          5    1    5    5  501    0  0.36886690035E+02 -0.14607433180E+02 -0.24606801408E+03  0.24929011725E+03  0.47000000000E+01 0. -1.
        -13    1    6    6    0    0  0.49789305417E+01  0.20007747444E+01 -0.75041577172E+02  0.75233178541E+02  0.00000000000E+00 0.  1.
         14    1    6    6    0    0 -0.12200688854E+03 -0.97205109592E+02 -0.41402537916E+03  0.44243816378E+03  0.00000000000E+00 0. -1.
         -5    1    3    3    0  503 -0.22067498110E+02  0.84983838337E+02 -0.29191877912E+03  0.30487356536E+03  0.47000000000E+01 0.  1.
         13    1    4    4    0    0  0.51502973150E+02  0.49491798631E+02 -0.32544755032E+03  0.33319379103E+03  0.00000000000E+00 0. -1.
        -14    1    4    4    0    0  0.50705792925E+02 -0.24663868940E+02 -0.15212801993E+03  0.16224154312E+03  0.00000000000E+00 0.  1.
</event>
<event>
12    1  0.8451514E-002  0.1897187E+03  0.7818608E-02  0.1158814E+00
         21   -1    0    0  503  502  0.00000000000E+00  0.00000000000E+00  0.15123065698E+03  0.15123065698E+03  0.00000000000E+00 0.  1.
         21   -1    0    0  501  503 -0.00000000000E+00 -0.00000000000E+00 -0.23752820329E+03  0.23752820329E+03  0.00000000000E+00 0.  1.
          6    2    1    2  501    0  0.46425047726E+02  0.64219165504E+02 -0.39756796838E+02  0.19383956472E+03  0.17237687687E+03 0.  0.
         24    2    3    3    0    0 -0.35256768946E+02  0.20829997576E+02 -0.27768215264E+02  0.10045672284E+03  0.87427403199E+02 0.  0.
         -6    2    1    2    0  502 -0.46425047726E+02 -0.64219165504E+02 -0.46540749467E+02  0.19491929555E+03  0.17189561990E+03 0.  0.
        -24    2    5    5    0    0 -0.79893087331E+01 -0.10592892628E+03 -0.34893604014E+02  0.13682664392E+03  0.78861907201E+02 0.  0.
          5    1    3    3  501    0  0.81681816672E+02  0.43389167928E+02 -0.11988581574E+02  0.93382841874E+02  0.47000000000E+01 0. -1.
        -11    1    4    4    0    0  0.17608114044E+02 -0.21093643649E+02  0.47986751348E-01  0.27477077452E+02  0.00000000000E+00 0.  1.
         12    1    4    4    0    0 -0.52864882989E+02  0.41923641225E+02 -0.27816202016E+02  0.72979645392E+02  0.00000000000E+00 0. -1.
         -5    1    5    5    0  502 -0.38435738993E+02  0.41709760778E+02 -0.11647145454E+02  0.58092651629E+02  0.47000000000E+01 0.  1.
         11    1    6    6    0    0  0.44677762807E+01 -0.11357270822E+03 -0.41215604619E+02  0.12090263497E+03  0.00000000000E+00 0. -1.
        -12    1    6    6    0    0 -0.12457085014E+02  0.76437819405E+01  0.63220006051E+01  0.15924008950E+02  0.00000000000E+00 0.  1.
</event>
<event>
12    1  0.8451514E-002  0.2484215E+03  0.7818608E-02  0.1114382E+00
         21   -1    0    0  501  502  0.00000000000E+00  0.00000000000E+00  0.39946080015E+03  0.39946080015E+03  0.00000000000E+00 0.  1.
         21   -1    0    0  502  503 -0.00000000000E+00 -0.00000000000E+00 -0.27464424477E+03  0.27464424477E+03  0.00000000000E+00 0.  1.
         -6    2    1    2    0  503  0.17335537325E+03  0.45484633806E+02 -0.16083534507E+03  0.29554161372E+03  0.17133563514E+03 0.  0.
        -24    2    3    3    0    0  0.14883424923E+03 -0.35385348812E+02 -0.10975859839E+03  0.19668735907E+03  0.56878912109E+02 0.  0.
          6    2    1    2  501    0 -0.17335537325E+03 -0.45484633806E+02  0.28565190045E+03  0.37856343119E+03  0.17202420137E+03 0.  0.
         24    2    5    5    0    0 -0.14636228785E+03 -0.52654936449E+02  0.12496356162E+03  0.21539826292E+03  0.81154533456E+02 0.  0.
          5    1    5    5  501    0 -0.26993085406E+02  0.71703026432E+01  0.16068833884E+03  0.16316516827E+03  0.47000000000E+01 0. -1.
        -11    1    6    6    0    0 -0.65497348515E+02 -0.21565087280E+02  0.10640854417E+03  0.12679800441E+03  0.00000000000E+00 0.  1.
         12    1    6    6    0    0 -0.80864939331E+02 -0.31089849169E+02  0.18555017449E+02  0.88600258504E+02  0.00000000000E+00 0. -1.
         -5    1    3    3    0  503  0.24521124026E+02  0.80869982618E+02 -0.51076746682E+02  0.98854254657E+02  0.47000000000E+01 0.  1.
         11    1    4    4    0    0  0.10650138020E+03 -0.40835715286E+02 -0.10258338609E+03  0.15340616261E+03  0.00000000000E+00 0. -1.
        -12    1    4    4    0    0  0.42332869027E+02  0.54503664731E+01 -0.71752123057E+01  0.43281196453E+02  0.00000000000E+00 0.  1.
</event>
<event>
12    1  0.8451514E-002  0.2396694E+03  0.7818608E-02  0.1120662E+00
         21   -1    0    0  501  502  0.00000000000E+00  0.00000000000E+00  0.24922732253E+03  0.24922732253E+03  0.00000000000E+00 0.  1.
         21   -1    0    0  502  503 -0.00000000000E+00 -0.00000000000E+00 -0.23178968731E+03  0.23178968731E+03  0.00000000000E+00 0. -1.
         -6    2    1    2    0  503  0.23851556988E+02 -0.16468947218E+03 -0.26681138226E+02  0.23732074584E+03  0.16708600854E+03 0.  0.
        -24    2    3    3    0    0  0.18197740373E+02 -0.16464281142E+02  0.66565250283E+01  0.85214984302E+02  0.81332981723E+02 0.  0.
          6    2    1    2  501    0 -0.23851556988E+02  0.16468947218E+03  0.44118773445E+02  0.24369626400E+03  0.17248154655E+03 0.  0.
         24    2    5    5    0    0 -0.18017423982E+02  0.13429336939E+03 -0.31781522264E+02  0.16159324907E+03  0.82115627970E+02 0.  0.
          5    1    5    5  501    0 -0.58341330062E+01  0.30396102792E+02  0.75900295709E+02  0.82103014936E+02  0.47000000000E+01 0. -1.
        -13    1    6    6    0    0 -0.16852051952E+02  0.74210625481E+02  0.23801220543E+02  0.79735228655E+02  0.00000000000E+00 0.  1.
         14    1    6    6    0    0 -0.11653720299E+01  0.60082743910E+02 -0.55582742806E+02  0.81858020411E+02  0.00000000000E+00 0. -1.
         -5    1    3    3    0  503  0.56538166152E+01 -0.14822519104E+03 -0.33337663254E+02  0.15210576154E+03  0.47000000000E+01 0.  1.
         13    1    4    4    0    0  0.43082536059E+02 -0.33185995052E+02 -0.52941493312E+00  0.54384698777E+02  0.00000000000E+00 0. -1.
        -14    1    4    4    0    0 -0.24884795686E+02  0.16721713910E+02  0.71859399614E+01  0.30830285525E+02  0.00000000000E+00 0.  1.
</event>
<event>
12    1  0.8451514E-002  0.2182303E+03  0.7818608E-02  0.1135234E+00
         21   -1    0    0  503  502  0.00000000000E+00  0.00000000000E+00  0.92937189738E+02  0.92937189738E+02  0.00000000000E+00 0.  1.
         21   -1    0    0  501  503 -0.00000000000E+00 -0.00000000000E+00 -0.11313392202E+04  0.11313392202E+04  0.00000000000E+00 0.  1.
          6    2    1    2  501    0  0.10202548835E+03 -0.88607466043E+02 -0.97199900797E+03  0.99616719295E+03  0.17119147611E+03 0.  0.
         24    2    3    3    0    0  0.18319456557E+02 -0.74558667885E+02 -0.31740887526E+03  0.33608053172E+03  0.79417455639E+02 0.  0.
         -6    2    1    2    0  502 -0.10202548835E+03  0.88607466043E+02 -0.66403022464E+02  0.22810921697E+03  0.17135918464E+03 0.  0.
        -24    2    5    5    0    0 -0.35339863728E+02  0.73299857908E+02 -0.10016180138E+03  0.15166943313E+03  0.79683469762E+02 0.  0.
          5    1    3    3  501    0  0.83706031796E+02 -0.14048798158E+02 -0.65459013271E+03  0.66008666123E+03  0.47000000000E+01 0. -1.
        -13    1    4    4    0    0  0.27807169068E+02 -0.12161221883E+02 -0.33342853847E+02  0.45087469123E+02  0.00000000000E+00 0.  1.
         14    1    4    4    0    0 -0.94877125110E+01 -0.62397446002E+02 -0.28406602141E+03  0.29099306259E+03  0.00000000000E+00 0. -1.
         -5    1    5    5    0  502 -0.66685624625E+02  0.15307608135E+02  0.33758778917E+02  0.76439783833E+02  0.47000000000E+01 0.  1.
         11    1    6    6    0    0  0.18629159696E+02  0.13139938698E+02  0.21729821070E+00  0.22798043743E+02  0.00000000000E+00 0. -1.
        -12    1    6    6    0    0 -0.53969023424E+02  0.60159919209E+02 -0.10037909959E+03  0.12887138939E+03  0.00000000000E+00 0.  1.
</event>
<event>
12    1  0.8451514E-002  0.1767087E+03  0.7818608E-02  0.1171766E+00
         21   -1    0    0  501  502  0.00000000000E+00  0.00000000000E+00  0.64567637878E+03  0.64567637878E+03  0.00000000000E+00 0. -1.
         21   -1    0    0  502  503 -0.00000000000E+00 -0.00000000000E+00 -0.50333839932E+02  0.50333839932E+02  0.00000000000E+00 0. -1.
         -6    2    1    2    0  503  0.10748944764E+02  0.32262760303E+02  0.21829420083E+03  0.28085285717E+03  0.17340572006E+03 0.  0.
        -24    2    3    3    0    0  0.15129639262E+02 -0.80065978796E+01  0.22395537485E+03  0.23968307962E+03  0.83659770127E+02 0.  0.
          6    2    1    2  501    0 -0.10748944764E+02 -0.32262760303E+02  0.37704833801E+03  0.41515736154E+03  0.17039295797E+03 0.  0.
         24    2    5    5    0    0 -0.19365090948E+01  0.42518594302E+02  0.26763158022E+03  0.28225127851E+03  0.78914767707E+02 0.  0.
          5    1    5    5  501    0 -0.88124356692E+01 -0.74781354605E+02  0.10941675779E+03  0.13290608302E+03  0.47000000000E+01 0. -1.
        -13    1    6    6    0    0 -0.40089125965E+02  0.23031004059E+02  0.15494143599E+03  0.16169234291E+03  0.00000000000E+00 0.  1.
         14    1    6    6    0    0  0.38152616870E+02  0.19487590243E+02  0.11269014423E+03  0.12055893561E+03  0.00000000000E+00 0. -1.
         -5    1    3    3    0  503 -0.43806944976E+01  0.40269358183E+02 -0.56611740138E+01  0.41169777556E+02  0.47000000000E+01 0.  1.
         13    1    4    4    0    0  0.20907745867E+02 -0.43888054908E+02  0.13994907725E+03  0.14815208208E+03  0.00000000000E+00 0. -1.
        -14    1    4    4    0    0 -0.57781066055E+01  0.35881457028E+02  0.84006297596E+02  0.91530997537E+02  0.00000000000E+00 0.  1.
</event>
<event>
12    1  0.8451514E-002  0.2721810E+03  0.7818608E-02  0.1100068E+00
         21   -1    0    0  501  502  0.00000000000E+00  0.00000000000E+00  0.18290009178E+03  0.18290009178E+03  0.00000000000E+00 0.  1.
         21   -1    0    0  502  503 -0.00000000000E+00 -0.00000000000E+00 -0.80826411876E+03  0.80826411876E+03  0.00000000000E+00 0. -1.
         -6    2    1    2    0  503  0.16594393034E+02  0.20988293168E+03 -0.66279226373E+03  0.71642182338E+03  0.17216394877E+03 0.  0.
        -24    2    3    3    0    0  0.49839552350E+01  0.19194994883E+02 -0.21090046032E+03  0.22578449958E+03  0.78143127989E+02 0.  0.
          6    2    1    2  501    0 -0.16594393034E+02 -0.20988293168E+03  0.37428236754E+02  0.27474238717E+03  0.17250010872E+03 0.  0.
         24    2    5    5    0    0 -0.36993988812E+02 -0.10267834243E+03 -0.39874719995E+02  0.14092607805E+03  0.79741889665E+02 0.  0.
          5    1    5    5  501    0  0.20399595778E+02 -0.10720458925E+03  0.77302956749E+02  0.13381630912E+03  0.47000000000E+01 0. -1.
        -11    1    6    6    0    0  0.22344629801E+02 -0.33104044705E+02  0.27569205090E+01  0.40034495969E+02  0.00000000000E+00 0.  1.
         12    1    6    6    0    0 -0.59338618613E+02 -0.69574297725E+02 -0.42631640504E+02  0.10089158208E+03  0.00000000000E+00 0. -1.
         -5    1    3    3    0  503  0.11610437799E+02  0.19068793679E+03 -0.45189180341E+03  0.49063732379E+03  0.47000000000E+01 0.  1.
         11    1    4    4    0    0  0.19884535003E+01  0.48119592003E+02 -0.16079012043E+03  0.16784788325E+03  0.00000000000E+00 0. -1.
        -12    1    4    4    0    0  0.29955017348E+01 -0.28924597120E+02 -0.50110339884E+02  0.57936616336E+02  0.00000000000E+00 0.  1.
</event>
<event>
12    1  0.8451514E-002  0.2109483E+03  0.7818608E-02  0.1141188E+00
         21   -1    0    0  501  502  0.00000000000E+00  0.00000000000E+00  0.42696475603E+03  0.42696475603E+03  0.00000000000E+00 0. -1.
         21   -1    0    0  502  503 -0.00000000000E+00 -0.00000000000E+00 -0.17903787866E+03  0.17903787866E+03  0.00000000000E+00 0.  1.
         -6    2    1    2    0  503 -0.40019315905E+02 -0.11079949048E+03 -0.72792884656E+02  0.22315462492E+03  0.17498888487E+03 0.  0.
        -24    2    3    3    0    0 -0.20117387487E+02 -0.83954325336E+01  0.16371912945E+02  0.85840645404E+02  0.81396463702E+02 0.  0.
          6    2    1    2  501    0  0.40019315905E+02  0.11079949048E+03  0.32071976203E+03  0.38284800978E+03  0.17272336292E+03 0.  0.
         24    2    5    5    0    0 -0.21574213896E+02  0.39850157387E+02  0.69261520036E+02  0.11436913119E+03  0.78928184215E+02 0.  0.
          5    1    5    5  501    0  0.61593529801E+02  0.70949333089E+02  0.25145824199E+03  0.26847887858E+03  0.47000000000E+01 0. -1.
        -13    1    6    6    0    0  0.16753476080E+02 -0.11095272076E+02 -0.18713874771E+00  0.20095249292E+02  0.00000000000E+00 0.  1.
         14    1    6    6    0    0 -0.38327689976E+02  0.50945429463E+02  0.69448658784E+02  0.94273881902E+02  0.00000000000E+00 0. -1.
         -5    1    3    3    0  503 -0.19901928418E+02 -0.10240405794E+03 -0.89164797601E+02  0.13731397951E+03  0.47000000000E+01 0.  1.
         11    1    4    4    0    0 -0.38438518746E+02 -0.27948444009E+02 -0.96437032771E+01  0.48493672358E+02  0.00000000000E+00 0. -1.
        -12    1    4    4    0    0  0.18321131259E+02  0.19553011475E+02  0.26015616222E+02  0.37346973047E+02  0.00000000000E+00 0.  1.
</event>
<event>
12    1  0.8451514E-002  0.2787387E+03  0.7818608E-02  0.1096688E+00
         21   -1    0    0  501  502  0.00000000000E+00  0.00000000000E+00  0.60810006438E+03  0.60810006438E+03  0.00000000000E+00 0.  1.
         21   -1    0    0  502  503 -0.00000000000E+00 -0.00000000000E+00 -0.15684833347E+03  0.15684833347E+03  0.00000000000E+00 0.  1.
         -6    2    1    2    0  503 -0.15293539182E+03  0.15729013774E+03  0.57338164373E+02  0.28238942856E+03  0.16830538544E+03 0.  0.
        -24    2    3    3    0    0 -0.14007492158E+03  0.18025271556E+03  0.70287755056E+02  0.25268330843E+03  0.82440649723E+02 0.  0.
          6    2    1    2  501    0  0.15293539182E+03 -0.15729013774E+03  0.39391356653E+03  0.48255896928E+03  0.17194719955E+03 0.  0.
         24    2    5    5    0    0  0.68075976436E+02 -0.92338976952E+02  0.10633495780E+03  0.17573113503E+03  0.80084226524E+02 0.  0.
          5    1    5    5  501    0  0.84859415383E+02 -0.64951160791E+02  0.28757860873E+03  0.30682783425E+03  0.47000000000E+01 0. -1.
        -13    1    6    6    0    0  0.41716240600E+01 -0.71688777822E+02  0.65086949476E+02  0.96917461301E+02  0.00000000000E+00 0.  1.
         14    1    6    6    0    0  0.63904352376E+02 -0.20650199131E+02  0.41248008322E+02  0.78813673733E+02  0.00000000000E+00 0. -1.
         -5    1    3    3    0  503 -0.12860470240E+02 -0.22962577813E+02 -0.12949590683E+02  0.29706120135E+02  0.47000000000E+01 0.  1.
         11    1    4    4    0    0  0.15146335946E+01  0.49372706493E+02  0.78751129805E+01  0.50019752756E+02  0.00000000000E+00 0. -1.
        -12    1    4    4    0    0 -0.14158955517E+03  0.13088000906E+03  0.62412642075E+02  0.20266355567E+03  0.00000000000E+00 0.  1.
</event>
<event>
12    1  0.8451514E-002  0.1985924E+03  0.7818608E-02  0.1151504E+00
         21   -1    0    0  503  502  0.00000000000E+00  0.00000000000E+00  0.10891326853E+03  0.10891326853E+03  0.00000000000E+00 0. -1.
         21   -1    0    0  501  503 -0.00000000000E+00 -0.00000000000E+00 -0.60863752764E+03  0.60863752764E+03  0.00000000000E+00 0. -1.
          6    2    1    2  501    0  0.55710538260E+02  0.85497609991E+02 -0.48141964009E+03  0.52077231266E+03  0.17036850174E+03 0.  0.
         24    2    3    3    0    0  0.97093977096E+02  0.34730532776E+02 -0.28806969049E+03  0.31657589216E+03  0.81256991200E+02 0.  0.
         -6    2    1    2    0  502 -0.55710538260E+02 -0.85497609991E+02 -0.18304619019E+02  0.19677848350E+03  0.16725192706E+03 0.  0.
        -24    2    5    5    0    0 -0.12602860576E+02 -0.13811405694E+02 -0.63260395361E+02  0.10169801449E+03  0.77401689307E+02 0.  0.
          5    1    3    3  501    0 -0.41383438836E+02  0.50767077215E+02 -0.19334994960E+03  0.20419642051E+03  0.47000000000E+01 0. -1.
        -11    1    4    4    0    0  0.31491281780E+02  0.15650093585E+01 -0.19715712083E+03  0.19966241604E+03  0.00000000000E+00 0.  1.
         12    1    4    4    0    0  0.65602695316E+02  0.33165523417E+02 -0.90912569660E+02  0.11691347612E+03  0.00000000000E+00 0. -1.
         -5    1    5    5    0  502 -0.43107677684E+02 -0.71686204297E+02  0.44955776342E+02  0.95080469016E+02  0.47000000000E+01 0.  1.
         13    1    6    6    0    0  0.10177865181E+02 -0.41909041570E+02 -0.38977027587E+02  0.58130589061E+02  0.00000000000E+00 0. -1.
        -14    1    6    6    0    0 -0.22780725758E+02  0.28097635877E+02 -0.24283367774E+02  0.43567425427E+02  0.00000000000E+00 0.  1.
</event>
<event>
12    1  0.8451514E-002  0.1760449E+03  0.7818608E-02  0.1171973E+00
         21   -1    0    0  501  502  0.00000000000E+00  0.00000000000E+00  0.14682393574E+03  0.14682393574E+03  0.00000000000E+00 0. -1.
         21   -1    0    0  502  503 -0.00000000000E+00 -0.00000000000E+00 -0.57849675306E+03  0.57849675306E+03  0.00000000000E+00 0. -1.
         -6    2    1    2    0  503  0.27461373720E+02  0.25961856463E+02 -0.50513989053E+03  0.53456109984E+03  0.17076625960E+03 0.  0.
        -24    2    3    3    0    0 -0.10232351172E+02 -0.29308934594E+02 -0.40750606473E+03  0.41611224513E+03  0.78259140687E+02 0.  0.
          6    2    1    2  501    0 -0.27461373720E+02 -0.25961856463E+02  0.73467073201E+02  0.19075958896E+03  0.17194087617E+03 0.  0.
         24    2    5    5    0    0  0.40038134870E+02  0.55636922147E+01  0.46425114996E+01  0.89226568851E+02  0.79409198214E+02 0.  0.
          5    1    5    5  501    0 -0.67499508591E+02 -0.31525548678E+02  0.68824561701E+02  0.10153302011E+03  0.47000000000E+01 0. -1.
        -13    1    6    6    0    0  0.46385093027E+02 -0.27778053910E+02 -0.39645277756E+01  0.54211757162E+02  0.00000000000E+00 0.  1.
         14    1    6    6    0    0 -0.63469581564E+01  0.33341746125E+02  0.86070392751E+01  0.35014811689E+02  0.00000000000E+00 0. -1.
         -5    1    3    3    0  503  0.37693724892E+02  0.55270791058E+02 -0.97633825798E+02  0.11844885470E+03  0.47000000000E+01 0.  1.
         13    1    4    4    0    0 -0.56611416716E+01 -0.33399944493E+02 -0.40849608850E+03  0.40989835220E+03  0.00000000000E+00 0. -1.
        -14    1    4    4    0    0 -0.45712095002E+01  0.40910098991E+01  0.99002377192E+00  0.62138929310E+01  0.00000000000E+00 0.  1.
</event>
<event>
12    1  0.8451514E-002  0.1825393E+03  0.7818608E-02  0.1165687E+00
         21   -1    0    0  501  502  0.00000000000E+00  0.00000000000E+00  0.58220853502E+03  0.58220853502E+03  0.00000000000E+00 0.  1.
         21   -1    0    0  502  503 -0.00000000000E+00 -0.00000000000E+00 -0.12483718847E+03  0.12483718847E+03  0.00000000000E+00 0.  1.
         -6    2    1    2    0  503  0.25991782523E+01 -0.56442152207E+02 -0.31893502312E+02  0.18530454416E+03  0.17357449791E+03 0.  0.
        -24    2    3    3    0    0  0.15744952148E+01  0.24791461653E+02  0.26439295224E+02  0.85180844347E+02  0.77069087873E+02 0.  0.
          6    2    1    2  501    0 -0.25991782523E+01  0.56442152207E+02  0.48926484886E+03  0.52174117932E+03  0.17216647060E+03 0.  0.
         24    2    5    5    0    0  0.49056112596E+02  0.42678477307E+02  0.17851893925E+03  0.20639562575E+03  0.80636146044E+02 0.  0.
          5    1    5    5  501    0 -0.51655290848E+02  0.13763674900E+02  0.31074590961E+03  0.31534555357E+03  0.47000000000E+01 0. -1.
        -13    1    6    6    0    0  0.13048766397E+02  0.36387638296E+02  0.16152375809E+03  0.16608508347E+03  0.00000000000E+00 0.  1.
         14    1    6    6    0    0  0.36007346199E+02  0.62908390117E+01  0.16995181160E+02  0.40310542274E+02  0.00000000000E+00 0. -1.
         -5    1    3    3    0  503  0.10246830375E+01 -0.81233613860E+02 -0.58332797536E+02  0.10012369981E+03  0.47000000000E+01 0.  1.
         11    1    4    4    0    0  0.27073189610E+02  0.36904235441E+02 -0.10449359633E+01  0.45781787649E+02  0.00000000000E+00 0. -1.
        -12    1    4    4    0    0 -0.25498694395E+02 -0.12112773789E+02  0.27484231187E+02  0.39399056698E+02  0.00000000000E+00 0.  1.
</event>
<event>
12    1  0.8451514E-002  0.2134853E+03  0.7818608E-02  0.1139003E+00
         21   -1    0    0  501  502  0.00000000000E+00  0.00000000000E+00  0.27705757939E+03  0.27705757939E+03  0.00000000000E+00 0. -1.
         21   -1    0    0  502  503 -0.00000000000E+00 -0.00000000000E+00 -0.21853567509E+03  0.21853567509E+03  0.00000000000E+00 0.  1.
         -6    2    1    2    0  503 -0.49923796109E+02  0.11551664335E+03 -0.94665709088E+02  0.23353279529E+03  0.17245141254E+03 0.  0.
        -24    2    3    3    0    0 -0.48800942414E-01  0.13762644998E+03 -0.58426535297E+02  0.16786905789E+03  0.76323773861E+02 0.  0.
          6    2    1    2  501    0  0.49923796109E+02 -0.11551664335E+03  0.15318761338E+03  0.26206045919E+03  0.17138482741E+03 0.  0.
         24    2    5    5    0    0 -0.20836858010E+02 -0.11677826020E+02  0.32141146845E+02  0.87521331145E+02  0.77822771813E+02 0.  0.
          5    1    5    5  501    0  0.70760654118E+02 -0.10383881733E+03  0.12104646654E+03  0.17453912804E+03  0.47000000000E+01 0. -1.
        -13    1    6    6    0    0 -0.28529350874E+02 -0.41342971114E+02  0.24744135291E+02  0.55994976142E+02  0.00000000000E+00 0.  1.
         14    1    6    6    0    0  0.76924928646E+01  0.29665145093E+02  0.73970115541E+01  0.31526355003E+02  0.00000000000E+00 0. -1.
         -5    1    3    3    0  503 -0.49874995166E+02 -0.22109806622E+02 -0.36239173790E+02  0.65663737395E+02  0.47000000000E+01 0.  1.
         13    1    4    4    0    0  0.20816718989E+02  0.30000813725E+02 -0.44180778570E+02  0.57317761721E+02  0.00000000000E+00 0. -1.
        -14    1    4    4    0    0 -0.20865519931E+02  0.10762563625E+03 -0.14245756727E+02  0.11055129617E+03  0.00000000000E+00 0.  1.
</event>
<event>
12    1  0.8451514E-002  0.1865533E+03  0.7818608E-02  0.1161615E+00
         21   -1    0    0  501  502  0.00000000000E+00  0.00000000000E+00  0.64845729084E+02  0.64845729084E+02  0.00000000000E+00 0.  1.
         21   -1    0    0  502  503 -0.00000000000E+00 -0.00000000000E+00 -0.61646237691E+03  0.61646237691E+03  0.00000000000E+00 0.  1.
         -6    2    1    2    0  503  0.63733700577E+02 -0.35538018669E+02 -0.39844106663E+03  0.43995158731E+03  0.17168919663E+03 0.  0.
        -24    2    3    3    0    0  0.77895755880E+02  0.30755599772E+02 -0.27904534354E+03  0.30257314523E+03  0.81673427515E+02 0.  0.
          6    2    1    2  501    0 -0.63733700577E+02  0.35538018669E+02 -0.15317558120E+03  0.24135651868E+03  0.17165452245E+03 0.  0.
         24    2    5    5    0    0  0.10282434286E+02  0.62264852355E+02 -0.11779300521E+03  0.15494628467E+03  0.78425243149E+02 0.  0.
          5    1    5    5  501    0 -0.74016134863E+02 -0.26726833686E+02 -0.35382575989E+02  0.86410234015E+02  0.47000000000E+01 0. -1.
        -11    1    6    6    0    0 -0.18085762134E+02 -0.59497269806E+01 -0.54272115729E+02  0.57514837988E+02  0.00000000000E+00 0.  1.
         12    1    6    6    0    0  0.28368196420E+02  0.68214579336E+02 -0.63520889479E+02  0.97431446681E+02  0.00000000000E+00 0. -1.
         -5    1    3    3    0  503 -0.14162055304E+02 -0.66293618442E+02 -0.11939572309E+03  0.13737844208E+03  0.47000000000E+01 0.  1.
         11    1    4    4    0    0  0.17485935145E+02 -0.21792098569E+02 -0.13414073998E+03  0.13701967600E+03  0.00000000000E+00 0. -1.
        -12    1    4    4    0    0  0.60409820735E+02  0.52547698342E+02 -0.14490460355E+03  0.16555346923E+03  0.00000000000E+00 0.  1.
</event>
<event>
12    1  0.8451514E-002  0.3208554E+03  0.7818608E-02  0.1075335E+00
         21   -1    0    0  501  502  0.00000000000E+00  0.00000000000E+00  0.12253840159E+04  0.12253840159E+04  0.00000000000E+00 0.  1.
         21   -1    0    0  502  503 -0.00000000000E+00 -0.00000000000E+00 -0.19182207501E+03  0.19182207501E+03  0.00000000000E+00 0.  1.
         -6    2    1    2    0  503  0.12964102628E+03 -0.23750914948E+03 -0.14648788567E+02  0.32118959940E+03  0.17242615804E+03 0.  0.
        -24    2    3    3    0    0  0.46694951411E+02 -0.29317624766E+02 -0.29981314016E+01  0.96731162022E+02  0.79422838687E+02 0.  0.
          6    2    1    2  501    0 -0.12964102628E+03  0.23750914948E+03  0.10482107295E+04  0.10960164915E+04  0.17114036495E+03 0.  0.
         24    2    5    5    0    0 -0.14277113244E+03  0.15694171347E+03  0.62713195146E+03  0.66707251065E+03  0.81712619780E+02 0.  0.
          5    1    5    5  501    0  0.13130106168E+02  0.80567436015E+02  0.42107877803E+03  0.42894398089E+03  0.47000000000E+01 0. -1.
        -11    1    6    6    0    0 -0.53622000030E+02  0.66517394611E+02  0.37693535595E+03  0.38649727714E+03  0.00000000000E+00 0.  1.
         12    1    6    6    0    0 -0.89149132414E+02  0.90424318855E+02  0.25019659551E+03  0.28057523351E+03  0.00000000000E+00 0. -1.
         -5    1    3    3    0  503  0.82946074864E+02 -0.20819152472E+03 -0.11650657166E+02  0.22445843738E+03  0.47000000000E+01 0.  1.
         11    1    4    4    0    0 -0.14038738608E+02 -0.39141411221E+01 -0.23611195735E+02  0.27746986259E+02  0.00000000000E+00 0. -1.
        -12    1    4    4    0    0  0.60733690019E+02 -0.25403483644E+02  0.20613064333E+02  0.68984175763E+02  0.00000000000E+00 0.  1.
</event>
<event>
12    1  0.8451514E-002  0.2138571E+03  0.7818608E-02  0.1138738E+00
         21   -1    0    0  501  502  0.00000000000E+00  0.00000000000E+00  0.66299619437E+02  0.66299619437E+02  0.00000000000E+00 0. -1.
         21   -1    0    0  502  503 -0.00000000000E+00 -0.00000000000E+00 -0.10048709497E+04  0.10048709497E+04  0.00000000000E+00 0. -1.
         -6    2    1    2    0  503  0.12364815735E+03  0.24564977615E+02 -0.76994093650E+03  0.79882691617E+03  0.17153160453E+03 0.  0.
        -24    2    3    3    0    0  0.11470344470E+03  0.76472456356E+02 -0.58249988726E+03  0.60406903784E+03  0.81168756317E+02 0.  0.
          6    2    1    2  501    0 -0.12364815735E+03 -0.24564977615E+02 -0.16863039377E+03  0.27234365298E+03  0.17274996577E+03 0.  0.
         24    2    5    5    0    0 -0.17607894644E+02  0.19823790461E+01 -0.13680295817E+03  0.15839465071E+03  0.77845027010E+02 0.  0.
          5    1    5    5  501    0 -0.10604026271E+03 -0.26547356661E+02 -0.31827435606E+02  0.11394900227E+03  0.47000000000E+01 0. -1.
        -11    1    6    6    0    0 -0.32626037123E+02  0.16591773109E+02 -0.24246767512E+02  0.43905022128E+02  0.00000000000E+00 0.  1.
         12    1    6    6    0    0  0.15018142479E+02 -0.14609394063E+02 -0.11255619066E+03  0.11448962858E+03  0.00000000000E+00 0. -1.
         -5    1    3    3    0  503  0.89447126490E+01 -0.51907478740E+02 -0.18744104924E+03  0.19475787834E+03  0.47000000000E+01 0.  1.
         13    1    4    4    0    0  0.84580921312E+02  0.51671174623E+02 -0.24452170066E+03  0.26384598658E+03  0.00000000000E+00 0. -1.
        -14    1    4    4    0    0  0.30122523391E+02  0.24801281732E+02 -0.33797818660E+03  0.34022305126E+03  0.00000000000E+00 0.  1.
</event>
<event>
12    1  0.8451514E-002  0.1725948E+03  0.7818608E-02  0.1175330E+00
         21   -1    0    0  501  502  0.00000000000E+00  0.00000000000E+00  0.26146224119E+02  0.26146224119E+02  0.00000000000E+00 0.  1.
         21   -1    0    0  502  503 -0.00000000000E+00 -0.00000000000E+00 -0.16765570686E+04  0.16765570686E+04  0.00000000000E+00 0.  1.
         -6    2    1    2    0  503  0.27763512791E+01 -0.15741584568E+02 -0.13079714965E+04  0.13192275211E+04  0.17122006600E+03 0.  0.
        -24    2    3    3    0    0  0.23665980009E+02  0.41113362222E+02 -0.10571200732E+04  0.10611240764E+04  0.78937121765E+02 0.  0.
          6    2    1    2  501    0 -0.27763512791E+01  0.15741584568E+02 -0.34243934793E+03  0.38347577163E+03  0.17185300348E+03 0.  0.
         24    2    5    5    0    0 -0.14764774060E+01  0.12891764828E+02 -0.62467372852E+02  0.10344683031E+03  0.81429088446E+02 0.  0.
          5    1    5    5  501    0 -0.12998738731E+01  0.28498197393E+01 -0.27997197508E+03  0.28002894131E+03  0.47000000000E+01 0. -1.
        -11    1    6    6    0    0 -0.90300973740E+01  0.32560946176E+02 -0.72591840967E+02  0.80070801479E+02  0.00000000000E+00 0.  1.
         12    1    6    6    0    0  0.75536199680E+01 -0.19669181348E+02  0.10124468115E+02  0.23376028836E+02  0.00000000000E+00 0. -1.
         -5    1    3    3    0  503 -0.20889628730E+02 -0.56854946790E+02 -0.25085142332E+03  0.25810344466E+03  0.47000000000E+01 0.  1.
         13    1    4    4    0    0 -0.29235700759E+02  0.12289693862E+02 -0.39252504555E+03  0.39380410632E+03  0.00000000000E+00 0. -1.
        -14    1    4    4    0    0  0.52901680767E+02  0.28823668360E+02 -0.66459502767E+03  0.66731997010E+03  0.00000000000E+00 0.  1.
</event>
<event>
12    1  0.8451514E-002  0.2121161E+03  0.7818608E-02  0.1140058E+00
         21   -1    0    0  503  502  0.00000000000E+00  0.00000000000E+00  0.39878919669E+03  0.39878919669E+03  0.00000000000E+00 0. -1.
         21   -1    0    0  501  503 -0.00000000000E+00 -0.00000000000E+00 -0.19033498759E+03  0.19033498759E+03  0.00000000000E+00 0. -1.
          6    2    1    2  501    0 -0.10645339175E+03  0.63623610777E+02 -0.84378876411E+02  0.22753813648E+03  0.17109506218E+03 0.  0.
         24    2    3    3    0    0 -0.98565423937E+01  0.78478950902E+02 -0.53469274771E+02  0.12492660735E+03  0.80570445684E+02 0.  0.
         -6    2    1    2    0  502  0.10645339175E+03 -0.63623610777E+02  0.29283308552E+03  0.36158604781E+03  0.17208418153E+03 0.  0.
        -24    2    5    5    0    0  0.12996947944E+03 -0.55778946664E+02  0.16178363519E+03  0.22812971200E+03  0.76588931355E+02 0.  0.
          5    1    3    3  501    0 -0.96596849354E+02 -0.14855340125E+02 -0.30909601640E+02  0.10261152912E+03  0.47000000000E+01 0. -1.
        -13    1    4    4    0    0  0.28884841948E+02  0.38817400946E+02 -0.70690433757E+00  0.48390333997E+02  0.00000000000E+00 0.  1.
         14    1    4    4    0    0 -0.38741384342E+02  0.39661549956E+02 -0.52762370434E+02  0.76536273357E+02  0.00000000000E+00 0. -1.
         -5    1    5    5    0  502 -0.23516087694E+02 -0.78446641127E+01  0.13104945033E+03  0.13345633581E+03  0.47000000000E+01 0.  1.
         13    1    6    6    0    0  0.53345426191E+02 -0.11804702611E+02  0.11689700842E+03  0.12903486381E+03  0.00000000000E+00 0. -1.
        -14    1    6    6    0    0  0.76624053250E+02 -0.43974244053E+02  0.44886626765E+02  0.99094848195E+02  0.00000000000E+00 0.  1.
</event>
<event>
12    1  0.8451514E-002  0.2529125E+03  0.7818608E-02  0.1111636E+00
         21   -1    0    0  501  502  0.00000000000E+00  0.00000000000E+00  0.25238821349E+03  0.25238821349E+03  0.00000000000E+00 0. -1.
         21   -1    0    0  502  503 -0.00000000000E+00 -0.00000000000E+00 -0.36819423997E+03  0.36819423997E+03  0.00000000000E+00 0.  1.
         -6    2    1    2    0  503 -0.18172703705E+03  0.67344467571E+01 -0.23197489260E+03  0.34318663113E+03  0.17576872367E+03 0.  0.
        -24    2    3    3    0    0 -0.21672518707E+02 -0.12692020737E+02 -0.12241277994E+03  0.14819744422E+03  0.79666858368E+02 0.  0.
          6    2    1    2  501    0  0.18172703705E+03 -0.67344467571E+01  0.11616886612E+03  0.27739582233E+03  0.17430768205E+03 0.  0.
         24    2    5    5    0    0  0.11816651983E+03  0.16749546739E+02  0.35803845175E+00  0.14313609231E+03  0.79018599113E+02 0.  0.
          5    1    5    5  501    0  0.63560517223E+02 -0.23483993496E+02  0.11581082767E+03  0.13425973002E+03  0.47000000000E+01 0. -1.
        -11    1    6    6    0    0  0.99779342206E+02  0.44947138490E+02  0.16554630741E+01  0.10944817471E+03  0.00000000000E+00 0.  1.
         12    1    6    6    0    0  0.18387177619E+02 -0.28197591751E+02 -0.12974246223E+01  0.33687917597E+02  0.00000000000E+00 0. -1.
         -5    1    3    3    0  503 -0.16005451834E+03  0.19426467494E+02 -0.10956211266E+03  0.19498918691E+03  0.47000000000E+01 0.  1.
         11    1    4    4    0    0 -0.38516627173E+02 -0.32219279400E+02 -0.48094152128E+02  0.69531719401E+02  0.00000000000E+00 0. -1.
        -12    1    4    4    0    0  0.16844108467E+02  0.19527258664E+02 -0.74318627814E+02  0.78665724818E+02  0.00000000000E+00 0.  1.
</event>
<event>
12    1  0.8451514E-002  0.1831490E+03  0.7818608E-02  0.1165512E+00
         21   -1    0    0  503  502  0.00000000000E+00  0.00000000000E+00  0.70420265212E+03  0.70420265212E+03  0.00000000000E+00 0. -1.
         21   -1    0    0  501  503 -0.00000000000E+00 -0.00000000000E+00 -0.11188466139E+03  0.11188466139E+03  0.00000000000E+00 0. -1.
          6    2    1    2  501    0  0.29659462840E+02 -0.53829764946E+02 -0.13899558290E+02  0.18367566651E+03  0.17252891183E+03 0.  0.
         24    2    3    3    0    0  0.33955288897E+02 -0.10209669960E+03 -0.18029309753E+02  0.13481570387E+03  0.79205557173E+02 0.  0.
         -6    2    1    2    0  502 -0.29659462840E+02  0.53829764946E+02  0.60621754903E+03  0.63241164700E+03  0.16931463960E+03 0.  0.
        -24    2    5    5    0    0 -0.51654736685E+02 -0.11427871297E+02  0.47191681589E+03  0.48141122289E+03  0.79072601721E+02 0.  0.
          5    1    3    3  501    0 -0.42958260572E+01  0.48266934651E+02  0.41297514634E+01  0.48859962641E+02  0.47000000000E+01 0. -1.
        -13    1    4    4    0    0  0.14020632604E+02 -0.22621866493E+02  0.29788841662E+02  0.39946239746E+02  0.00000000000E+00 0.  1.
         14    1    4    4    0    0  0.19934656294E+02 -0.79474833104E+02 -0.47818151416E+02  0.94869464125E+02  0.00000000000E+00 0. -1.
         -5    1    5    5    0  502  0.21995273845E+02  0.65257636243E+02  0.13430073314E+03  0.15100042411E+03  0.47000000000E+01 0.  1.
         13    1    6    6    0    0 -0.25622118823E+02  0.73671218771E+01  0.38631421879E+02  0.46937769590E+02  0.00000000000E+00 0. -1.
        -14    1    6    6    0    0 -0.26032617862E+02 -0.18794993174E+02  0.43328539401E+03  0.43447345330E+03  0.00000000000E+00 0.  1.
</event>
<event>
12    1  0.8451514E-002  0.1891069E+03  0.7818608E-02  0.1160863E+00
         21   -1    0    0  501  502  0.00000000000E+00  0.00000000000E+00  0.15946107147E+03  0.15946107147E+03  0.00000000000E+00 0.  1.
         21   -1    0    0  502  503 -0.00000000000E+00 -0.00000000000E+00 -0.12939998357E+04  0.12939998357E+04  0.00000000000E+00 0.  1.
         -6    2    1    2    0  503 -0.57936786084E+02  0.55006845943E+02  0.94209947677E+02  0.21127451433E+03  0.17140298096E+03 0.  0.
        -24    2    3    3    0    0 -0.52526436850E+02 -0.39189383838E+02  0.48548959570E+02  0.10634969639E+03  0.68252634187E+02 0.  0.
          6    2    1    2  501    0  0.57936786084E+02 -0.55006845943E+02 -0.12287487119E+04  0.12421863928E+04  0.16377183299E+03 0.  0.
         24    2    5    5    0    0  0.42685494211E+02  0.99433687877E+01 -0.99341436012E+03  0.99753259780E+03  0.79235539961E+02 0.  0.
          5    1    5    5  501    0  0.15251291873E+02 -0.64950214731E+02 -0.23533435179E+03  0.24465379504E+03  0.47000000000E+01 0. -1.
        -13    1    6    6    0    0 -0.17886414328E+01 -0.21967886089E+02 -0.59118744291E+03  0.59159815746E+03  0.00000000000E+00 0.  1.
         14    1    6    6    0    0  0.44474135644E+02  0.31911254877E+02 -0.40222691721E+03  0.40593444034E+03  0.00000000000E+00 0. -1.
         -5    1    3    3    0  503 -0.54103492338E+01  0.94196229781E+02  0.45660988107E+02  0.10492481794E+03  0.47000000000E+01 0.  1.
         13    1    4    4    0    0 -0.10163047202E+02 -0.54607735927E+01 -0.17487303142E+02  0.20950258897E+02  0.00000000000E+00 0. -1.
        -14    1    4    4    0    0 -0.42363389648E+02 -0.33728610245E+02  0.66036262711E+02  0.85399437495E+02  0.00000000000E+00 0.  1.
</event>
<event>
12    1  0.8451514E-002  0.1827507E+03  0.7818608E-02  0.1165240E+00
         21   -1    0    0  503  502  0.00000000000E+00  0.00000000000E+00  0.21285440249E+03  0.21285440249E+03  0.00000000000E+00 0.  1.
         21   -1    0    0  501  503 -0.00000000000E+00 -0.00000000000E+00 -0.16133917456E+03  0.16133917456E+03  0.00000000000E+00 0.  1.
          6    2    1    2  501    0 -0.31693650613E+02  0.50281991226E+02 -0.61847935980E+01  0.18255037910E+03  0.17249238565E+03 0.  0.
         24    2    3    3    0    0 -0.68217415393E+02 -0.79560666741E+01  0.21945009664E+02  0.10812570165E+03  0.80577100645E+02 0.  0.
         -6    2    1    2    0  502  0.31693650613E+02 -0.50281991226E+02  0.57700021529E+02  0.19164319795E+03  0.17281509398E+03 0.  0.
        -24    2    5    5    0    0 -0.39544813599E+02 -0.35709629373E+02  0.68230825738E+02  0.11802078051E+03  0.80215267488E+02 0.  0.
          5    1    3    3  501    0  0.36523764780E+02  0.58238057900E+02 -0.28129803262E+02  0.74424677448E+02  0.47000000000E+01 0. -1.
        -11    1    4    4    0    0 -0.37829608038E+02  0.33358947723E+02 -0.41019252664E+01  0.50603600943E+02  0.00000000000E+00 0.  1.
         12    1    4    4    0    0 -0.30387807355E+02 -0.41315014397E+02  0.26046934930E+02  0.57522100707E+02  0.00000000000E+00 0. -1.
         -5    1    5    5    0  502  0.71238464212E+02 -0.14572361853E+02 -0.10530804209E+02  0.73622417445E+02  0.47000000000E+01 0.  1.
         13    1    6    6    0    0 -0.33353531111E+02 -0.49706406744E+02  0.79137922874E+02  0.99226991015E+02  0.00000000000E+00 0. -1.
        -14    1    6    6    0    0 -0.61912824876E+01  0.13996777370E+02 -0.10907097136E+02  0.18793789493E+02  0.00000000000E+00 0.  1.
</event>
<event>
12    1  0.8451514E-002  0.1721334E+03  0.7818608E-02  0.1176190E+00
         21   -1    0    0  501  502  0.00000000000E+00  0.00000000000E+00  0.30815802438E+03  0.30815802438E+03  0.00000000000E+00 0.  1.
         21   -1    0    0  502  503 -0.00000000000E+00 -0.00000000000E+00 -0.95442593757E+02  0.95442593757E+02  0.00000000000E+00 0.  1.
         -6    2    1    2    0  503 -0.91250029643E+01  0.72664581140E+01  0.92773270265E+02  0.19554229600E+03  0.17173771501E+03 0.  0.
        -24    2    3    3    0    0 -0.42818990596E+02 -0.49582712353E+02  0.39636193577E+02  0.11061437418E+03  0.79828570161E+02 0.  0.
          6    2    1    2  501    0  0.91250029643E+01 -0.72664581140E+01  0.11994216036E+03  0.20805832214E+03  0.16960564993E+03 0.  0.
         24    2    5    5    0    0  0.45267938982E+02  0.40439564250E+02  0.36767022012E+02  0.10547971797E+03  0.78035968242E+02 0.  0.
          5    1    5    5  501    0 -0.36142936017E+02 -0.47706022364E+02  0.83175138344E+02  0.10257860416E+03  0.47000000000E+01 0. -1.
        -11    1    6    6    0    0  0.22279765351E+02 -0.20312050401E+02 -0.13262516935E+01  0.30178241817E+02  0.00000000000E+00 0.  1.
         12    1    6    6    0    0  0.22988173631E+02  0.60751614651E+02  0.38093273706E+02  0.75301476156E+02  0.00000000000E+00 0. -1.
         -5    1    3    3    0  503  0.33693987632E+02  0.56849170467E+02  0.53137076688E+02  0.84927921818E+02  0.47000000000E+01 0.  1.
         11    1    4    4    0    0 -0.33756842872E+02 -0.26958265200E+02 -0.18940281035E+02  0.47169977199E+02  0.00000000000E+00 0. -1.
        -12    1    4    4    0    0 -0.90621477246E+01 -0.22624447153E+02  0.58576474612E+02  0.63444396981E+02  0.00000000000E+00 0.  1.
</event>
<event>
12    1  0.8451514E-002  0.1774372E+03  0.7818608E-02  0.1170480E+00
         21   -1    0    0  503  502  0.00000000000E+00  0.00000000000E+00  0.53794679510E+02  0.53794679510E+02  0.00000000000E+00 0.  1.
         21   -1    0    0  501  503 -0.00000000000E+00 -0.00000000000E+00 -0.79446119749E+03  0.79446119749E+03  0.00000000000E+00 0.  1.
          6    2    1    2  501    0 -0.62615700179E+01  0.40767793402E+02 -0.58863476569E+03  0.61459455403E+03  0.17185563194E+03 0.  0.
         24    2    3    3    0    0 -0.55985396494E+02 -0.15540796683E+02 -0.28353767563E+03  0.30035031685E+03  0.80254709207E+02 0.  0.
         -6    2    1    2    0  502  0.62615700179E+01 -0.40767793402E+02 -0.15203175229E+03  0.23366132297E+03  0.17257676526E+03 0.  0.
        -24    2    5    5    0    0  0.17219406894E+02  0.13498974928E+02 -0.15764620846E+03  0.17781717868E+03  0.79296227473E+02 0.  0.
          5    1    3    3  501    0  0.49723826476E+02  0.56308590086E+02 -0.30509709006E+03  0.31424423718E+03  0.47000000000E+01 0. -1.
        -11    1    4    4    0    0 -0.11258737610E+02 -0.44350366167E+02 -0.12376036255E+03  0.13194825308E+03  0.00000000000E+00 0.  1.
         12    1    4    4    0    0 -0.44726658884E+02  0.28809569484E+02 -0.15977731308E+03  0.16840206377E+03  0.00000000000E+00 0. -1.
         -5    1    5    5    0  502 -0.10957836876E+02 -0.54266768330E+02  0.56144561702E+01  0.55844144295E+02  0.47000000000E+01 0.  1.
         13    1    6    6    0    0  0.42270858653E+02 -0.14210301655E+02 -0.78063511865E+02  0.89903670943E+02  0.00000000000E+00 0. -1.
        -14    1    6    6    0    0 -0.25051451759E+02  0.27709276582E+02 -0.79582696598E+02  0.87913507733E+02  0.00000000000E+00 0.  1.
</event>
<event>
12    1  0.8451514E-002  0.1861405E+03  0.7818608E-02  0.1163034E+00
         21   -1    0    0  501  502  0.00000000000E+00  0.00000000000E+00  0.11314297125E+03  0.11314297125E+03  0.00000000000E+00 0. -1.
         21   -1    0    0  502  503 -0.00000000000E+00 -0.00000000000E+00 -0.31991074434E+03  0.31991074434E+03  0.00000000000E+00 0.  1.
         -6    2    1    2    0  503  0.18887876232E+02  0.55180034765E+02 -0.46796487966E+02  0.18761720803E+03  0.17207183779E+03 0.  0.
        -24    2    3    3    0    0  0.33930761349E+02  0.93234674452E+02 -0.36562041448E+01  0.12797143633E+03  0.80742303663E+02 0.  0.
          6    2    1    2  501    0 -0.18887876232E+02 -0.55180034765E+02 -0.15997128513E+03  0.24543650756E+03  0.17676730205E+03 0.  0.
         24    2    5    5    0    0  0.26717392048E+02 -0.95418341695E+01 -0.15984422998E+03  0.18074653931E+03  0.79462368331E+02 0.  0.
          5    1    5    5  501    0 -0.45605268280E+02 -0.45638200595E+02 -0.12705515178E+00  0.64689968245E+02  0.47000000000E+01 0. -1.
        -13    1    6    6    0    0  0.46068692036E+02  0.14736694104E+02 -0.12524227070E+03  0.13425766610E+03  0.00000000000E+00 0.  1.
         14    1    6    6    0    0 -0.19351299987E+02 -0.24278528274E+02 -0.34601959280E+02  0.46488873210E+02  0.00000000000E+00 0. -1.
         -5    1    3    3    0  503 -0.15042885117E+02 -0.38054639687E+02 -0.43140283821E+02  0.59645771707E+02  0.47000000000E+01 0.  1.
         13    1    4    4    0    0 -0.11481627741E+02  0.26334464170E+02  0.28951843076E+02  0.40786529593E+02  0.00000000000E+00 0. -1.
        -14    1    4    4    0    0  0.45412389091E+02  0.66900210282E+02 -0.32608047220E+02  0.87184906734E+02  0.00000000000E+00 0.  1.
</event>
<event>
12    1  0.8451514E-002  0.1954016E+03  0.7818608E-02  0.1153754E+00
         21   -1    0    0  501  502  0.00000000000E+00  0.00000000000E+00  0.10754234463E+03  0.10754234463E+03  0.00000000000E+00 0. -1.
         21   -1    0    0  502  503 -0.00000000000E+00 -0.00000000000E+00 -0.39406691403E+03  0.39406691403E+03  0.00000000000E+00 0. -1.
         -6    2    1    2    0  503  0.56599255787E+02  0.72455670218E+02 -0.63809123791E+02  0.20555626809E+03  0.17241947445E+03 0.  0.
        -24    2    3    3    0    0  0.82822781072E+02  0.36656946339E+02  0.69586597833E+01  0.12189390437E+03  0.81279494329E+02 0.  0.
          6    2    1    2  501    0 -0.56599255787E+02 -0.72455670218E+02 -0.22271544561E+03  0.29605299057E+03  0.17202297407E+03 0.  0.
         24    2    5    5    0    0 -0.10926141355E+02  0.28870737800E+02 -0.96121566601E+02  0.12752651032E+03  0.77915051188E+02 0.  0.
          5    1    5    5  501    0 -0.45673114432E+02 -0.10132640802E+03 -0.12659387901E+03  0.16852648025E+03  0.47000000000E+01 0. -1.
        -13    1    6    6    0    0  0.11431622323E+02 -0.23660833132E+02 -0.24427332849E+02  0.35877731304E+02  0.00000000000E+00 0.  1.
         14    1    6    6    0    0 -0.22357763678E+02  0.52531570931E+02 -0.71694233752E+02  0.91648779012E+02  0.00000000000E+00 0. -1.
         -5    1    3    3    0  503 -0.26223525285E+02  0.35798723879E+02 -0.70767783575E+02  0.83662363712E+02  0.47000000000E+01 0.  1.
         11    1    4    4    0    0  0.32046033862E+02  0.54183124211E+02  0.21020842493E+02  0.66367424650E+02  0.00000000000E+00 0. -1.
        -12    1    4    4    0    0  0.50776747209E+02 -0.17526177872E+02 -0.14062182710E+02  0.55526479724E+02  0.00000000000E+00 0.  1.
</event>
<event>
12    1  0.8451514E-002  0.1958609E+03  0.7818608E-02  0.1153620E+00
         21   -1    0    0  501  502  0.00000000000E+00  0.00000000000E+00  0.17249192716E+03  0.17249192716E+03  0.00000000000E+00 0.  1.
         21   -1    0    0  502  503 -0.00000000000E+00 -0.00000000000E+00 -0.30342396557E+03  0.30342396557E+03  0.00000000000E+00 0.  1.
         -6    2    1    2    0  503 -0.87606983643E+02 -0.23198031434E+02 -0.18996706860E+03  0.27285341234E+03  0.17363284605E+03 0.  0.
        -24    2    3    3    0    0 -0.19943947612E+02 -0.32950905997E+02 -0.21737908544E+02  0.91203900089E+02  0.79762719808E+02 0.  0.
          6    2    1    2  501    0  0.87606983643E+02  0.23198031434E+02  0.59035030197E+02  0.20306248039E+03  0.17186071077E+03 0.  0.
         24    2    5    5    0    0  0.12671629128E+03  0.11866753336E+01  0.48142265682E+02  0.15664287182E+03  0.78491304452E+02 0.  0.
          5    1    5    5  501    0 -0.39109307635E+02  0.22011356100E+02  0.10892764515E+02  0.46419608570E+02  0.47000000000E+01 0. -1.
        -11    1    6    6    0    0  0.11350354717E+03  0.29307542017E+02  0.44379439576E+02  0.12534560980E+03  0.00000000000E+00 0.  1.
         12    1    6    6    0    0  0.13212744110E+02 -0.28120866684E+02  0.37628261061E+01  0.31297262025E+02  0.00000000000E+00 0. -1.
         -5    1    3    3    0  503 -0.67663036031E+02  0.97528745637E+01 -0.16822916006E+03  0.18164951225E+03  0.47000000000E+01 0.  1.
         11    1    4    4    0    0  0.88738403135E+01 -0.46466649774E+02 -0.32734795087E+02  0.57527918375E+02  0.00000000000E+00 0. -1.
        -12    1    4    4    0    0 -0.28817787926E+02  0.13515743776E+02  0.10996886543E+02  0.33675981714E+02  0.00000000000E+00 0.  1.
</event>
<event>
12    1  0.8451514E-002  0.2279045E+03  0.7818608E-02  0.1128625E+00
         21   -1    0    0  501  502  0.00000000000E+00  0.00000000000E+00  0.13861966081E+04  0.13861966081E+04  0.00000000000E+00 0.  1.
         21   -1    0    0  502  503 -0.00000000000E+00 -0.00000000000E+00 -0.37468318814E+02  0.37468318814E+02  0.00000000000E+00 0. -1.
         -6    2    1    2    0  503 -0.14339272450E+03  0.35107707493E+02  0.59161636005E+03  0.63299498751E+03  0.16993737720E+03 0.  0.
        -24    2    3    3    0    0 -0.15557510404E+03  0.69007004391E+02  0.52417649351E+03  0.55639343204E+03  0.76466170395E+02 0.  0.
          6    2    1    2  501    0  0.14339272450E+03 -0.35107707493E+02  0.75711192924E+03  0.79066993941E+03  0.17362734554E+03 0.  0.
         24    2    5    5    0    0  0.17000316561E+03 -0.40796118611E+02  0.71571261874E+03  0.74090583079E+03  0.78303881482E+02 0.  0.
          5    1    5    5  501    0 -0.26610441111E+02  0.56884111185E+01  0.41399310501E+02  0.49764108624E+02  0.47000000000E+01 0. -1.
        -13    1    6    6    0    0  0.57904476767E+02  0.22725552878E+02  0.25914283298E+03  0.26650400948E+03  0.00000000000E+00 0.  1.
         14    1    6    6    0    0  0.11209868885E+03 -0.63521671489E+02  0.45656978576E+03  0.47440182131E+03  0.00000000000E+00 0. -1.
         -5    1    3    3    0  503  0.12182379543E+02 -0.33899296899E+02  0.67439866537E+02  0.76601555468E+02  0.47000000000E+01 0.  1.
         13    1    4    4    0    0 -0.51384829536E+01  0.30705011156E+02  0.78026295273E+02  0.84007764351E+02  0.00000000000E+00 0. -1.
        -14    1    4    4    0    0 -0.15043662109E+03  0.38301993235E+02  0.44615019824E+03  0.47238566769E+03  0.00000000000E+00 0.  1.
</event>
<event>
12    1  0.8451514E-002  0.1738989E+03  0.7818608E-02  0.1175182E+00
         21   -1    0    0  501  502  0.00000000000E+00  0.00000000000E+00  0.40022627331E+03  0.40022627331E+03  0.00000000000E+00 0.  1.
         21   -1    0    0  502  503 -0.00000000000E+00 -0.00000000000E+00 -0.80265458099E+02  0.80265458099E+02  0.00000000000E+00 0.  1.
         -6    2    1    2    0  503  0.18006064561E+02 -0.14297057393E+02  0.87058528757E+02  0.18982986890E+03  0.16711543163E+03 0.  0.
        -24    2    3    3    0    0  0.31404156450E+02 -0.45948089378E+02  0.35450537203E+01  0.99398197436E+02  0.82279926397E+02 0.  0.
          6    2    1    2  501    0 -0.18006064561E+02  0.14297057393E+02  0.23290228645E+03  0.29066186250E+03  0.17237232686E+03 0.  0.
         24    2    5    5    0    0  0.10711729406E+02  0.57267306051E+02  0.21419315801E+03  0.23549597225E+03  0.78647050293E+02 0.  0.
          5    1    5    5  501    0 -0.28717793967E+02 -0.42970248658E+02  0.18709128443E+02  0.55165890250E+02  0.47000000000E+01 0. -1.
        -11    1    6    6    0    0 -0.29614195383E+02  0.18055206033E+02  0.12766638333E+03  0.13229397743E+03  0.00000000000E+00 0.  1.
         12    1    6    6    0    0  0.40325924789E+02  0.39212100018E+02  0.86526774684E+02  0.10320199482E+03  0.00000000000E+00 0. -1.
         -5    1    3    3    0  503 -0.13398091889E+02  0.31651031984E+02  0.83513475037E+02  0.90431671469E+02  0.47000000000E+01 0.  1.
         13    1    4    4    0    0  0.26428376514E+02  0.11413686267E+02 -0.22174340680E+02  0.36337758654E+02  0.00000000000E+00 0. -1.
        -14    1    4    4    0    0  0.49757799363E+01 -0.57361775645E+02  0.25719394401E+02  0.63060438783E+02  0.00000000000E+00 0.  1.
</event>
<event>
12    1  0.8451514E-002  0.2463067E+03  0.7818608E-02  0.1116101E+00
         21   -1    0    0  503  502  0.00000000000E+00  0.00000000000E+00  0.10756969494E+03  0.10756969494E+03  0.00000000000E+00 0.  1.
         21   -1    0    0  501  503 -0.00000000000E+00 -0.00000000000E+00 -0.60866356874E+03  0.60866356874E+03  0.00000000000E+00 0.  1.
          6    2    1    2  501    0  0.16501601922E+03  0.48315634855E+02 -0.35281053565E+03  0.42873551673E+03  0.17255196918E+03 0.  0.
         24    2    3    3    0    0  0.14294229980E+03  0.21890652915E+00 -0.33438086067E+03  0.37250129863E+03  0.80710027326E+02 0.  0.
         -6    2    1    2    0  502 -0.16501601922E+03 -0.48315634855E+02 -0.14828333816E+03  0.28749774695E+03  0.17635849556E+03 0.  0.
        -24    2    5    5    0    0 -0.14495271935E+03  0.25871355411E+02 -0.80422251231E+02  0.18486508819E+03  0.77632109710E+02 0.  0.
          5    1    3    3  501    0  0.22073719425E+02  0.48096728326E+02 -0.18429674981E+02  0.56234218095E+02  0.47000000000E+01 0. -1.
        -11    1    4    4    0    0  0.54312694785E+02  0.37353698539E+02 -0.16633348394E+03  0.17891896347E+03  0.00000000000E+00 0.  1.
         12    1    4    4    0    0  0.88629605016E+02 -0.37134792010E+02 -0.16804737673E+03  0.19358233517E+03  0.00000000000E+00 0. -1.
         -5    1    5    5    0  502 -0.20063299871E+02 -0.74186990266E+02 -0.67861086929E+02  0.10263265877E+03  0.47000000000E+01 0.  1.
         13    1    6    6    0    0 -0.58333431516E+02  0.37751773277E+02 -0.66789206319E+02  0.96378336252E+02  0.00000000000E+00 0. -1.
        -14    1    6    6    0    0 -0.86619287837E+02 -0.11880417866E+02 -0.13633044911E+02  0.88486751933E+02  0.00000000000E+00 0.  1.
</event>
<event>
12    1  0.8451514E-002  0.1733781E+03  0.7818608E-02  0.1174688E+00
         21   -1    0    0  503  502  0.00000000000E+00  0.00000000000E+00  0.35707979821E+03  0.35707979821E+03  0.00000000000E+00 0. -1.
         21   -1    0    0  501  503 -0.00000000000E+00 -0.00000000000E+00 -0.24137541475E+03  0.24137541475E+03  0.00000000000E+00 0. -1.
          6    2    1    2  501    0 -0.88257498301E+01 -0.28634626360E+01 -0.18415749061E+03  0.25207807704E+03  0.17188159383E+03 0.  0.
         24    2    3    3    0    0 -0.37471974633E+02  0.36919331772E+02 -0.46145040098E+02  0.10554206296E+03  0.79009976502E+02 0.  0.
         -6    2    1    2    0  502  0.88257498301E+01  0.28634626360E+01  0.29986187407E+03  0.34637713592E+03  0.17312967247E+03 0.  0.
        -24    2    5    5    0    0  0.32764758149E+01  0.29908269584E+02  0.30425822209E+03  0.31802869856E+03  0.87543974741E+02 0.  0.
          5    1    3    3  501    0  0.28646224803E+02 -0.39782794408E+02 -0.13801245051E+03  0.14653601408E+03  0.47000000000E+01 0. -1.
        -13    1    4    4    0    0  0.17413919373E+02  0.36014085597E+02 -0.18302458921E+02  0.43991350876E+02  0.00000000000E+00 0.  1.
         14    1    4    4    0    0 -0.54885894006E+02  0.90524617486E+00 -0.27842581177E+02  0.61550712084E+02  0.00000000000E+00 0. -1.
         -5    1    5    5    0  502  0.55492740152E+01 -0.27044806948E+02 -0.43963480205E+01  0.28348437362E+02  0.47000000000E+01 0.  1.
         13    1    6    6    0    0 -0.23366709917E+02  0.35028052170E+02  0.27469412839E+03  0.27790255800E+03  0.00000000000E+00 0. -1.
        -14    1    6    6    0    0  0.26643185732E+02 -0.51197825854E+01  0.29564093698E+02  0.40126140555E+02  0.00000000000E+00 0.  1.
</event>
<event>
12    1  0.8451514E-002  0.2449095E+03  0.7818608E-02  0.1116592E+00
         21   -1    0    0  503  502  0.00000000000E+00  0.00000000000E+00  0.33546698693E+03  0.33546698693E+03  0.00000000000E+00 0. -1.
         21   -1    0    0  501  503 -0.00000000000E+00 -0.00000000000E+00 -0.32619407717E+03  0.32619407717E+03  0.00000000000E+00 0. -1.
          6    2    1    2  501    0  0.15703842964E+03  0.74089828980E+02 -0.21784559522E+03  0.32764986048E+03  0.17247422003E+03 0.  0.
         24    2    3    3    0    0  0.69996804333E+02 -0.20302669305E+02 -0.45220762645E+02  0.11245782743E+03  0.72733036355E+02 0.  0.
         -6    2    1    2    0  502 -0.15703842964E+03 -0.74089828980E+02  0.22711850498E+03  0.33401120362E+03  0.17271449765E+03 0.  0.
        -24    2    5    5    0    0 -0.10139985071E+03 -0.95595976937E+01  0.53319777803E+02  0.14039330728E+03  0.80585149951E+02 0.  0.
          5    1    3    3  501    0  0.87041625308E+02  0.94392498285E+02 -0.17262483257E+03  0.21519203305E+03  0.47000000000E+01 0. -1.
        -11    1    4    4    0    0  0.73517583252E+02 -0.27845977053E+02 -0.13628253206E+02  0.79786983718E+02  0.00000000000E+00 0.  1.
         12    1    4    4    0    0 -0.35207789191E+01  0.75433077479E+01 -0.31592509439E+02  0.32670843709E+02  0.00000000000E+00 0. -1.
         -5    1    5    5    0  502 -0.55638578935E+02 -0.64530231286E+02  0.17379872718E+03  0.19361789635E+03  0.47000000000E+01 0.  1.
         13    1    6    6    0    0 -0.36684555311E+02 -0.35410453569E+00  0.64378485235E+02  0.74097714873E+02  0.00000000000E+00 0. -1.
        -14    1    6    6    0    0 -0.64715295395E+02 -0.92054931580E+01 -0.11058707432E+02  0.66295592406E+02  0.00000000000E+00 0.  1.
</event>
<event>
12    1  0.8451514E-002  0.2475482E+03  0.7818608E-02  0.1114885E+00
         21   -1    0    0  503  502  0.00000000000E+00  0.00000000000E+00  0.25754712497E+03  0.25754712497E+03  0.00000000000E+00 0. -1.
         21   -1    0    0  501  503 -0.00000000000E+00 -0.00000000000E+00 -0.25483345727E+03  0.25483345727E+03  0.00000000000E+00 0. -1.
          6    2    1    2  501    0  0.25291725738E+02 -0.17594543730E+03 -0.64854141518E+02  0.25577678722E+03  0.17210240239E+03 0.  0.
         24    2    3    3    0    0  0.79424862973E+02 -0.95216470441E+02 -0.20254170665E+02  0.14873095574E+03  0.79600129797E+02 0.  0.
         -6    2    1    2    0  502 -0.25291725738E+02  0.17594543730E+03  0.67567809216E+02  0.25660379502E+03  0.17228938006E+03 0.  0.
        -24    2    5    5    0    0  0.25052058316E+02  0.15203300334E+03  0.90933411594E+02  0.19598744025E+03  0.80003447822E+02 0.  0.
          5    1    3    3  501    0 -0.54133137234E+02 -0.80728966858E+02 -0.44599970854E+02  0.10704583148E+03  0.47000000000E+01 0. -1.
        -11    1    4    4    0    0  0.31401626370E+02 -0.85161838331E+02  0.96392173469E+01  0.91277134911E+02  0.00000000000E+00 0.  1.
         12    1    4    4    0    0  0.48023236603E+02 -0.10054632110E+02 -0.29893388012E+02  0.57453820826E+02  0.00000000000E+00 0. -1.
         -5    1    5    5    0  502 -0.50343784055E+02  0.23912433962E+02 -0.23365602378E+02  0.60616354769E+02  0.47000000000E+01 0.  1.
         11    1    6    6    0    0 -0.10778365342E+02  0.11941037377E+03  0.41785107897E+02  0.12696852273E+03  0.00000000000E+00 0. -1.
        -12    1    6    6    0    0  0.35830423658E+02  0.32622629568E+02  0.49148303697E+02  0.69018917520E+02  0.00000000000E+00 0.  1.
</event>
<event>
12    1  0.8451514E-002  0.2098935E+03  0.7818608E-02  0.1141934E+00
         21   -1    0    0  503  502  0.00000000000E+00  0.00000000000E+00  0.38979593587E+03  0.38979593587E+03  0.00000000000E+00 0.  1.
         21   -1    0    0  501  503 -0.00000000000E+00 -0.00000000000E+00 -0.12045761852E+03  0.12045761852E+03  0.00000000000E+00 0.  1.
          6    2    1    2  501    0 -0.63379813208E+02  0.99077532423E+02  0.67661926369E+02  0.21917169374E+03  0.17211838049E+03 0.  0.
         24    2    3    3    0    0 -0.51639173286E+02 -0.10399724450E+02  0.45809194580E+02  0.10682070672E+03  0.80854329441E+02 0.  0.
         -6    2    1    2    0  502  0.63379813208E+02 -0.99077532423E+02  0.20167639098E+03  0.29108186065E+03  0.17384454196E+03 0.  0.
        -24    2    5    5    0    0 -0.18371863071E+02 -0.81144032230E+02  0.68477791215E+02  0.13370046410E+03  0.79150027736E+02 0.  0.
          5    1    3    3  501    0 -0.11740639922E+02  0.10947725687E+03  0.21852731789E+02  0.11235098702E+03  0.47000000000E+01 0. -1.
        -13    1    4    4    0    0 -0.10604849196E+02 -0.23282418550E+02  0.56915153861E+02  0.62400870019E+02  0.00000000000E+00 0.  1.
         14    1    4    4    0    0 -0.41034324090E+02  0.12882694101E+02 -0.11105959282E+02  0.44419836699E+02  0.00000000000E+00 0. -1.
         -5    1    5    5    0  502  0.81751676279E+02 -0.17933500193E+02  0.13319859976E+03  0.15738139656E+03  0.47000000000E+01 0.  1.
         13    1    6    6    0    0 -0.59222390701E+01 -0.23386075395E+02  0.70569420702E+02  0.74578982134E+02  0.00000000000E+00 0. -1.
        -14    1    6    6    0    0 -0.12449624001E+02 -0.57757956835E+02 -0.20916294866E+01  0.59121481962E+02  0.00000000000E+00 0.  1.
</event>
<event>
12    1  0.8451514E-002  0.1763053E+03  0.7818608E-02  0.1171645E+00
         21   -1    0    0  503  502  0.00000000000E+00  0.00000000000E+00  0.17024198838E+03  0.17024198838E+03  0.00000000000E+00 0. -1.
         21   -1    0    0  501  503 -0.00000000000E+00 -0.00000000000E+00 -0.62036584350E+03  0.62036584350E+03  0.00000000000E+00 0.  1.
          6    2    1    2  501    0  0.37122792698E+02 -0.67065601253E+01 -0.55731535978E+03  0.58427416695E+03  0.17132662441E+03 0.  0.
         24    2    3    3    0    0  0.46277814599E+01 -0.66952759763E+02 -0.29026307947E+03  0.30854868618E+03  0.80284170542E+02 0.  0.
         -6    2    1    2    0  502 -0.37122792698E+02  0.67065601253E+01  0.10719150466E+03  0.20633366493E+03  0.17222219057E+03 0.  0.
        -24    2    5    5    0    0 -0.85515875221E+02  0.68538067021E+01  0.39862920589E+02  0.12328464115E+03  0.79057641785E+02 0.  0.
          5    1    3    3  501    0  0.32495011238E+02  0.60246199638E+02 -0.26705228031E+03  0.27572548077E+03  0.47000000000E+01 0. -1.
        -13    1    4    4    0    0  0.24708563577E+02 -0.21006154826E+02 -0.21913975223E+03  0.22152652812E+03  0.00000000000E+00 0.  1.
         14    1    4    4    0    0 -0.20080782117E+02 -0.45946604937E+02 -0.71123327244E+02  0.87022158062E+02  0.00000000000E+00 0. -1.
         -5    1    5    5    0  502  0.48393082523E+02 -0.14724657681E+00  0.67328584071E+02  0.83049023779E+02  0.47000000000E+01 0.  1.
         13    1    6    6    0    0 -0.40845616820E+02  0.31215126538E+02  0.49651412869E+02  0.71470352861E+02  0.00000000000E+00 0. -1.
        -14    1    6    6    0    0 -0.44670258401E+02 -0.24361319836E+02 -0.97884922799E+01  0.51814288289E+02  0.00000000000E+00 0.  1.
</event>
<event>
12    1  0.8451514E-002  0.3545771E+03  0.7818608E-02  0.1060780E+00
         21   -1    0    0  501  502  0.00000000000E+00  0.00000000000E+00  0.15139751189E+03  0.15139751189E+03  0.00000000000E+00 0. -1.
         21   -1    0    0  502  503 -0.00000000000E+00 -0.00000000000E+00 -0.97183482209E+03  0.97183482209E+03  0.00000000000E+00 0.  1.
         -6    2    1    2    0  503 -0.30703079625E+03 -0.42050637625E+02 -0.62507875006E+03  0.71864343561E+03  0.17230431743E+03 0.  0.
        -24    2    3    3    0    0 -0.58856119626E+02 -0.14451460812E+02 -0.20783450360E+03  0.23236446642E+03  0.84410762529E+02 0.  0.
          6    2    1    2  501    0  0.30703079625E+03  0.42050637625E+02 -0.19535856014E+03  0.40458889838E+03  0.17172956560E+03 0.  0.
         24    2    5    5    0    0  0.16559496286E+03  0.87536818931E+02 -0.12974087855E+03  0.24210549063E+03  0.81841228202E+02 0.  0.
          5    1    5    5  501    0  0.14143583338E+03 -0.45486181306E+02 -0.65617681593E+02  0.16248340774E+03  0.47000000000E+01 0. -1.
        -11    1    6    6    0    0  0.11965618498E+03  0.22630958650E+02 -0.98664664107E+02  0.15673059317E+03  0.00000000000E+00 0.  1.
         12    1    6    6    0    0  0.45938777888E+02  0.64905860280E+02 -0.31076214442E+02  0.85374897462E+02  0.00000000000E+00 0. -1.
         -5    1    3    3    0  503 -0.24817467662E+03 -0.27599176813E+02 -0.41724424645E+03  0.48627896919E+03  0.47000000000E+01 0.  1.
         11    1    4    4    0    0 -0.86984267484E+00  0.17948857411E+02 -0.45984861849E+01  0.18548967191E+02  0.00000000000E+00 0. -1.
        -12    1    4    4    0    0 -0.57986276951E+02 -0.32400318224E+02 -0.20323601742E+03  0.21381549923E+03  0.00000000000E+00 0.  1.
</event>
<event>
12    1  0.8451514E-002  0.2007455E+03  0.7818608E-02  0.1149451E+00
         21   -1    0    0  503  502  0.00000000000E+00  0.00000000000E+00  0.26373427176E+03  0.26373427176E+03  0.00000000000E+00 0.  1.
         21   -1    0    0  501  503 -0.00000000000E+00 -0.00000000000E+00 -0.15172751720E+03  0.15172751720E+03  0.00000000000E+00 0.  1.
          6    2    1    2  501    0 -0.74032109127E+02 -0.73547466600E+02  0.49732904001E+02  0.20681420861E+03  0.17148986010E+03 0.  0.
         24    2    3    3    0    0 -0.50413774146E+02 -0.82198908436E+02 -0.24345800059E+02  0.12844063150E+03  0.81277725537E+02 0.  0.
         -6    2    1    2    0  502  0.74032109127E+02  0.73547466600E+02  0.62273850566E+02  0.20864758035E+03  0.16960482687E+03 0.  0.
        -24    2    5    5    0    0  0.93953953280E+02  0.73146485033E+02  0.95599999745E+02  0.16953539708E+03  0.73655531386E+02 0.  0.
          5    1    3    3  501    0 -0.23618334981E+02  0.86514418361E+01  0.74078704060E+02  0.78373577105E+02  0.47000000000E+01 0. -1.
        -13    1    4    4    0    0 -0.62195806901E+02 -0.68706055723E+02  0.63576681274E+01  0.92893812674E+02  0.00000000000E+00 0.  1.
         14    1    4    4    0    0  0.11782032755E+02 -0.13492852713E+02 -0.30703468186E+02  0.35546818829E+02  0.00000000000E+00 0. -1.
         -5    1    5    5    0  502 -0.19921844154E+02  0.40098156631E+00 -0.33326149179E+02  0.39112183265E+02  0.47000000000E+01 0.  1.
         11    1    6    6    0    0 -0.26822016183E+00  0.11404935406E+02 -0.99694105508E+01  0.15150367665E+02  0.00000000000E+00 0. -1.
        -12    1    6    6    0    0  0.94222173442E+02  0.61741549627E+02  0.10556941030E+03  0.15438502942E+03  0.00000000000E+00 0.  1.
</event>
<event>
12    1  0.8451514E-002  0.2577789E+03  0.7818608E-02  0.1108626E+00
         21   -1    0    0  501  502  0.00000000000E+00  0.00000000000E+00  0.45654088018E+03  0.45654088018E+03  0.00000000000E+00 0.  1.
         21   -1    0    0  502  503 -0.00000000000E+00 -0.00000000000E+00 -0.14669012429E+03  0.14669012429E+03  0.00000000000E+00 0. -1.
         -6    2    1    2    0  503  0.65065971806E+02  0.17883474753E+03  0.18728671791E+03  0.31863188999E+03  0.17388076088E+03 0.  0.
        -24    2    3    3    0    0  0.10837248947E+03  0.15050199133E+03  0.12322004478E+03  0.23614050771E+03  0.78636595012E+02 0.  0.
          6    2    1    2  501    0 -0.65065971806E+02 -0.17883474753E+03  0.12256403799E+03  0.28459911448E+03  0.17250873874E+03 0.  0.
         24    2    5    5    0    0 -0.10751347121E+03 -0.14889905098E+03  0.75971032773E+02  0.21466389968E+03  0.81110530347E+02 0.  0.
          5    1    5    5  501    0  0.42447499400E+02 -0.29935696553E+02  0.46593005217E+02  0.69935214796E+02  0.47000000000E+01 0. -1.
        -13    1    6    6    0    0 -0.33000848963E+02 -0.29583803733E+02  0.57782405204E+02  0.72822138301E+02  0.00000000000E+00 0.  1.
         14    1    6    6    0    0 -0.74512622244E+02 -0.11931524725E+03  0.18188627569E+02  0.14184176138E+03  0.00000000000E+00 0. -1.
         -5    1    3    3    0  503 -0.43306517663E+02  0.28332756203E+02  0.64066673125E+02  0.82491382286E+02  0.47000000000E+01 0.  1.
         13    1    4    4    0    0  0.60665303509E+01 -0.83082299025E+01 -0.53819033385E+00  0.10301413663E+02  0.00000000000E+00 0. -1.
        -14    1    4    4    0    0  0.10230595912E+03  0.15881022123E+03  0.12375823512E+03  0.22583909404E+03  0.00000000000E+00 0.  1.
</event>
<event>
12    1  0.8451514E-002  0.2006042E+03  0.7818608E-02  0.1149324E+00
         21   -1    0    0  501  502  0.00000000000E+00  0.00000000000E+00  0.60599886768E+03  0.60599886768E+03  0.00000000000E+00 0. -1.
         21   -1    0    0  502  503 -0.00000000000E+00 -0.00000000000E+00 -0.12456844515E+03  0.12456844515E+03  0.00000000000E+00 0.  1.
         -6    2    1    2    0  503 -0.53199311684E+02  0.89566455624E+02  0.49049080093E+03  0.52975858277E+03  0.17091112744E+03 0.  0.
        -24    2    3    3    0    0  0.26055683986E+01 -0.14170598316E+02  0.22747903381E+03  0.24153498788E+03  0.79905223282E+02 0.  0.
          6    2    1    2  501    0  0.53199311684E+02 -0.89566455624E+02 -0.90603783973E+01  0.20080873006E+03  0.17143435733E+03 0.  0.
         24    2    5    5    0    0 -0.78548567076E+01 -0.23449785515E+02  0.43189598838E+02  0.96639753558E+02  0.82839056642E+02 0.  0.
          5    1    5    5  501    0  0.61054168391E+02 -0.66116670109E+02 -0.52249977235E+02  0.10416897650E+03  0.47000000000E+01 0. -1.
        -13    1    6    6    0    0 -0.16016282271E+02 -0.53196885221E+02  0.26193475428E+02  0.61420908899E+02  0.00000000000E+00 0.  1.
         14    1    6    6    0    0  0.81614255632E+01  0.29747099706E+02  0.16996123410E+02  0.35218844659E+02  0.00000000000E+00 0. -1.
         -5    1    3    3    0  503 -0.55804880082E+02  0.10373705394E+03  0.26301176712E+03  0.28822359488E+03  0.47000000000E+01 0.  1.
         13    1    4    4    0    0 -0.32887899583E+02  0.80722777019E+01  0.59995071245E+02  0.68892555331E+02  0.00000000000E+00 0. -1.
        -14    1    4    4    0    0  0.35493467982E+02 -0.22242876018E+02  0.16748396256E+03  0.17264243255E+03  0.00000000000E+00 0.  1.
</event>
<event>
12    1  0.8451514E-002  0.2634393E+03  0.7818608E-02  0.1105470E+00
         21   -1    0    0  503  502  0.00000000000E+00  0.00000000000E+00  0.37106745822E+03  0.37106745822E+03  0.00000000000E+00 0.  1.
         21   -1    0    0  501  503 -0.00000000000E+00 -0.00000000000E+00 -0.23084573630E+03  0.23084573630E+03  0.00000000000E+00 0. -1.
          6    2    1    2  501    0 -0.19600717294E+03  0.21267240592E+02 -0.63934066710E+02  0.26862674716E+03  0.17088492339E+03 0.  0.
         24    2    3    3    0    0 -0.70340321627E+02  0.47746689975E+02  0.13916182644E+02  0.11837339418E+03  0.81185547118E+02 0.  0.
         -6    2    1    2    0  502  0.19600717294E+03 -0.21267240592E+02  0.20415578863E+03  0.33328644735E+03  0.17472596428E+03 0.  0.
        -24    2    5    5    0    0  0.11398444384E+03  0.35916480179E+02  0.54578735821E+02  0.15330564078E+03  0.79002114557E+02 0.  0.
          5    1    3    3  501    0 -0.12566685131E+03 -0.26479449382E+02 -0.77850249354E+02  0.15025335298E+03  0.47000000000E+01 0. -1.
        -13    1    4    4    0    0 -0.42003317166E+02  0.33526902277E+01  0.41309448823E+02  0.59008387088E+02  0.00000000000E+00 0.  1.
         14    1    4    4    0    0 -0.28337004461E+02  0.44393999747E+02 -0.27393266179E+02  0.59365007095E+02  0.00000000000E+00 0. -1.
         -5    1    5    5    0  502  0.82022729100E+02 -0.57183720771E+02  0.14957705281E+03  0.17998080658E+03  0.47000000000E+01 0.  1.
         13    1    6    6    0    0  0.11726655394E+03  0.14054999073E+02  0.33510876004E+02  0.12276793752E+03  0.00000000000E+00 0. -1.
        -14    1    6    6    0    0 -0.32821101048E+01  0.21861481106E+02  0.21067859817E+02  0.30537703256E+02  0.00000000000E+00 0.  1.
</event>
<event>
12    1  0.8451514E-002  0.1776838E+03  0.7818608E-02  0.1170124E+00
         21   -1    0    0  501  502  0.00000000000E+00  0.00000000000E+00  0.21498780941E+03  0.21498780941E+03  0.00000000000E+00 0. -1.
         21   -1    0    0  502  503 -0.00000000000E+00 -0.00000000000E+00 -0.17348472602E+03  0.17348472602E+03  0.00000000000E+00 0. -1.
         -6    2    1    2    0  503 -0.21767185974E+02 -0.31291673031E+02 -0.55649805746E+02  0.18596271597E+03  0.17329815829E+03 0.  0.
        -24    2    3    3    0    0  0.46609495576E+02 -0.17059083820E+02  0.42312073689E+01  0.93844515232E+02  0.79532587691E+02 0.  0.
          6    2    1    2  501    0  0.21767185974E+02  0.31291673031E+02  0.97152889135E+02  0.20250981947E+03  0.17354700783E+03 0.  0.
         24    2    5    5    0    0  0.17487437069E+02  0.85913692005E+02  0.85221600742E+02  0.14623969551E+03  0.80226893125E+02 0.  0.
          5    1    5    5  501    0  0.42797489058E+01 -0.54622018974E+02  0.11931288393E+02  0.56270123958E+02  0.47000000000E+01 0. -1.
        -11    1    6    6    0    0  0.23807951817E+02  0.39610553235E+01 -0.45087240119E+01  0.24552741623E+02  0.00000000000E+00 0.  1.
         12    1    6    6    0    0 -0.63205147484E+01  0.81952636682E+02  0.89730324754E+02  0.12168695389E+03  0.00000000000E+00 0. -1.
         -5    1    3    3    0  503 -0.68376681550E+02 -0.14232589211E+02 -0.59881013115E+02  0.92118200738E+02  0.47000000000E+01 0.  1.
         11    1    4    4    0    0 -0.12953065631E+02  0.27910691125E+01 -0.22096298862E+02  0.25764673478E+02  0.00000000000E+00 0. -1.
        -12    1    4    4    0    0  0.59562561207E+02 -0.19850152932E+02  0.26327506231E+02  0.68079841754E+02  0.00000000000E+00 0.  1.
</event>
<event>
12    1  0.8451514E-002  0.2166869E+03  0.7818608E-02  0.1136418E+00
         21   -1    0    0  503  502  0.00000000000E+00  0.00000000000E+00  0.34039524514E+03  0.34039524514E+03  0.00000000000E+00 0. -1.
         21   -1    0    0  501  503 -0.00000000000E+00 -0.00000000000E+00 -0.14987655782E+03  0.14987655782E+03  0.00000000000E+00 0.  1.
          6    2    1    2  501    0  0.69489578344E+02  0.11109257755E+03  0.16479387095E+03  0.27206320661E+03  0.17231078377E+03 0.  0.
         24    2    3    3    0    0 -0.15712372941E+02  0.17545847418E+02  0.22672565735E+02  0.81718995728E+02  0.74894683394E+02 0.  0.
         -6    2    1    2    0  502 -0.69489578344E+02 -0.11109257755E+03  0.25724816371E+02  0.21820859635E+03  0.17257712206E+03 0.  0.
        -24    2    5    5    0    0 -0.64692092955E+02 -0.13982985357E+03  0.53194677612E+02  0.17789073212E+03  0.71259974815E+02 0.  0.
          5    1    3    3  501    0  0.85201951285E+02  0.93546730133E+02  0.14212130522E+03  0.19034421089E+03  0.47000000000E+01 0. -1.
        -13    1    4    4    0    0 -0.34436318992E+02  0.29732370128E+02 -0.54296169043E+01  0.45818714941E+02  0.00000000000E+00 0.  1.
         14    1    4    4    0    0  0.18723946050E+02 -0.12186522710E+02  0.28102182640E+02  0.35900280787E+02  0.00000000000E+00 0. -1.
         -5    1    5    5    0  502 -0.47974853889E+01  0.28737276015E+02 -0.27469861241E+02  0.40317864222E+02  0.47000000000E+01 0.  1.
         13    1    6    6    0    0 -0.55321320272E+02 -0.65005111172E+02 -0.42825560882E+00  0.85359805283E+02  0.00000000000E+00 0. -1.
        -14    1    6    6    0    0 -0.93707726825E+01 -0.74824742393E+02  0.53622933221E+02  0.92530926841E+02  0.00000000000E+00 0.  1.
</event>
<event>
12    1  0.8451514E-002  0.1768689E+03  0.7818608E-02  0.1171201E+00
         21   -1    0    0  501  502  0.00000000000E+00  0.00000000000E+00  0.18631849327E+03  0.18631849327E+03  0.00000000000E+00 0. -1.
         21   -1    0    0  502  503 -0.00000000000E+00 -0.00000000000E+00 -0.33929072878E+03  0.33929072878E+03  0.00000000000E+00 0. -1.
         -6    2    1    2    0  503  0.28637295714E+02 -0.20156951693E+02 -0.26410244187E+03  0.31785644731E+03  0.17336730917E+03 0.  0.
        -24    2    3    3    0    0  0.85360697065E+02 -0.24347462759E+02 -0.18307581460E+03  0.21874787568E+03  0.80340722415E+02 0.  0.
          6    2    1    2  501    0 -0.28637295714E+02  0.20156951693E+02  0.11113020636E+03  0.20775277473E+03  0.17200260241E+03 0.  0.
         24    2    5    5    0    0 -0.26699783592E+02 -0.39005854421E+02  0.10197456013E+02  0.90648113535E+02  0.76673054297E+02 0.  0.
          5    1    5    5  501    0 -0.19375121216E+01  0.59162806114E+02  0.10093275035E+03  0.11710466120E+03  0.47000000000E+01 0. -1.
        -11    1    6    6    0    0 -0.20163433220E+02  0.19177307252E+02 -0.86497759172E+01  0.29140208922E+02  0.00000000000E+00 0.  1.
         12    1    6    6    0    0 -0.65363503727E+01 -0.58183161672E+02  0.18847231930E+02  0.61507904612E+02  0.00000000000E+00 0. -1.
         -5    1    3    3    0  503 -0.56723401351E+02  0.41905110658E+01 -0.81026627269E+02  0.99108571629E+02  0.47000000000E+01 0.  1.
         11    1    4    4    0    0  0.11866494117E+00 -0.15221146620E+02 -0.93604846531E+02  0.94834406625E+02  0.00000000000E+00 0. -1.
        -12    1    4    4    0    0  0.85242032124E+02 -0.91263161397E+01 -0.89470968070E+02  0.12391346906E+03  0.00000000000E+00 0.  1.
</event>
<event>
12    1  0.8451514E-002  0.2002964E+03  0.7818608E-02  0.1149902E+00
         21   -1    0    0  503  502  0.00000000000E+00  0.00000000000E+00  0.17578885932E+04  0.17578885932E+04  0.00000000000E+00 0. -1.
         21   -1    0    0  501  503 -0.00000000000E+00 -0.00000000000E+00 -0.50301998578E+02  0.50301998578E+02  0.00000000000E+00 0. -1.
          6    2    1    2  501    0  0.83652849644E+02 -0.61964122665E+02  0.18474890422E+03  0.27249004290E+03  0.17111783694E+03 0.  0.
         24    2    3    3    0    0  0.11242588223E+03 -0.82324879947E+02  0.16995123103E+03  0.23397369607E+03  0.80270197899E+02 0.  0.
         -6    2    1    2    0  502 -0.83652849644E+02  0.61964122665E+02  0.15228376904E+04  0.15357005489E+04  0.16883184760E+03 0.  0.
        -24    2    5    5    0    0 -0.86041593754E+02  0.81059086957E+02  0.14939548335E+04  0.15006772255E+04  0.78468841337E+02 0.  0.
          5    1    3    3  501    0 -0.28773032587E+02  0.20360757282E+02  0.14797673192E+02  0.38516346832E+02  0.47000000000E+01 0. -1.
        -11    1    4    4    0    0  0.71243736618E+02 -0.93025487882E+02  0.13618072367E+03  0.17965133148E+03  0.00000000000E+00 0.  1.
         12    1    4    4    0    0  0.41182145613E+02  0.10700607936E+02  0.33770507362E+02  0.54322364593E+02  0.00000000000E+00 0. -1.
         -5    1    5    5    0  502  0.23887441103E+01 -0.19094964292E+02  0.28882856883E+02  0.35023323392E+02  0.47000000000E+01 0.  1.
         11    1    6    6    0    0  0.37098044893E+01  0.43814700193E+02  0.53931619868E+03  0.54110576856E+03  0.00000000000E+00 0. -1.
        -12    1    6    6    0    0 -0.89751398243E+02  0.37244386763E+02  0.95463863484E+03  0.95957145693E+03  0.00000000000E+00 0.  1.
</event>
<event>
12    1  0.8451514E-002  0.1838204E+03  0.7818608E-02  0.1164396E+00
         21   -1    0    0  503  502  0.00000000000E+00  0.00000000000E+00  0.28454076655E+03  0.28454076655E+03  0.00000000000E+00 0. -1.
         21   -1    0    0  501  503 -0.00000000000E+00 -0.00000000000E+00 -0.15444945467E+03  0.15444945467E+03  0.00000000000E+00 0. -1.
          6    2    1    2  501    0 -0.64735909113E+02  0.79857248102E+01 -0.41304749002E+02  0.18840391199E+03  0.17185878515E+03 0.  0.
         24    2    3    3    0    0  0.30138590754E+00  0.28426248162E+02  0.29498684369E+02  0.90002281330E+02  0.80137980053E+02 0.  0.
         -6    2    1    2    0  502  0.64735909113E+02 -0.79857248102E+01  0.17139606089E+03  0.25058630923E+03  0.17076995918E+03 0.  0.
        -24    2    5    5    0    0  0.69775488847E+02 -0.62871084250E+02  0.89078185195E+02  0.15140908048E+03  0.78539127163E+02 0.  0.
          5    1    3    3  501    0 -0.65037295021E+02 -0.20440523352E+02 -0.70803433371E+02  0.98401630656E+02  0.47000000000E+01 0. -1.
        -11    1    4    4    0    0  0.90518235560E+01  0.50919635547E+02 -0.21887075819E+00  0.51718398065E+02  0.00000000000E+00 0.  1.
         12    1    4    4    0    0 -0.87504376485E+01 -0.22493387385E+02  0.29717555127E+02  0.38283883265E+02  0.00000000000E+00 0. -1.
         -5    1    5    5    0  502 -0.50395797335E+01  0.54885359440E+02  0.82317875692E+02  0.99177228753E+02  0.47000000000E+01 0.  1.
         11    1    6    6    0    0  0.45313440223E+02  0.25677299744E+01  0.61194883428E+02  0.76188679341E+02  0.00000000000E+00 0. -1.
        -12    1    6    6    0    0  0.24462048624E+02 -0.65438814224E+02  0.27883301767E+02  0.75220401138E+02  0.00000000000E+00 0.  1.
</event>
<event>
12    1  0.8451514E-002  0.3365589E+03  0.7818608E-02  0.1068464E+00
         21   -1    0    0  503  502  0.00000000000E+00  0.00000000000E+00  0.91100618325E+02  0.91100618325E+02  0.00000000000E+00 0.  1.
         21   -1    0    0  501  503 -0.00000000000E+00 -0.00000000000E+00 -0.26111214310E+04  0.26111214310E+04  0.00000000000E+00 0. -1.
          6    2    1    2  501    0  0.24755987928E+03  0.14958445206E+03 -0.22386412795E+04  0.22635350199E+04  0.16856632407E+03 0.  0.
         24    2    3    3    0    0  0.20606111499E+03  0.53026694377E+02 -0.16510845328E+04  0.16666342168E+04  0.79476190830E+02 0.  0.
         -6    2    1    2    0  502 -0.24755987928E+03 -0.14958445206E+03 -0.28137953317E+03  0.43868702948E+03  0.17207691892E+03 0.  0.
        -24    2    5    5    0    0 -0.25407997929E+03 -0.15721652068E+03 -0.29079192846E+03  0.42414593734E+03  0.77885558729E+02 0.  0.
          5    1    3    3  501    0  0.41498764282E+02  0.96557757685E+02 -0.58755674676E+03  0.59690080304E+03  0.47000000000E+01 0. -1.
        -11    1    4    4    0    0  0.29940569261E+01 -0.45170437258E+01 -0.22023351269E+03  0.22030017742E+03  0.00000000000E+00 0.  1.
         12    1    4    4    0    0  0.20306705807E+03  0.57543738102E+02 -0.14308510201E+04  0.14463340394E+04  0.00000000000E+00 0. -1.
         -5    1    5    5    0  502  0.65201000137E+01  0.76320686161E+01  0.94123952903E+01  0.14541092141E+02  0.47000000000E+01 0.  1.
         11    1    6    6    0    0 -0.17911934733E+03 -0.14936103341E+03 -0.22587862371E+03  0.32467462410E+03  0.00000000000E+00 0. -1.
        -12    1    6    6    0    0 -0.74960631959E+02 -0.78554872694E+01 -0.64913304750E+02  0.99471313239E+02  0.00000000000E+00 0.  1.
</event>
<event>
12    1  0.8451514E-002  0.2042452E+03  0.7818608E-02  0.1146496E+00
         21   -1    0    0  501  502  0.00000000000E+00  0.00000000000E+00  0.11051833328E+03  0.11051833328E+03  0.00000000000E+00 0. -1.
         21   -1    0    0  502  503 -0.00000000000E+00 -0.00000000000E+00 -0.58455401912E+03  0.58455401912E+03  0.00000000000E+00 0.  1.
         -6    2    1    2    0  503  0.75138320491E+02  0.76133914357E+02 -0.44464370134E+03  0.48872314698E+03  0.17233732370E+03 0.  0.
        -24    2    3    3    0    0  0.21378238214E+02 -0.17970288739E+02 -0.11517691564E+03  0.14185688981E+03  0.77959572502E+02 0.  0.
          6    2    1    2  501    0 -0.75138320491E+02 -0.76133914357E+02 -0.29391984498E+02  0.20634920542E+03  0.17399415422E+03 0.  0.
         24    2    5    5    0    0 -0.85984856411E+02 -0.80585311125E+02 -0.73650751869E+02  0.16032322619E+03  0.79948206384E+02 0.  0.
          5    1    5    5  501    0  0.10846535919E+02  0.44513967679E+01  0.44258767371E+02  0.46025979228E+02  0.47000000000E+01 0. -1.
        -11    1    6    6    0    0  0.58666617574E+01 -0.39317251023E+02 -0.33248269409E+02  0.51823849403E+02  0.00000000000E+00 0.  1.
         12    1    6    6    0    0 -0.91851518168E+02 -0.41268060102E+02 -0.40402482460E+02  0.10849937679E+03  0.00000000000E+00 0. -1.
         -5    1    3    3    0  503  0.53760082277E+02  0.94104203096E+02 -0.32946678570E+03  0.34686625717E+03  0.47000000000E+01 0.  1.
         13    1    4    4    0    0  0.46970355482E+01 -0.52166519774E+01  0.11488206034E+02  0.13463078351E+02  0.00000000000E+00 0. -1.
        -14    1    4    4    0    0  0.16681202666E+02 -0.12753636762E+02 -0.12666512168E+03  0.12839381146E+03  0.00000000000E+00 0.  1.
</event>
<event>
12    1  0.8451514E-002  0.1995787E+03  0.7818608E-02  0.1151415E+00
         21   -1    0    0  501  502  0.00000000000E+00  0.00000000000E+00  0.79368876840E+02  0.79368876840E+02  0.00000000000E+00 0.  1.
         21   -1    0    0  502  503 -0.00000000000E+00 -0.00000000000E+00 -0.54754149444E+03  0.54754149444E+03  0.00000000000E+00 0.  1.
         -6    2    1    2    0  503 -0.13705476523E+01  0.92668459313E+02 -0.33545109517E+03  0.38723004765E+03  0.16979502586E+03 0.  0.
        -24    2    3    3    0    0 -0.11200807376E+02  0.25264856364E+02 -0.60832236864E+02  0.10425038932E+03  0.80023818819E+02 0.  0.
          6    2    1    2  501    0  0.13705476523E+01 -0.92668459313E+02 -0.13272152244E+03  0.23968032363E+03  0.17675500916E+03 0.  0.
         24    2    5    5    0    0  0.54530479582E+02 -0.89489862759E+02 -0.47571071627E+02  0.13913793897E+03  0.78194312236E+02 0.  0.
          5    1    5    5  501    0 -0.53159931930E+02 -0.31785965541E+01 -0.85150450812E+02  0.10054238466E+03  0.47000000000E+01 0. -1.
        -13    1    6    6    0    0  0.85865872365E+00 -0.75208100900E+02 -0.27161098148E+02  0.79966999371E+02  0.00000000000E+00 0.  1.
         14    1    6    6    0    0  0.53671820858E+02 -0.14281761859E+02 -0.20409973478E+02  0.59170939602E+02  0.00000000000E+00 0. -1.
         -5    1    3    3    0  503  0.98302597235E+01  0.67403602949E+02 -0.27461885830E+03  0.28297965834E+03  0.47000000000E+01 0.  1.
         13    1    4    4    0    0 -0.44903362845E+02  0.14388340591E+02 -0.23115581494E+02  0.52513488244E+02  0.00000000000E+00 0. -1.
        -14    1    4    4    0    0  0.33702555469E+02  0.10876515773E+02 -0.37716655370E+02  0.51736901075E+02  0.00000000000E+00 0.  1.
</event>
<event>
12    1  0.8451514E-002  0.1972960E+03  0.7818608E-02  0.1153007E+00
         21   -1    0    0  501  502  0.00000000000E+00  0.00000000000E+00  0.20845641678E+03  0.20845641678E+03  0.00000000000E+00 0.  1.
         21   -1    0    0  502  503 -0.00000000000E+00 -0.00000000000E+00 -0.18359410340E+03  0.18359410340E+03  0.00000000000E+00 0. -1.
         -6    2    1    2    0  503 -0.60309988655E+02  0.70680563494E+02 -0.25057441399E+01  0.19286537069E+03  0.16899034194E+03 0.  0.
        -24    2    3    3    0    0 -0.23354199881E+02  0.11036119313E+03 -0.10050097421E+01  0.13841700160E+03  0.80207510157E+02 0.  0.
          6    2    1    2  501    0  0.60309988655E+02 -0.70680563494E+02  0.27368057520E+02  0.19918514949E+03  0.17404791415E+03 0.  0.
         24    2    5    5    0    0  0.95333672940E+02 -0.84445983956E+02  0.44176093370E+02  0.15770328200E+03  0.81848424091E+02 0.  0.
          5    1    5    5  501    0 -0.35023684285E+02  0.13765420462E+02 -0.16808035851E+02  0.41481867491E+02  0.47000000000E+01 0. -1.
        -13    1    6    6    0    0  0.48029726511E+02 -0.84426492827E+02  0.51330584266E+02  0.10986134990E+03  0.00000000000E+00 0.  1.
         14    1    6    6    0    0  0.47303946429E+02 -0.19491128995E-01 -0.71544908962E+01  0.47841932106E+02  0.00000000000E+00 0. -1.
         -5    1    3    3    0  503 -0.36955788774E+02 -0.39680629640E+02 -0.15007343978E+01  0.54448369087E+02  0.47000000000E+01 0.  1.
         13    1    4    4    0    0  0.28896784235E+02  0.29415707599E+02 -0.72610682074E+01  0.41869214277E+02  0.00000000000E+00 0. -1.
        -14    1    4    4    0    0 -0.52250984116E+02  0.80945485535E+02  0.62560584653E+01  0.96547787323E+02  0.00000000000E+00 0.  1.
</event>
<event>
12    1  0.8451514E-002  0.2156397E+03  0.7818608E-02  0.1137278E+00
         21   -1    0    0  503  502  0.00000000000E+00  0.00000000000E+00  0.11937548255E+04  0.11937548255E+04  0.00000000000E+00 0.  1.
         21   -1    0    0  501  503 -0.00000000000E+00 -0.00000000000E+00 -0.17929665922E+03  0.17929665922E+03  0.00000000000E+00 0. -1.
          6    2    1    2  501    0  0.77551681772E+02 -0.10228441419E+03 -0.10050296510E+03  0.23742884249E+03  0.17261299058E+03 0.  0.
         24    2    3    3    0    0  0.69192843349E+02  0.72956262528E+01 -0.40206305707E+02  0.11198788993E+03  0.77999132945E+02 0.  0.
         -6    2    1    2    0  502 -0.77551681772E+02  0.10228441419E+03  0.11149611314E+04  0.11356226423E+04  0.17327462689E+03 0.  0.
        -24    2    5    5    0    0 -0.10842535938E+03  0.35555837671E+02  0.61987778916E+03  0.63508743604E+03  0.77892886515E+02 0.  0.
          5    1    3    3  501    0  0.83588384224E+01 -0.10958004044E+03 -0.60296659395E+02  0.12544095255E+03  0.47000000000E+01 0. -1.
        -11    1    4    4    0    0  0.65683951588E+02 -0.18230242768E+02 -0.49878379960E+02  0.84466419570E+02  0.00000000000E+00 0.  1.
         12    1    4    4    0    0  0.35088917615E+01  0.25525869021E+02  0.96720742531E+01  0.27521470364E+02  0.00000000000E+00 0. -1.
         -5    1    5    5    0  502  0.30873677606E+02  0.66728576518E+02  0.49508334227E+03  0.50053520624E+03  0.47000000000E+01 0.  1.
         11    1    6    6    0    0 -0.71842140015E+02  0.23822552455E+02  0.20660604798E+03  0.22003378411E+03  0.00000000000E+00 0. -1.
        -12    1    6    6    0    0 -0.36583219363E+02  0.11733285217E+02  0.41327174118E+03  0.41505365193E+03  0.00000000000E+00 0.  1.
</event>
<event>
12    1  0.8451514E-002  0.1797526E+03  0.7818608E-02  0.1168212E+00
         21   -1    0    0  501  502  0.00000000000E+00  0.00000000000E+00  0.23708169339E+04  0.23708169339E+04  0.00000000000E+00 0. -1.
         21   -1    0    0  502  503 -0.00000000000E+00 -0.00000000000E+00 -0.32112209765E+02  0.32112209765E+02  0.00000000000E+00 0. -1.
         -6    2    1    2    0  503 -0.18076004195E+02 -0.55345591757E+02  0.25748642137E+03  0.31402268430E+03  0.17006208459E+03 0.  0.
        -24    2    3    3    0    0 -0.23763281042E+02 -0.28492316722E+02  0.43605486915E+02  0.98336366656E+02  0.79950590242E+02 0.  0.
          6    2    1    2  501    0  0.18076004195E+02  0.55345591757E+02  0.20812183028E+04  0.20889064594E+04  0.16932423255E+03 0.  0.
         24    2    5    5    0    0  0.30873041477E+02  0.10067904674E+03  0.15478572619E+04  0.15534487335E+04  0.79066106204E+02 0.  0.
          5    1    5    5  501    0 -0.12797037282E+02 -0.45333454985E+02  0.53336104088E+03  0.53545772591E+03  0.47000000000E+01 0. -1.
        -11    1    6    6    0    0 -0.25470059684E+02  0.24779903948E+02  0.54019344109E+03  0.54136098990E+03  0.00000000000E+00 0.  1.
         12    1    6    6    0    0  0.56343101161E+02  0.75899142794E+02  0.10076638208E+04  0.10120877436E+04  0.00000000000E+00 0. -1.
         -5    1    3    3    0  503  0.56872768474E+01 -0.26853275034E+02  0.21388093445E+03  0.21568631765E+03  0.47000000000E+01 0.  1.
         13    1    4    4    0    0  0.26882769427E+02 -0.26046918401E+02  0.18117380868E+02  0.41585631410E+02  0.00000000000E+00 0. -1.
        -14    1    4    4    0    0 -0.50646050470E+02 -0.24453983210E+01  0.25488106046E+02  0.56750735246E+02  0.00000000000E+00 0.  1.
</event>
<event>
12    1  0.8451514E-002  0.1799730E+03  0.7818608E-02  0.1167994E+00
         21   -1    0    0  501  502  0.00000000000E+00  0.00000000000E+00  0.94091892623E+02  0.94091892623E+02  0.00000000000E+00 0.  1.
         21   -1    0    0  502  503 -0.00000000000E+00 -0.00000000000E+00 -0.56676657078E+03  0.56676657078E+03  0.00000000000E+00 0. -1.
         -6    2    1    2    0  503  0.46876858461E+02 -0.24241187337E+02 -0.44425684058E+03  0.47932703914E+03  0.17206160242E+03 0.  0.
        -24    2    3    3    0    0 -0.21451102038E+02 -0.57427935237E+02 -0.20269247963E+03  0.22605741817E+03  0.79117618074E+02 0.  0.
          6    2    1    2  501    0 -0.46876858461E+02  0.24241187337E+02 -0.28417837574E+02  0.18153142426E+03  0.17135054560E+03 0.  0.
         24    2    5    5    0    0 -0.80153536745E+02 -0.14368374357E+02 -0.51640650250E+02  0.12532266515E+03  0.80049822038E+02 0.  0.
          5    1    5    5  501    0  0.33276678284E+02  0.38609561694E+02  0.23222812675E+02  0.56208759107E+02  0.47000000000E+01 0. -1.
        -11    1    6    6    0    0 -0.71469728434E+02 -0.23512593119E+02 -0.32417240328E+01  0.75307854121E+02  0.00000000000E+00 0.  1.
         12    1    6    6    0    0 -0.86838083110E+01  0.91442187621E+01 -0.48398926217E+02  0.50014811031E+02  0.00000000000E+00 0. -1.
         -5    1    3    3    0  503  0.68327960499E+02  0.33186747900E+02 -0.24156436096E+03  0.25326962097E+03  0.47000000000E+01 0.  1.
         13    1    4    4    0    0  0.23205139042E+02  0.44553837555E+01 -0.53270555260E+02  0.58275903940E+02  0.00000000000E+00 0. -1.
        -14    1    4    4    0    0 -0.44656241079E+02 -0.61883318992E+02 -0.14942192437E+03  0.16778151423E+03  0.00000000000E+00 0.  1.
</event>
<event>
12    1  0.8451514E-002  0.2326628E+03  0.7818608E-02  0.1125403E+00
         21   -1    0    0  503  502  0.00000000000E+00  0.00000000000E+00  0.85359612774E+02  0.85359612774E+02  0.00000000000E+00 0.  1.
         21   -1    0    0  501  503 -0.00000000000E+00 -0.00000000000E+00 -0.93660333475E+03  0.93660333475E+03  0.00000000000E+00 0. -1.
          6    2    1    2  501    0 -0.10561835793E+03 -0.11370543192E+03 -0.71840213794E+03  0.75404720767E+03  0.16852713971E+03 0.  0.
         24    2    3    3    0    0  0.99843220123E+01 -0.68684772432E+02 -0.33626030519E+03  0.35224463211E+03  0.78663863067E+02 0.  0.
         -6    2    1    2    0  502  0.10561835793E+03  0.11370543192E+03 -0.13284158403E+03  0.26791573985E+03  0.17334299649E+03 0.  0.
        -24    2    5    5    0    0  0.40963269792E+02  0.14056056926E+03 -0.83751978743E+02  0.18228071097E+03  0.69112954960E+02 0.  0.
          5    1    3    3  501    0 -0.11560267994E+03 -0.45020659487E+02 -0.38214183275E+03  0.40180257556E+03  0.47000000000E+01 0. -1.
        -11    1    4    4    0    0 -0.99122835132E+01  0.13296296645E+01 -0.20613989221E+01  0.10211299869E+02  0.00000000000E+00 0.  1.
         12    1    4    4    0    0  0.19896605526E+02 -0.70014402096E+02 -0.33419890627E+03  0.34203333224E+03  0.00000000000E+00 0. -1.
         -5    1    5    5    0  502  0.64655088139E+02 -0.26855137346E+02 -0.49089605287E+02  0.85635028881E+02  0.47000000000E+01 0.  1.
         13    1    6    6    0    0  0.49455374495E+02  0.85373559556E+02 -0.78717271859E+02  0.12621762011E+03  0.00000000000E+00 0. -1.
        -14    1    6    6    0    0 -0.84921047030E+01  0.55187009709E+02 -0.50347068836E+01  0.56063090855E+02  0.00000000000E+00 0.  1.
</event>
<event>
12    1  0.8451514E-002  0.2011013E+03  0.7818608E-02  0.1151483E+00
         21   -1    0    0  501  502  0.00000000000E+00  0.00000000000E+00  0.36154072108E+03  0.36154072108E+03  0.00000000000E+00 0. -1.
         21   -1    0    0  502  503 -0.00000000000E+00 -0.00000000000E+00 -0.14964262905E+03  0.14964262905E+03  0.00000000000E+00 0.  1.
         -6    2    1    2    0  503  0.89603007763E+02  0.57611190384E+02 -0.31081901505E+02  0.20348911317E+03  0.17056959378E+03 0.  0.
        -24    2    3    3    0    0  0.33010008833E-01 -0.22820028949E+02  0.20678535447E+01  0.78537275247E+02  0.75120388538E+02 0.  0.
          6    2    1    2  501    0 -0.89603007763E+02 -0.57611190384E+02  0.24297999354E+03  0.30769423696E+03  0.15584838126E+03 0.  0.
         24    2    5    5    0    0 -0.98192777352E+02 -0.28949075880E+02  0.10651607925E+03  0.16790943502E+03  0.79799954339E+02 0.  0.
          5    1    5    5  501    0  0.85897695885E+01 -0.28662114504E+02  0.13646391429E+03  0.13978480194E+03  0.47000000000E+01 0. -1.
        -11    1    6    6    0    0 -0.10076742181E+03 -0.42092061954E+02  0.10899288241E+03  0.15428954402E+03  0.00000000000E+00 0.  1.
         12    1    6    6    0    0  0.25746444534E+01  0.13142986074E+02 -0.24768031654E+01  0.13619891003E+02  0.00000000000E+00 0. -1.
         -5    1    3    3    0  503  0.89569997755E+02  0.80431219333E+02 -0.33149755050E+02  0.12495183793E+03  0.47000000000E+01 0.  1.
         13    1    4    4    0    0  0.20929127103E+02 -0.43998451251E+02  0.24307523879E+01  0.48783200294E+02  0.00000000000E+00 0. -1.
        -14    1    4    4    0    0 -0.20896117094E+02  0.21178422301E+02 -0.36289884319E+00  0.29754074954E+02  0.00000000000E+00 0.  1.
</event>
<event>
12    1  0.8451514E-002  0.2302642E+03  0.7818608E-02  0.1126752E+00
         21   -1    0    0  501  502  0.00000000000E+00  0.00000000000E+00  0.10442332288E+04  0.10442332288E+04  0.00000000000E+00 0.  1.
         21   -1    0    0  502  503 -0.00000000000E+00 -0.00000000000E+00 -0.77551432346E+02  0.77551432346E+02  0.00000000000E+00 0. -1.
         -6    2    1    2    0  503 -0.89382327399E+02 -0.12226941738E+03  0.81403976201E+03  0.84552172541E+03  0.17119358377E+03 0.  0.
        -24    2    3    3    0    0 -0.59953255699E+01 -0.46775007928E+02  0.19401037443E+03  0.21535402599E+03  0.80706169692E+02 0.  0.
          6    2    1    2  501    0  0.89382327399E+02  0.12226941738E+03  0.15264203448E+03  0.27626293577E+03  0.17344338590E+03 0.  0.
         24    2    5    5    0    0  0.35020779203E+02  0.37199296344E+02 -0.46884531347E+00  0.92804125882E+02  0.77473500891E+02 0.  0.
          5    1    5    5  501    0  0.54361548197E+02  0.85070121039E+02  0.15311087979E+03  0.18345880989E+03  0.47000000000E+01 0. -1.
        -13    1    6    6    0    0 -0.30628015056E+01 -0.20439669239E+02  0.99509667622E+01  0.22938669777E+02  0.00000000000E+00 0.  1.
         14    1    6    6    0    0  0.38083580709E+02  0.57638965583E+02 -0.10419812076E+02  0.69865456105E+02  0.00000000000E+00 0. -1.
         -5    1    3    3    0  503 -0.83387001830E+02 -0.75494409455E+02  0.62002938758E+03  0.63016769942E+03  0.47000000000E+01 0.  1.
         13    1    4    4    0    0 -0.22662952647E+02  0.14070090373E+02  0.88386897129E+02  0.92324538721E+02  0.00000000000E+00 0. -1.
        -14    1    4    4    0    0  0.16667627078E+02 -0.60845098301E+02  0.10562347731E+03  0.12302948727E+03  0.00000000000E+00 0.  1.
</event>
<event>
12    1  0.8451514E-002  0.1822522E+03  0.7818608E-02  0.1166122E+00
         21   -1    0    0  501  502  0.00000000000E+00  0.00000000000E+00  0.51927785734E+02  0.51927785734E+02  0.00000000000E+00 0. -1.
         21   -1    0    0  502  503 -0.00000000000E+00 -0.00000000000E+00 -0.74470165756E+03  0.74470165756E+03  0.00000000000E+00 0.  1.
         -6    2    1    2    0  503  0.23546237184E+02  0.50688756891E+02 -0.19349421137E+03  0.26581174186E+03  0.17347073792E+03 0.  0.
        -24    2    3    3    0    0  0.66682754994E+02  0.16180694393E+02 -0.57599313820E+02  0.11904294843E+03  0.78390930168E+02 0.  0.
          6    2    1    2  501    0 -0.23546237184E+02 -0.50688756891E+02 -0.49927966046E+03  0.53081770144E+03  0.17135774698E+03 0.  0.
         24    2    5    5    0    0 -0.13412531006E+02  0.39136851755E+02 -0.22471050764E+03  0.24171280413E+03  0.78858596749E+02 0.  0.
          5    1    5    5  501    0 -0.10133706178E+02 -0.89825608646E+02 -0.27456915282E+03  0.28910489731E+03  0.47000000000E+01 0. -1.
        -13    1    6    6    0    0 -0.25599584722E+02 -0.35020032481E+01 -0.16671548428E+03  0.16870582522E+03  0.00000000000E+00 0.  1.
         14    1    6    6    0    0  0.12187053716E+02  0.42638855003E+02 -0.57995023359E+02  0.73006978904E+02  0.00000000000E+00 0. -1.
         -5    1    3    3    0  503 -0.43136517810E+02  0.34508062498E+02 -0.13589489755E+03  0.14676879343E+03  0.47000000000E+01 0.  1.
         11    1    4    4    0    0  0.36926641177E+01  0.13077022187E+02  0.16736781320E+02  0.21558388774E+02  0.00000000000E+00 0. -1.
        -12    1    4    4    0    0  0.62990090877E+02  0.31036722063E+01 -0.74336095140E+02  0.97484559652E+02  0.00000000000E+00 0.  1.
</event>
<event>
12    1  0.8451514E-002  0.3532797E+03  0.7818608E-02  0.1061543E+00
         21   -1    0    0  501  502  0.00000000000E+00  0.00000000000E+00  0.10143057266E+03  0.10143057266E+03  0.00000000000E+00 0.  1.
         21   -1    0    0  502  503 -0.00000000000E+00 -0.00000000000E+00 -0.15012397267E+04  0.15012397267E+04  0.00000000000E+00 0. -1.
         -6    2    1    2    0  503  0.30005633008E+03  0.70526284556E+02 -0.35179355755E+03  0.49671223352E+03  0.16720220621E+03 0.  0.
        -24    2    3    3    0    0  0.19719374892E+03  0.10246886291E+03 -0.28520704696E+03  0.36999644008E+03  0.78543386471E+02 0.  0.
          6    2    1    2  501    0 -0.30005633008E+03 -0.70526284556E+02 -0.10480155965E+04  0.11059580658E+04  0.17262327439E+03 0.  0.
         24    2    5    5    0    0 -0.13468211709E+03  0.42073082997E+01 -0.64219344501E+03  0.66138248300E+03  0.82809382877E+02 0.  0.
          5    1    5    5  501    0 -0.16537421299E+03 -0.74733592856E+02 -0.40582215145E+03  0.44457558281E+03  0.47000000000E+01 0. -1.
        -11    1    6    6    0    0 -0.50241456819E+02 -0.32962645122E+02 -0.17123011937E+03  0.18146761071E+03  0.00000000000E+00 0.  1.
         12    1    6    6    0    0 -0.84440660269E+02  0.37169953422E+02 -0.47096332564E+03  0.47991487229E+03  0.00000000000E+00 0. -1.
         -5    1    3    3    0  503  0.10286258116E+03 -0.31942578352E+02 -0.66586510589E+02  0.12671579344E+03  0.47000000000E+01 0.  1.
         13    1    4    4    0    0  0.21461579582E+02  0.15018662868E+02 -0.87743839591E+02  0.91570415631E+02  0.00000000000E+00 0. -1.
        -14    1    4    4    0    0  0.17573216934E+03  0.87450200040E+02 -0.19746320737E+03  0.27842602445E+03  0.00000000000E+00 0.  1.
</event>
<event>
12    1  0.8451514E-002  0.1742393E+03  0.7818608E-02  0.1173585E+00
         21   -1    0    0  501  502  0.00000000000E+00  0.00000000000E+00  0.14788818442E+03  0.14788818442E+03  0.00000000000E+00 0. -1.
         21   -1    0    0  502  503 -0.00000000000E+00 -0.00000000000E+00 -0.22713626103E+03  0.22713626103E+03  0.00000000000E+00 0. -1.
         -6    2    1    2    0  503  0.29191625615E+02 -0.32910509602E+01 -0.98356343803E+02  0.20008323580E+03  0.17174501116E+03 0.  0.
        -24    2    3    3    0    0 -0.39445888705E+02 -0.25487533050E+02 -0.26277863048E+02  0.97999007942E+02  0.81900470051E+02 0.  0.
          6    2    1    2  501    0 -0.29191625615E+02  0.32910509602E+01  0.19108267198E+02  0.17494120965E+03  0.17139521270E+03 0.  0.
         24    2    5    5    0    0 -0.20543278530E+02 -0.35320474778E+02 -0.44177165545E+02  0.10015631930E+03  0.80063125776E+02 0.  0.
          5    1    5    5  501    0 -0.86483470846E+01  0.38611525738E+02  0.63285432742E+02  0.74784890349E+02  0.47000000000E+01 0. -1.
        -13    1    6    6    0    0  0.12676668960E+02 -0.42999555019E+02 -0.61003790100E+00  0.44833378347E+02  0.00000000000E+00 0.  1.
         14    1    6    6    0    0 -0.33219947491E+02  0.76790802413E+01 -0.43567127644E+02  0.55322940954E+02  0.00000000000E+00 0. -1.
         -5    1    3    3    0  503  0.68637514320E+02  0.22196482090E+02 -0.72078480756E+02  0.10208422786E+03  0.47000000000E+01 0.  1.
         11    1    4    4    0    0  0.16133822201E+02 -0.12493941757E+02 -0.34746951653E+02  0.40295774576E+02  0.00000000000E+00 0. -1.
        -12    1    4    4    0    0 -0.55579710906E+02 -0.12993591293E+02  0.84690886058E+01  0.57703233366E+02  0.00000000000E+00 0.  1.
</event>
<event>
12    1  0.8451514E-002  0.1788823E+03  0.7818608E-02  0.1169022E+00
         21   -1    0    0  501  502  0.00000000000E+00  0.00000000000E+00  0.24507686944E+03  0.24507686944E+03  0.00000000000E+00 0. -1.
         21   -1    0    0  502  503 -0.00000000000E+00 -0.00000000000E+00 -0.17850717475E+03  0.17850717475E+03  0.00000000000E+00 0. -1.
         -6    2    1    2    0  503  0.46051619644E+02 -0.36354669561E+01 -0.76887412146E+02  0.19470634638E+03  0.17281469522E+03 0.  0.
        -24    2    3    3    0    0  0.35472932335E+02  0.46614828603E+02  0.45155823467E+01  0.98344848153E+02  0.78867277753E+02 0.  0.
          6    2    1    2  501    0 -0.46051619644E+02  0.36354669561E+01  0.14345710683E+03  0.22887769781E+03  0.17225298477E+03 0.  0.
         24    2    5    5    0    0 -0.14029935132E+02  0.55475493616E+02  0.33507501300E+02  0.10308508118E+03  0.78926623175E+02 0.  0.
          5    1    5    5  501    0 -0.32021684512E+02 -0.51840026660E+02  0.10994960553E+03  0.12579261663E+03  0.47000000000E+01 0. -1.
        -11    1    6    6    0    0 -0.15787238755E+02  0.42672427880E+02 -0.18781240390E+02  0.49223043377E+02  0.00000000000E+00 0.  1.
         12    1    6    6    0    0  0.17573036231E+01  0.12803065736E+02  0.52288741690E+02  0.53862037799E+02  0.00000000000E+00 0. -1.
         -5    1    3    3    0  503  0.10578687309E+02 -0.50250295559E+02 -0.81402994492E+02  0.96361498231E+02  0.47000000000E+01 0.  1.
         11    1    4    4    0    0  0.73009315507E+01  0.43270106568E+02 -0.30380195734E+02  0.53371921613E+02  0.00000000000E+00 0. -1.
        -12    1    4    4    0    0  0.28172000784E+02  0.33447220351E+01  0.34895778080E+02  0.44972926539E+02  0.00000000000E+00 0.  1.
</event>
<event>
12    1  0.8451514E-002  0.1830965E+03  0.7818608E-02  0.1164999E+00
         21   -1    0    0  501  502  0.00000000000E+00  0.00000000000E+00  0.12106918484E+03  0.12106918484E+03  0.00000000000E+00 0. -1.
         21   -1    0    0  502  503 -0.00000000000E+00 -0.00000000000E+00 -0.31034211025E+03  0.31034211025E+03  0.00000000000E+00 0.  1.
         -6    2    1    2    0  503 -0.59807955963E+02  0.10441918971E+02 -0.16666479350E+03  0.24759138942E+03  0.17273771288E+03 0.  0.
        -24    2    3    3    0    0 -0.10546948711E+03  0.12746417687E+02 -0.14614703821E+03  0.19725895034E+03  0.79157140158E+02 0.  0.
          6    2    1    2  501    0  0.59807955963E+02 -0.10441918971E+02 -0.22608131912E+02  0.18381990567E+03  0.17202501221E+03 0.  0.
         24    2    5    5    0    0 -0.34167993524E+02 -0.11875235282E+02 -0.12769420169E+01  0.87328231731E+02  0.79473998778E+02 0.  0.
          5    1    5    5  501    0  0.93975949487E+02  0.14333163119E+01 -0.21331189895E+02  0.96491673941E+02  0.47000000000E+01 0. -1.
        -13    1    6    6    0    0 -0.37399431753E+02  0.92718953400E+01 -0.31865704925E+02  0.50001086878E+02  0.00000000000E+00 0.  1.
         14    1    6    6    0    0  0.32314382286E+01 -0.21147130622E+02  0.30588762908E+02  0.37327144852E+02  0.00000000000E+00 0. -1.
         -5    1    3    3    0  503  0.45661531146E+02 -0.23044987166E+01 -0.20517755296E+02  0.50332439076E+02  0.47000000000E+01 0.  1.
         13    1    4    4    0    0 -0.32177701729E+02  0.40191944054E+02 -0.39078510502E+02  0.64636884505E+02  0.00000000000E+00 0. -1.
        -14    1    4    4    0    0 -0.73291785381E+02 -0.27445526367E+02 -0.10706852770E+03  0.13262206584E+03  0.00000000000E+00 0.  1.
</event>
<event>
12    1  0.8451514E-002  0.1821700E+03  0.7818608E-02  0.1169282E+00
         21   -1    0    0  503  502  0.00000000000E+00  0.00000000000E+00  0.10464801172E+03  0.10464801172E+03  0.00000000000E+00 0.  1.
         21   -1    0    0  501  503 -0.00000000000E+00 -0.00000000000E+00 -0.79317141286E+03  0.79317141286E+03  0.00000000000E+00 0.  1.
          6    2    1    2  501    0 -0.58313051927E+02  0.15372973284E+02 -0.70593765670E+03  0.72906371129E+03  0.17189874820E+03 0.  0.
         24    2    3    3    0    0 -0.21346587149E+02  0.76008971950E+02 -0.41842412275E+03  0.43287227647E+03  0.77888514162E+02 0.  0.
         -6    2    1    2    0  502  0.58313051927E+02 -0.15372973284E+02  0.17414255560E+02  0.16875571329E+03  0.15664767518E+03 0.  0.
        -24    2    5    5    0    0  0.82240414885E+02 -0.18882232165E+02  0.51679364396E+02  0.12655356548E+03  0.78898819380E+02 0.  0.
          5    1    3    3  501    0 -0.36966464778E+02 -0.60635998666E+02 -0.28751353396E+03  0.29619143482E+03  0.47000000000E+01 0. -1.
        -13    1    4    4    0    0  0.34193239063E+00  0.32845631512E+02 -0.33395137108E+03  0.33556291612E+03  0.00000000000E+00 0.  1.
         14    1    4    4    0    0 -0.21688519539E+02  0.43163340438E+02 -0.84472751664E+02  0.97309360348E+02  0.00000000000E+00 0. -1.
         -5    1    5    5    0  502 -0.23927362958E+02  0.35092588810E+01 -0.34265108837E+02  0.42202147808E+02  0.47000000000E+01 0.  1.
         13    1    6    6    0    0 -0.17612877140E+01  0.19860724097E+02  0.21326715714E+02  0.29195535604E+02  0.00000000000E+00 0. -1.
        -14    1    6    6    0    0  0.84001702599E+02 -0.38742956262E+02  0.30352648682E+02  0.97358029877E+02  0.00000000000E+00 0.  1.
</event>
<event>
12    1  0.8451514E-002  0.1922742E+03  0.7818608E-02  0.1157399E+00
         21   -1    0    0  503  502  0.00000000000E+00  0.00000000000E+00  0.85368537220E+02  0.85368537220E+02  0.00000000000E+00 0. -1.
         21   -1    0    0  501  503 -0.00000000000E+00 -0.00000000000E+00 -0.42339718848E+03  0.42339718848E+03  0.00000000000E+00 0.  1.
          6    2    1    2  501    0 -0.63172379973E+02  0.57787696814E+02 -0.16848305952E+03  0.25564805050E+03  0.17216043937E+03 0.  0.
         24    2    3    3    0    0 -0.59005491390E+02  0.28218219612E+02 -0.20381349262E+02  0.10449275445E+03  0.78901333339E+02 0.  0.
         -6    2    1    2    0  502  0.63172379973E+02 -0.57787696814E+02 -0.16954559174E+03  0.25311767520E+03  0.16731013814E+03 0.  0.
        -24    2    5    5    0    0  0.10253475826E+03 -0.47298818720E+02 -0.10159655130E+03  0.17375410998E+03  0.84368694400E+02 0.  0.
          5    1    3    3  501    0 -0.41668885830E+01  0.29569477201E+02 -0.14810171026E+03  0.15115529605E+03  0.47000000000E+01 0. -1.
        -13    1    4    4    0    0  0.37924241048E+01 -0.19841806775E+02 -0.15133187086E+02  0.25240703795E+02  0.00000000000E+00 0.  1.
         14    1    4    4    0    0 -0.62797915495E+02  0.48060026388E+02 -0.52481621760E+01  0.79252050656E+02  0.00000000000E+00 0. -1.
         -5    1    5    5    0  502 -0.39362378286E+02 -0.10488878094E+02 -0.67949040442E+02  0.79363565224E+02  0.47000000000E+01 0.  1.
         13    1    6    6    0    0  0.28178789984E+02 -0.46113171078E+02 -0.86659280601E+01  0.54731773779E+02  0.00000000000E+00 0. -1.
        -14    1    6    6    0    0  0.74355968276E+02 -0.11856476415E+01 -0.92930623242E+02  0.11902233620E+03  0.00000000000E+00 0.  1.
</event>
<event>
12    1  0.8451514E-002  0.1927021E+03  0.7818608E-02  0.1156114E+00
         21   -1    0    0  503  502  0.00000000000E+00  0.00000000000E+00  0.15708920393E+03  0.15708920393E+03  0.00000000000E+00 0.  1.
         21   -1    0    0  501  503 -0.00000000000E+00 -0.00000000000E+00 -0.48747997896E+03  0.48747997896E+03  0.00000000000E+00 0.  1.
          6    2    1    2  501    0  0.57820408136E+02 -0.63107336728E+02 -0.39660510625E+03  0.44080841753E+03  0.17230993909E+03 0.  0.
         24    2    3    3    0    0  0.39262322532E+02  0.32426151461E+02 -0.22995922728E+03  0.24776959012E+03  0.76912536748E+02 0.  0.
         -6    2    1    2    0  502 -0.57820408136E+02  0.63107336728E+02  0.66214331221E+02  0.20376076537E+03  0.17265102461E+03 0.  0.
        -24    2    5    5    0    0  0.32156000854E+02  0.10087460580E+02  0.42315512226E+02  0.96522222900E+02  0.79938549441E+02 0.  0.
          5    1    3    3  501    0  0.18558085604E+02 -0.95533488189E+02 -0.16664587897E+03  0.19303882740E+03  0.47000000000E+01 0. -1.
        -13    1    4    4    0    0  0.26558650532E+02 -0.22217616936E+02 -0.66909629519E+02  0.75338455935E+02  0.00000000000E+00 0.  1.
         14    1    4    4    0    0  0.12703671999E+02  0.54643768397E+02 -0.16304959776E+03  0.17243113419E+03  0.00000000000E+00 0. -1.
         -5    1    5    5    0  502 -0.89976408990E+02  0.53019876148E+02  0.23898818996E+02  0.10723854247E+03  0.47000000000E+01 0.  1.
         13    1    6    6    0    0  0.35085381144E+01  0.56435690420E+01 -0.23597652463E+02  0.24515483128E+02  0.00000000000E+00 0. -1.
        -14    1    6    6    0    0  0.28647462740E+02  0.44438915383E+01  0.65913164688E+02  0.72006739772E+02  0.00000000000E+00 0.  1.
</event>
<event>
12    1  0.8451514E-002  0.1765021E+03  0.7818608E-02  0.1171598E+00
         21   -1    0    0  501  502  0.00000000000E+00  0.00000000000E+00  0.28252251669E+03  0.28252251669E+03  0.00000000000E+00 0.  1.
         21   -1    0    0  502  503 -0.00000000000E+00 -0.00000000000E+00 -0.15458992782E+03  0.15458992782E+03  0.00000000000E+00 0.  1.
         -6    2    1    2    0  503 -0.24852575704E+02 -0.27756524688E+02  0.18238401926E+03  0.25380491743E+03  0.17252515889E+03 0.  0.
        -24    2    3    3    0    0  0.41389978631E+02 -0.43208256956E+02  0.14549462938E+03  0.17628234575E+03  0.79540520766E+02 0.  0.
          6    2    1    2  501    0  0.24852575704E+02  0.27756524688E+02 -0.54451430391E+02  0.18330752707E+03  0.17102226764E+03 0.  0.
         24    2    5    5    0    0  0.36415096385E+02  0.52454420114E+02 -0.91331228078E+02  0.13720018058E+03  0.80031062065E+02 0.  0.
          5    1    5    5  501    0 -0.11562520681E+02 -0.24697895426E+02  0.36879797687E+02  0.46107346491E+02  0.47000000000E+01 0. -1.
        -11    1    6    6    0    0  0.53230441377E+01 -0.80239105855E+01 -0.62668385364E+02  0.63403820580E+02  0.00000000000E+00 0.  1.
         12    1    6    6    0    0  0.31092052248E+02  0.60478330700E+02 -0.28662842714E+02  0.73796360003E+02  0.00000000000E+00 0. -1.
         -5    1    3    3    0  503 -0.66242554335E+02  0.15451732267E+02  0.36889389874E+02  0.77522571682E+02  0.47000000000E+01 0.  1.
         13    1    4    4    0    0  0.13587739285E+02 -0.61462419225E+02  0.11529004016E+03  0.13135466872E+03  0.00000000000E+00 0. -1.
        -14    1    4    4    0    0  0.27802239346E+02  0.18254162269E+02  0.30204589225E+02  0.44927677027E+02  0.00000000000E+00 0.  1.
</event>
<event>
12    1  0.8451514E-002  0.1725004E+03  0.7818608E-02  0.1175779E+00
         21   -1    0    0  501  502  0.00000000000E+00  0.00000000000E+00  0.30070221946E+03  0.30070221946E+03  0.00000000000E+00 0. -1.
         21   -1    0    0  502  503 -0.00000000000E+00 -0.00000000000E+00 -0.13701558433E+03  0.13701558433E+03  0.00000000000E+00 0. -1.
         -6    2    1    2    0  503 -0.29592921421E+01  0.19184142395E+02 -0.34879511047E+02  0.17599141363E+03  0.17140480930E+03 0.  0.
        -24    2    3    3    0    0  0.53013019586E+02 -0.65950563095E+01 -0.59639080583E+02  0.10941369176E+03  0.74569839730E+02 0.  0.
          6    2    1    2  501    0  0.29592921421E+01 -0.19184142395E+02  0.19856614618E+03  0.26172639017E+03  0.16939716695E+03 0.  0.
         24    2    5    5    0    0 -0.60651981074E+02 -0.22952484985E+02  0.15074975846E+03  0.18191980259E+03  0.78510161914E+02 0.  0.
          5    1    5    5  501    0  0.63611273216E+02  0.37683425897E+01  0.47816387724E+02  0.79806587579E+02  0.47000000000E+01 0. -1.
        -13    1    6    6    0    0 -0.15067376508E+02 -0.26952202780E+02  0.78330025625E+01  0.31855972731E+02  0.00000000000E+00 0.  1.
         14    1    6    6    0    0 -0.45584604566E+02  0.39997177952E+01  0.14291675589E+03  0.15006382986E+03  0.00000000000E+00 0. -1.
         -5    1    3    3    0  503 -0.55972311728E+02  0.25779198705E+02  0.24759569536E+02  0.66577721872E+02  0.47000000000E+01 0.  1.
         11    1    4    4    0    0 -0.31871203495E+01  0.10841588181E+02 -0.48151723201E+02  0.49459945588E+02  0.00000000000E+00 0. -1.
        -12    1    4    4    0    0  0.56200139935E+02 -0.17436644490E+02 -0.11487357382E+02  0.59953746167E+02  0.00000000000E+00 0.  1.
</event>
<event>
12    1  0.8451514E-002  0.2664077E+03  0.7818608E-02  0.1104314E+00
         21   -1    0    0  501  502  0.00000000000E+00  0.00000000000E+00  0.12072255394E+04  0.12072255394E+04  0.00000000000E+00 0.  1.
         21   -1    0    0  502  503 -0.00000000000E+00 -0.00000000000E+00 -0.10379509968E+03  0.10379509968E+03  0.00000000000E+00 0.  1.
         -6    2    1    2    0  503  0.11380777244E+03  0.15824426710E+03  0.10952698050E+03  0.28203222472E+03  0.17190857798E+03 0.  0.
        -24    2    3    3    0    0  0.10900237344E+02  0.11051289299E+03  0.44202633577E+02  0.15104518278E+03  0.92351825833E+02 0.  0.
          6    2    1    2  501    0 -0.11380777244E+03 -0.15824426710E+03  0.99390345920E+03  0.10289884143E+04  0.18160290052E+03 0.  0.
         24    2    5    5    0    0 -0.39055770499E+02 -0.12823417191E+03  0.40400748402E+03  0.43359961771E+03  0.82566490051E+02 0.  0.
          5    1    5    5  501    0 -0.74752001944E+02 -0.30010095195E+02  0.58989597518E+03  0.59538879662E+03  0.47000000000E+01 0. -1.
        -11    1    6    6    0    0 -0.36318502683E+02 -0.75554913638E+02  0.34231190088E+03  0.35242732030E+03  0.00000000000E+00 0.  1.
         12    1    6    6    0    0 -0.27372678162E+01 -0.52679258272E+02  0.61695583134E+02  0.81172297401E+02  0.00000000000E+00 0. -1.
         -5    1    3    3    0  503  0.10290753510E+03  0.47731374110E+02  0.65324346922E+02  0.13098704194E+03  0.47000000000E+01 0.  1.
         11    1    4    4    0    0 -0.91043381760E-01 -0.14810243689E+02 -0.54717560841E+01  0.15788974687E+02  0.00000000000E+00 0. -1.
        -12    1    4    4    0    0  0.10991280726E+02  0.12532313668E+03  0.49674389661E+02  0.13525620810E+03  0.00000000000E+00 0.  1.
</event>
<event>
12    1  0.8451514E-002  0.1794626E+03  0.7818608E-02  0.1168370E+00
         21   -1    0    0  501  502  0.00000000000E+00  0.00000000000E+00  0.19824580252E+04  0.19824580252E+04  0.00000000000E+00 0.  1.
         21   -1    0    0  502  503 -0.00000000000E+00 -0.00000000000E+00 -0.16230353054E+02  0.16230353054E+02  0.00000000000E+00 0.  1.
         -6    2    1    2    0  503  0.33272666490E+02  0.38645795777E+02  0.97345644932E+03  0.98982687919E+03  0.17186978844E+03 0.  0.
        -24    2    3    3    0    0 -0.24160516929E+02  0.69710322357E+02  0.50518351762E+03  0.51700005684E+03  0.81458042443E+02 0.  0.
          6    2    1    2  501    0 -0.33272666490E+02 -0.38645795777E+02  0.99277122285E+03  0.10088614991E+04  0.17206468422E+03 0.  0.
         24    2    5    5    0    0 -0.82301635417E+02 -0.38438547847E+02  0.53405245636E+03  0.54750601849E+03  0.79370857293E+02 0.  0.
          5    1    5    5  501    0  0.49028968927E+02 -0.20724792915E+00  0.45871876649E+03  0.46135548060E+03  0.47000000000E+01 0. -1.
        -11    1    6    6    0    0 -0.57431248861E+02 -0.22073302770E+01  0.43947629245E+03  0.44321849271E+03  0.00000000000E+00 0.  1.
         12    1    6    6    0    0 -0.24870386556E+02 -0.36231217570E+02  0.94576163906E+02  0.10428752578E+03  0.00000000000E+00 0. -1.
         -5    1    3    3    0  503  0.57433183418E+02 -0.31064526581E+02  0.46827293169E+03  0.47282682234E+03  0.47000000000E+01 0.  1.
         13    1    4    4    0    0 -0.50236846605E+02  0.49262779256E+02  0.25133392906E+03  0.26099675491E+03  0.00000000000E+00 0. -1.
        -14    1    4    4    0    0  0.26076329676E+02  0.20447543102E+02  0.25384958856E+03  0.25600330193E+03  0.00000000000E+00 0.  1.
</event>
<event>
12    1  0.8451514E-002  0.2382194E+03  0.7818608E-02  0.1121579E+00
         21   -1    0    0  503  502  0.00000000000E+00  0.00000000000E+00  0.64957652180E+03  0.64957652180E+03  0.00000000000E+00 0. -1.
         21   -1    0    0  501  503 -0.00000000000E+00 -0.00000000000E+00 -0.13530729934E+03  0.13530729934E+03  0.00000000000E+00 0. -1.
          6    2    1    2  501    0 -0.10887276067E+03  0.12218079483E+03  0.21645054347E+02  0.23920072135E+03  0.17310994216E+03 0.  0.
         24    2    3    3    0    0 -0.12804529030E+03  0.61064576873E+02 -0.17491065660E+02  0.16399098874E+03  0.80390472645E+02 0.  0.
         -6    2    1    2    0  502  0.10887276067E+03 -0.12218079483E+03  0.49262416811E+03  0.54568309979E+03  0.16825590553E+03 0.  0.
        -24    2    5    5    0    0  0.13641919607E+03 -0.10909896720E+03  0.46933132923E+03  0.50702321541E+03  0.79296044470E+02 0.  0.
          5    1    3    3  501    0  0.19172529630E+02  0.61116217961E+02  0.39136120007E+02  0.75209732611E+02  0.47000000000E+01 0. -1.
        -13    1    4    4    0    0 -0.40625556637E+02  0.30444732350E+02 -0.44496470426E+02  0.67507432629E+02  0.00000000000E+00 0.  1.
         14    1    4    4    0    0 -0.87419733668E+02  0.30619844524E+02  0.27005404765E+02  0.96483556111E+02  0.00000000000E+00 0. -1.
         -5    1    5    5    0  502 -0.27546435392E+02 -0.13081827638E+02  0.23292838877E+02  0.38659884378E+02  0.47000000000E+01 0.  1.
         11    1    6    6    0    0  0.44460011151E+02 -0.77234469796E+02  0.16526759085E+03  0.18776376781E+03  0.00000000000E+00 0. -1.
        -12    1    6    6    0    0  0.91959184917E+02 -0.31864497401E+02  0.30406373838E+03  0.31925944760E+03  0.00000000000E+00 0.  1.
</event>
<event>
12    1  0.8451514E-002  0.1838877E+03  0.7818608E-02  0.1164266E+00
         21   -1    0    0  503  502  0.00000000000E+00  0.00000000000E+00  0.26287207364E+04  0.26287207364E+04  0.00000000000E+00 0. -1.
         21   -1    0    0  501  503 -0.00000000000E+00 -0.00000000000E+00 -0.15089525084E+02  0.15089525084E+02  0.00000000000E+00 0. -1.
          6    2    1    2  501    0 -0.64363081510E+02 -0.16053388630E+02  0.79105512240E+03  0.81198103900E+03  0.17071814047E+03 0.  0.
         24    2    3    3    0    0 -0.17385318084E+02 -0.18392240705E+02  0.73213243349E+03  0.73644062761E+03  0.75408050147E+02 0.  0.
         -6    2    1    2    0  502  0.64363081510E+02  0.16053388630E+02  0.18225760889E+04  0.18318292225E+04  0.17150621819E+03 0.  0.
        -24    2    5    5    0    0 -0.56277005125E+01  0.20159463547E+02  0.14844915285E+04  0.14865194638E+04  0.74745857371E+02 0.  0.
          5    1    3    3  501    0 -0.46977763426E+02  0.23388520750E+01  0.58922688908E+02  0.75540411395E+02  0.47000000000E+01 0. -1.
        -11    1    4    4    0    0 -0.23385045921E+02  0.17308557700E+02  0.12977057591E+03  0.13299191297E+03  0.00000000000E+00 0.  1.
         12    1    4    4    0    0  0.59997278374E+01 -0.35700798404E+02  0.60236185758E+03  0.60344871464E+03  0.00000000000E+00 0. -1.
         -5    1    5    5    0  502  0.69990782023E+02 -0.41060749171E+01  0.33808456042E+03  0.34530975864E+03  0.47000000000E+01 0.  1.
         11    1    6    6    0    0 -0.30998897746E+02 -0.76128174357E+01  0.36405957319E+03  0.36545623470E+03  0.00000000000E+00 0. -1.
        -12    1    6    6    0    0  0.25371197234E+02  0.27772280982E+02  0.11204319553E+04  0.11210632291E+04  0.00000000000E+00 0.  1.
</event>
<event>
12    1  0.8451514E-002  0.1860876E+03  0.7818608E-02  0.1164268E+00
         21   -1    0    0  501  502  0.00000000000E+00  0.00000000000E+00  0.57421475248E+03  0.57421475248E+03  0.00000000000E+00 0. -1.
         21   -1    0    0  502  503 -0.00000000000E+00 -0.00000000000E+00 -0.11329172371E+03  0.11329172371E+03  0.00000000000E+00 0. -1.
         -6    2    1    2    0  503 -0.53783422706E+02  0.50277561406E+02 -0.14148485467E+02  0.17728931489E+03  0.16065749841E+03 0.  0.
        -24    2    3    3    0    0  0.18560326356E+02  0.53212828046E+02 -0.30572751701E+02  0.10289791526E+03  0.80481035251E+02 0.  0.
          6    2    1    2  501    0  0.53783422706E+02 -0.50277561406E+02  0.47507151423E+03  0.51021716129E+03  0.17090382764E+03 0.  0.
         24    2    5    5    0    0 -0.27726097121E+02 -0.43695060279E+02  0.16756856194E+03  0.19199194731E+03  0.78126116811E+02 0.  0.
          5    1    5    5  501    0  0.81509519827E+02 -0.65825011270E+01  0.30750295230E+03  0.31822521398E+03  0.47000000000E+01 0. -1.
        -11    1    6    6    0    0  0.25540589589E+02 -0.28415559757E+02  0.64303507453E+02  0.74797772852E+02  0.00000000000E+00 0.  1.
         12    1    6    6    0    0 -0.53266686711E+02 -0.15279500522E+02  0.10326505448E+03  0.11719417446E+03  0.00000000000E+00 0. -1.
         -5    1    3    3    0  503 -0.72343749062E+02 -0.29352666399E+01  0.16424266234E+02  0.74391399636E+02  0.47000000000E+01 0.  1.
         11    1    4    4    0    0  0.25730022790E+01  0.68944263331E+02 -0.38623256482E+02  0.79067614914E+02  0.00000000000E+00 0. -1.
        -12    1    4    4    0    0  0.15987324077E+02 -0.15731435285E+02  0.80505047810E+01  0.23830300344E+02  0.00000000000E+00 0.  1.
</event>
<event>
12    1  0.8451514E-002  0.2393234E+03  0.7818608E-02  0.1121342E+00
         21   -1    0    0  503  502  0.00000000000E+00  0.00000000000E+00  0.98512953784E+03  0.98512953784E+03  0.00000000000E+00 0. -1.
         21   -1    0    0  501  503 -0.00000000000E+00 -0.00000000000E+00 -0.62129481775E+02  0.62129481775E+02  0.00000000000E+00 0.  1.
          6    2    1    2  501    0  0.84528330781E+01 -0.15746389878E+03  0.31075718264E+03  0.39223169680E+03  0.18002596370E+03 0.  0.
         24    2    3    3    0    0 -0.47476870443E+01 -0.15763905457E+03  0.15329267346E+03  0.23414486604E+03  0.80327843834E+02 0.  0.
         -6    2    1    2    0  502 -0.84528330781E+01  0.15746389878E+03  0.61224287343E+03  0.65502732282E+03  0.17132754525E+03 0.  0.
        -24    2    5    5    0    0 -0.36312337587E+02  0.11426412497E+03  0.25867243270E+03  0.29770881083E+03  0.85698497600E+02 0.  0.
          5    1    3    3  501    0  0.13200520122E+02  0.17515579186E+00  0.15746450918E+03  0.15808683076E+03  0.47000000000E+01 0. -1.
        -11    1    4    4    0    0  0.20882150013E+02 -0.12011817675E+03  0.73613195902E+02  0.14241960254E+03  0.00000000000E+00 0.  1.
         12    1    4    4    0    0 -0.25629837057E+02 -0.37520877821E+02  0.79679477561E+02  0.91725263501E+02  0.00000000000E+00 0. -1.
         -5    1    5    5    0  502  0.27859504509E+02  0.43199773809E+02  0.35357044073E+03  0.35731851199E+03  0.47000000000E+01 0.  1.
         13    1    6    6    0    0  0.16323143543E+02  0.26635077135E+02  0.12825223885E+03  0.13200192847E+03  0.00000000000E+00 0. -1.
        -14    1    6    6    0    0 -0.52635481130E+02  0.87629047838E+02  0.13042019385E+03  0.16570688236E+03  0.00000000000E+00 0.  1.
</event>
<event>
12    1  0.8451514E-002  0.1769308E+03  0.7818608E-02  0.1171294E+00
         21   -1    0    0  503  502  0.00000000000E+00  0.00000000000E+00  0.12424291326E+03  0.12424291326E+03  0.00000000000E+00 0. -1.
         21   -1    0    0  501  503 -0.00000000000E+00 -0.00000000000E+00 -0.36479724794E+03  0.36479724794E+03  0.00000000000E+00 0. -1.
          6    2    1    2  501    0  0.28472288958E+02  0.23739706127E+02 -0.25838986763E+03  0.31316102796E+03  0.17300364405E+03 0.  0.
         24    2    3    3    0    0  0.77889715030E+02 -0.12477251374E+02 -0.19645423014E+03  0.22591503549E+03  0.78872360263E+02 0.  0.
         -6    2    1    2    0  502 -0.28472288958E+02 -0.23739706127E+02  0.17835532948E+02  0.17587913323E+03  0.17100034616E+03 0.  0.
        -24    2    5    5    0    0  0.55303388714E+01  0.45311324280E+02  0.32248409528E+02  0.97431414907E+02  0.79807392751E+02 0.  0.
          5    1    3    3  501    0 -0.49417426072E+02  0.36216957501E+02 -0.61935637499E+02  0.87245992473E+02  0.47000000000E+01 0. -1.
        -13    1    4    4    0    0  0.22018956281E+02 -0.42368254730E+02 -0.74637105240E+02  0.88603616874E+02  0.00000000000E+00 0.  1.
         14    1    4    4    0    0  0.55870758749E+02  0.29891003356E+02 -0.12181712490E+03  0.13731141862E+03  0.00000000000E+00 0. -1.
         -5    1    5    5    0  502 -0.34002627829E+02 -0.69051030407E+02 -0.14412876580E+02  0.78447718328E+02  0.47000000000E+01 0.  1.
         11    1    6    6    0    0 -0.35153809299E+02  0.32628287577E+02  0.25388426385E+02  0.54267556170E+02  0.00000000000E+00 0. -1.
        -12    1    6    6    0    0  0.40684148170E+02  0.12683036703E+02  0.68599831430E+01  0.43163858737E+02  0.00000000000E+00 0.  1.
</event>
<event>
12    1  0.8451514E-002  0.1998221E+03  0.7818608E-02  0.1153058E+00
         21   -1    0    0  503  502  0.00000000000E+00  0.00000000000E+00  0.18552081458E+03  0.18552081458E+03  0.00000000000E+00 0. -1.
         21   -1    0    0  501  503 -0.00000000000E+00 -0.00000000000E+00 -0.29990578071E+03  0.29990578071E+03  0.00000000000E+00 0. -1.
          6    2    1    2  501    0 -0.57095069972E+01  0.75926995209E+02 -0.19865792438E+03  0.28176912372E+03  0.18474674852E+03 0.  0.
         24    2    3    3    0    0 -0.56419079518E+02  0.22309929309E+02 -0.17934930953E+03  0.20534162141E+03  0.79486861671E+02 0.  0.
         -6    2    1    2    0  502  0.57095069972E+01 -0.75926995209E+02  0.84272958257E+02  0.20365747157E+03  0.16904711522E+03 0.  0.
        -24    2    5    5    0    0 -0.29481830694E+02  0.11719408465E+02  0.23552336933E+02  0.91276840772E+02  0.82281384349E+02 0.  0.
          5    1    3    3  501    0  0.50709572521E+02  0.53617065899E+02 -0.19308614856E+02  0.76427502305E+02  0.47000000000E+01 0. -1.
        -13    1    4    4    0    0  0.19702376936E+02 -0.26576369446E+01 -0.36264228087E+02  0.41356268326E+02  0.00000000000E+00 0.  1.
         14    1    4    4    0    0 -0.76121456454E+02  0.24967566254E+02 -0.14308508144E+03  0.16398535309E+03  0.00000000000E+00 0. -1.
         -5    1    5    5    0  502  0.35191337691E+02 -0.87646403674E+02  0.60720621324E+02  0.11238063080E+03  0.47000000000E+01 0.  1.
         13    1    6    6    0    0 -0.24730393705E+02 -0.38058171306E+01  0.52460031926E+02  0.58121696177E+02  0.00000000000E+00 0. -1.
        -14    1    6    6    0    0 -0.47514369888E+01  0.15525225595E+02 -0.28907694993E+02  0.33155144594E+02  0.00000000000E+00 0.  1.
</event>
<event>
12    1  0.8451514E-002  0.2020784E+03  0.7818608E-02  0.1148184E+00
         21   -1    0    0  501  502  0.00000000000E+00  0.00000000000E+00  0.84220599937E+02  0.84220599937E+02  0.00000000000E+00 0.  1.
         21   -1    0    0  502  503 -0.00000000000E+00 -0.00000000000E+00 -0.55913240877E+03  0.55913240877E+03  0.00000000000E+00 0.  1.
         -6    2    1    2    0  503  0.11556771533E+02  0.10353304428E+03 -0.11807825560E+03  0.23327269311E+03  0.17210759622E+03 0.  0.
        -24    2    3    3    0    0 -0.22631384003E+02  0.94707116988E+02 -0.14211198546E+03  0.19030250411E+03  0.80855482881E+02 0.  0.
          6    2    1    2  501    0 -0.11556771533E+02 -0.10353304428E+03 -0.35683355323E+03  0.41008031560E+03  0.17315608654E+03 0.  0.
         24    2    5    5    0    0  0.22068422867E+02 -0.41731622310E+02 -0.75497933901E+02  0.12004257640E+03  0.80509245046E+02 0.  0.
          5    1    5    5  501    0 -0.33625194400E+02 -0.61801421966E+02 -0.28133561932E+03  0.29003773919E+03  0.47000000000E+01 0. -1.
        -13    1    6    6    0    0  0.38243266705E+02 -0.54610242103E+01 -0.69996978968E+02  0.79949654773E+02  0.00000000000E+00 0.  1.
         14    1    6    6    0    0 -0.16174843838E+02 -0.36270598100E+02 -0.55009549334E+01  0.40092921631E+02  0.00000000000E+00 0. -1.
         -5    1    3    3    0  503  0.34188155535E+02  0.88259272886E+01  0.24033729852E+02  0.42970188992E+02  0.47000000000E+01 0.  1.
         13    1    4    4    0    0  0.23775915200E+02  0.38190680695E+01 -0.21217578724E+02  0.32094626831E+02  0.00000000000E+00 0. -1.
        -14    1    4    4    0    0 -0.46407299202E+02  0.90888048919E+02 -0.12089440673E+03  0.15820787728E+03  0.00000000000E+00 0.  1.
</event>
<event>
12    1  0.8451514E-002  0.2057495E+03  0.7818608E-02  0.1144986E+00
         21   -1    0    0  503  502  0.00000000000E+00  0.00000000000E+00  0.19608656801E+03  0.19608656801E+03  0.00000000000E+00 0.  1.
         21   -1    0    0  501  503 -0.00000000000E+00 -0.00000000000E+00 -0.26502665704E+03  0.26502665704E+03  0.00000000000E+00 0.  1.
          6    2    1    2  501    0 -0.84231558782E+01  0.11247335774E+03 -0.13379837602E+03  0.24542793335E+03  0.17208038612E+03 0.  0.
         24    2    3    3    0    0 -0.26757745678E+02  0.14008687684E+03 -0.66710448435E+02  0.17045097924E+03  0.65291212096E+02 0.  0.
         -6    2    1    2    0  502  0.84231558782E+01 -0.11247335774E+03  0.64858286996E+02  0.21568529170E+03  0.17202424802E+03 0.  0.
        -24    2    5    5    0    0 -0.41990003101E+02 -0.52387050946E+02 -0.13007880995E+02  0.10506395117E+03  0.79760048901E+02 0.  0.
          5    1    3    3  501    0  0.18334589800E+02 -0.27613519102E+02 -0.67087927583E+02  0.74976954110E+02  0.47000000000E+01 0. -1.
        -11    1    4    4    0    0  0.75283702514E+01  0.39980115333E+02 -0.48123494448E+02  0.63015527441E+02  0.00000000000E+00 0.  1.
         12    1    4    4    0    0 -0.34286115929E+02  0.10010676151E+03 -0.18586953987E+02  0.10743545180E+03  0.00000000000E+00 0. -1.
         -5    1    5    5    0  502  0.50413158980E+02 -0.60086306791E+02  0.77866167991E+02  0.11062134053E+03  0.47000000000E+01 0.  1.
         13    1    6    6    0    0  0.19608518342E+02  0.48082041349E+01 -0.19865664684E+01  0.20286923496E+02  0.00000000000E+00 0. -1.
        -14    1    6    6    0    0 -0.61598521444E+02 -0.57195255081E+02 -0.11021314527E+02  0.84777027677E+02  0.00000000000E+00 0.  1.
</event>
<event>
12    1  0.8451514E-002  0.1963311E+03  0.7818608E-02  0.1155467E+00
         21   -1    0    0  501  502  0.00000000000E+00  0.00000000000E+00  0.21511531138E+04  0.21511531138E+04  0.00000000000E+00 0. -1.
         21   -1    0    0  502  503 -0.00000000000E+00 -0.00000000000E+00 -0.25497405326E+02  0.25497405326E+02  0.00000000000E+00 0.  1.
         -6    2    1    2    0  503 -0.60131553458E+02  0.25872532078E+02  0.40861372135E+03  0.44842047737E+03  0.17271525590E+03 0.  0.
        -24    2    3    3    0    0 -0.72835056857E+02  0.13789370147E+02  0.41531813530E+03  0.42907051698E+03  0.78212932386E+02 0.  0.
          6    2    1    2  501    0  0.60131553458E+02 -0.25872532078E+02  0.17170419871E+04  0.17282300417E+04  0.18509646138E+03 0.  0.
         24    2    5    5    0    0  0.26642129774E+02 -0.58781399840E+02  0.15795818099E+04  0.15828962005E+04  0.79477238817E+02 0.  0.
          5    1    5    5  501    0  0.33489423684E+02  0.32908867762E+02  0.13746017724E+03  0.14533384121E+03  0.47000000000E+01 0. -1.
        -11    1    6    6    0    0  0.14273770152E+02  0.18721181876E+02  0.31186901889E+03  0.31275630787E+03  0.00000000000E+00 0.  1.
         12    1    6    6    0    0  0.12368359623E+02 -0.77502581716E+02  0.12677127910E+04  0.12701398926E+04  0.00000000000E+00 0. -1.
         -5    1    3    3    0  503  0.12703503399E+02  0.12083161931E+02 -0.67044139565E+01  0.19349960397E+02  0.47000000000E+01 0.  1.
         11    1    4    4    0    0 -0.39726104493E+02 -0.29112102218E+02  0.13846314655E+03  0.14696163046E+03  0.00000000000E+00 0. -1.
        -12    1    4    4    0    0 -0.33108952364E+02  0.42901472365E+02  0.27685498875E+03  0.28210888652E+03  0.00000000000E+00 0.  1.
</event>
<event>
12    1  0.8451514E-002  0.2728786E+03  0.7818608E-02  0.1099665E+00
         21   -1    0    0  503  502  0.00000000000E+00  0.00000000000E+00  0.17695180380E+03  0.17695180380E+03  0.00000000000E+00 0. -1.
         21   -1    0    0  501  503 -0.00000000000E+00 -0.00000000000E+00 -0.42623896896E+03  0.42623896896E+03  0.00000000000E+00 0.  1.
          6    2    1    2  501    0 -0.46203776535E+02 -0.20575744708E+03 -0.89829446586E+02  0.28713782077E+03  0.17293895642E+03 0.  0.
         24    2    3    3    0    0 -0.44592235529E+01 -0.13865441731E+03 -0.12466411694E+03  0.20064522822E+03  0.73975897682E+02 0.  0.
         -6    2    1    2    0  502  0.46203776535E+02  0.20575744708E+03 -0.15945771857E+03  0.31605295199E+03  0.17318137444E+03 0.  0.
        -24    2    5    5    0    0 -0.34370728604E+02  0.99483142742E+02 -0.11616094763E+03  0.17575619858E+03  0.79489828988E+02 0.  0.
          5    1    3    3  501    0 -0.41744552982E+02 -0.67103029767E+02  0.34834670357E+02  0.86492592553E+02  0.47000000000E+01 0. -1.
        -13    1    4    4    0    0 -0.28132052577E+02 -0.77857859972E+02 -0.10246696194E+03  0.13172978794E+03  0.00000000000E+00 0.  1.
         14    1    4    4    0    0  0.23672829024E+02 -0.60796557341E+02 -0.22197155008E+02  0.68915440280E+02  0.00000000000E+00 0. -1.
         -5    1    5    5    0  502  0.80574505139E+02  0.10627430434E+03 -0.43296770948E+02  0.14029675340E+03  0.47000000000E+01 0.  1.
         13    1    6    6    0    0 -0.32546681020E+02  0.78396473879E+01 -0.58692664233E+02  0.67569041368E+02  0.00000000000E+00 0. -1.
        -14    1    6    6    0    0 -0.18240475836E+01  0.91643495354E+02 -0.57468283394E+02  0.10818715722E+03  0.00000000000E+00 0.  1.
</event>
<event>
12    1  0.8451514E-002  0.1729141E+03  0.7818608E-02  0.1175078E+00
         21   -1    0    0  503  502  0.00000000000E+00  0.00000000000E+00  0.25645924721E+03  0.25645924721E+03  0.00000000000E+00 0. -1.
         21   -1    0    0  501  503 -0.00000000000E+00 -0.00000000000E+00 -0.31400218935E+03  0.31400218935E+03  0.00000000000E+00 0. -1.
          6    2    1    2  501    0 -0.15004088298E+02 -0.79250624115E+01 -0.25526119705E+03  0.30779852730E+03  0.17115409843E+03 0.  0.
         24    2    3    3    0    0 -0.35897647660E+02 -0.95225908885E+01 -0.50315255672E+02  0.10173052443E+03  0.80238106923E+02 0.  0.
         -6    2    1    2    0  502  0.15004088298E+02  0.79250624115E+01  0.19771825490E+03  0.26266290926E+03  0.17207953481E+03 0.  0.
        -24    2    5    5    0    0  0.17655733695E+02  0.71722088214E+02  0.11516573195E+03  0.15819233556E+03  0.79409611153E+02 0.  0.
          5    1    3    3  501    0  0.20893559362E+02  0.15975284770E+01 -0.20494594138E+03  0.20606800287E+03  0.47000000000E+01 0. -1.
        -13    1    4    4    0    0  0.16052924698E+02  0.21780005309E+02 -0.21614650173E+02  0.34630306449E+02  0.00000000000E+00 0.  1.
         14    1    4    4    0    0 -0.51950572358E+02 -0.31302596197E+02 -0.28700605499E+02  0.67100217981E+02  0.00000000000E+00 0. -1.
         -5    1    5    5    0  502 -0.26516453966E+01 -0.63797025802E+02  0.82552522952E+02  0.10447057370E+03  0.47000000000E+01 0.  1.
         13    1    6    6    0    0 -0.15754121498E+02  0.34381687234E+02  0.98301001556E+02  0.10532511414E+03  0.00000000000E+00 0. -1.
        -14    1    6    6    0    0  0.33409855193E+02  0.37340400980E+02  0.16864730394E+02  0.52867221420E+02  0.00000000000E+00 0.  1.
</event>
<event>
12    1  0.8451514E-002  0.3438542E+03  0.7818608E-02  0.1065200E+00
         21   -1    0    0  501  502  0.00000000000E+00  0.00000000000E+00  0.17678958599E+04  0.17678958599E+04  0.00000000000E+00 0.  1.
         21   -1    0    0  502  503 -0.00000000000E+00 -0.00000000000E+00 -0.13909972990E+03  0.13909972990E+03  0.00000000000E+00 0. -1.
         -6    2    1    2    0  503 -0.68083920241E+02  0.28943576585E+03  0.15019207146E+04  0.15407795204E+04  0.17270557258E+03 0.  0.
        -24    2    3    3    0    0 -0.53531958345E+02  0.15488149564E+03  0.11425327949E+04  0.11567243446E+04  0.76000485083E+02 0.  0.
          6    2    1    2  501    0  0.68083920241E+02 -0.28943576585E+03  0.12687541538E+03  0.36621606938E+03  0.17207078686E+03 0.  0.
         24    2    5    5    0    0  0.42884234335E+02 -0.66966336495E+02  0.78103376915E+02  0.13702516008E+03  0.79700747995E+02 0.  0.
          5    1    5    5  501    0  0.25199685906E+02 -0.22246942936E+03  0.48772038467E+02  0.22919090930E+03  0.47000000000E+01 0. -1.
        -11    1    6    6    0    0  0.41338152543E+01 -0.61371383599E+02  0.76060144923E+02  0.97819634017E+02  0.00000000000E+00 0.  1.
         12    1    6    6    0    0  0.38750419080E+02 -0.55949528965E+01  0.20432319915E+01  0.39205526062E+02  0.00000000000E+00 0. -1.
         -5    1    3    3    0  503 -0.14551961895E+02  0.13455427021E+03  0.35938791966E+03  0.38405517575E+03  0.47000000000E+01 0.  1.
         13    1    4    4    0    0 -0.16930545829E+02  0.17395986585E+02  0.57650484084E+02  0.62552714142E+02  0.00000000000E+00 0. -1.
        -14    1    4    4    0    0 -0.36601412517E+02  0.13748550906E+03  0.10848823108E+04  0.10941716305E+04  0.00000000000E+00 0.  1.
</event>
<event>
12    1  0.8451514E-002  0.2092529E+03  0.7818608E-02  0.1142169E+00
         21   -1    0    0  503  502  0.00000000000E+00  0.00000000000E+00  0.16158112419E+03  0.16158112419E+03  0.00000000000E+00 0.  1.
         21   -1    0    0  501  503 -0.00000000000E+00 -0.00000000000E+00 -0.34528528837E+03  0.34528528837E+03  0.00000000000E+00 0.  1.
          6    2    1    2  501    0  0.88042278589E+02  0.80640747066E+02 -0.20945253776E+03  0.29603531725E+03  0.17179106664E+03 0.  0.
         24    2    3    3    0    0  0.10409762458E+03  0.11091565704E+03 -0.15364454260E+03  0.23037736546E+03  0.79551785830E+02 0.  0.
         -6    2    1    2    0  502 -0.88042278589E+02 -0.80640747066E+02  0.25748373577E+02  0.21083109531E+03  0.17184993192E+03 0.  0.
        -24    2    5    5    0    0  0.15734352917E+02 -0.48203980678E+02  0.38236843558E+02  0.10128756541E+03  0.78904506120E+02 0.  0.
          5    1    3    3  501    0 -0.16055345994E+02 -0.30274909970E+02 -0.55807995164E+02  0.65657951787E+02  0.47000000000E+01 0. -1.
        -11    1    4    4    0    0  0.36497011159E+02  0.93604231736E+02 -0.75946176682E+02  0.12594286711E+03  0.00000000000E+00 0.  1.
         12    1    4    4    0    0  0.67600613424E+02  0.17311425299E+02 -0.77698365916E+02  0.10443449836E+03  0.00000000000E+00 0. -1.
         -5    1    5    5    0  502 -0.10377663151E+03 -0.32436766388E+02 -0.12488469981E+02  0.10954352990E+03  0.47000000000E+01 0.  1.
         13    1    6    6    0    0  0.13550573367E+02 -0.28423530046E+02 -0.21628686209E+02  0.38200983835E+02  0.00000000000E+00 0. -1.
        -14    1    6    6    0    0  0.21837795507E+01 -0.19780450632E+02  0.59865529767E+02  0.63086581573E+02  0.00000000000E+00 0.  1.
</event>
<event>
12    1  0.8451514E-002  0.1779312E+03  0.7818608E-02  0.1169877E+00
         21   -1    0    0  503  502  0.00000000000E+00  0.00000000000E+00  0.67178335930E+03  0.67178335930E+03  0.00000000000E+00 0.  1.
         21   -1    0    0  501  503 -0.00000000000E+00 -0.00000000000E+00 -0.55616562547E+02  0.55616562547E+02  0.00000000000E+00 0. -1.
          6    2    1    2  501    0 -0.87998432196E+01 -0.49412211878E+02  0.16565327724E+03  0.24310599869E+03  0.17070592964E+03 0.  0.
         24    2    3    3    0    0  0.37899804284E+02 -0.76483823528E+02  0.14108106515E+03  0.18361135321E+03  0.80765658890E+02 0.  0.
         -6    2    1    2    0  502  0.87998432196E+01  0.49412211878E+02  0.45051351951E+03  0.48429392315E+03  0.17046750077E+03 0.  0.
        -24    2    5    5    0    0 -0.28956237524E+02 -0.67079157426E+01  0.36702255533E+03  0.37674011589E+03  0.79649852319E+02 0.  0.
          5    1    3    3  501    0 -0.46699647504E+02  0.27071611650E+02  0.24572212088E+02  0.59494645484E+02  0.47000000000E+01 0. -1.
        -11    1    4    4    0    0 -0.45641083078E+01 -0.65103769918E+02  0.11572887335E+03  0.13286272641E+03  0.00000000000E+00 0.  1.
         12    1    4    4    0    0  0.42463912592E+02 -0.11380053611E+02  0.25352191805E+02  0.50748626800E+02  0.00000000000E+00 0. -1.
         -5    1    5    5    0  502  0.37756080744E+02  0.56120127621E+02  0.83490964181E+02  0.10755380726E+03  0.47000000000E+01 0.  1.
         11    1    6    6    0    0 -0.41696873327E+01 -0.32565502609E+02  0.28934711509E+03  0.29120379679E+03  0.00000000000E+00 0. -1.
        -12    1    6    6    0    0 -0.24786550191E+02  0.25857586867E+02  0.77675440233E+02  0.85536319095E+02  0.00000000000E+00 0.  1.
</event>
<event>
12    1  0.8451514E-002  0.2307541E+03  0.7818608E-02  0.1126341E+00
         21   -1    0    0  501  502  0.00000000000E+00  0.00000000000E+00  0.15064377184E+03  0.15064377184E+03  0.00000000000E+00 0. -1.
         21   -1    0    0  502  503 -0.00000000000E+00 -0.00000000000E+00 -0.58529319354E+03  0.58529319354E+03  0.00000000000E+00 0. -1.
         -6    2    1    2    0  503 -0.11188625788E+03  0.10642633655E+03 -0.45028244287E+03  0.50596615776E+03  0.17147120643E+03 0.  0.
        -24    2    3    3    0    0 -0.11008030395E+03  0.13942856458E+03 -0.40447481802E+03  0.44928426455E+03  0.81844205785E+02 0.  0.
          6    2    1    2  501    0  0.11188625788E+03 -0.10642633655E+03  0.15633021171E+02  0.22997080762E+03  0.16969702764E+03 0.  0.
         24    2    5    5    0    0  0.14242881666E+03 -0.95854256303E+02  0.36470022238E+02  0.19122951968E+03  0.75925360776E+02 0.  0.
          5    1    5    5  501    0 -0.30542558778E+02 -0.10572080247E+02 -0.20837001066E+02  0.38741287936E+02  0.47000000000E+01 0. -1.
        -13    1    6    6    0    0  0.35912891141E+02 -0.60647344681E+02  0.35778173772E+02  0.79043746656E+02  0.00000000000E+00 0.  1.
         14    1    6    6    0    0  0.10651592552E+03 -0.35206911622E+02  0.69184846593E+00  0.11218577302E+03  0.00000000000E+00 0. -1.
         -5    1    3    3    0  503 -0.18059539298E+01 -0.33002228027E+02 -0.45807624847E+02  0.56681893215E+02  0.47000000000E+01 0.  1.
         13    1    4    4    0    0 -0.42409894058E+02  0.60383767002E+02 -0.81404366446E+02  0.10987023850E+03  0.00000000000E+00 0. -1.
        -14    1    4    4    0    0 -0.67670409892E+02  0.79044797574E+02 -0.32307045157E+03  0.33941402605E+03  0.00000000000E+00 0.  1.
</event>
<event>
12    1  0.8451514E-002  0.1712976E+03  0.7818608E-02  0.1176549E+00
         21   -1    0    0  503  502  0.00000000000E+00  0.00000000000E+00  0.17942291203E+03  0.17942291203E+03  0.00000000000E+00 0. -1.
         21   -1    0    0  501  503 -0.00000000000E+00 -0.00000000000E+00 -0.16593913667E+03  0.16593913667E+03  0.00000000000E+00 0. -1.
          6    2    1    2  501    0  0.15292010587E+02 -0.22850085500E+02 -0.14766240369E+02  0.17193290772E+03  0.16907664211E+03 0.  0.
         24    2    3    3    0    0  0.71382550943E+01 -0.57510789575E+01  0.57327483569E+02  0.97243853743E+02  0.78012160100E+02 0.  0.
         -6    2    1    2    0  502 -0.15292010587E+02  0.22850085500E+02  0.28250015730E+02  0.17342914097E+03  0.16888940628E+03 0.  0.
        -24    2    5    5    0    0 -0.22416266324E+02  0.23492456640E+02  0.81990440382E+02  0.11901139660E+03  0.79918056105E+02 0.  0.
          5    1    3    3  501    0  0.81537554923E+01 -0.17099006542E+02 -0.72093723937E+02  0.74689053981E+02  0.47000000000E+01 0. -1.
        -11    1    4    4    0    0 -0.85019190489E+01  0.13468810989E+02  0.68308090554E+02  0.70140478556E+02  0.00000000000E+00 0.  1.
         12    1    4    4    0    0  0.15640174143E+02 -0.19219889946E+02 -0.10980606985E+02  0.27103375187E+02  0.00000000000E+00 0. -1.
         -5    1    5    5    0  502  0.71242557378E+01 -0.64237114062E+00 -0.53740424652E+02  0.54417744370E+02  0.47000000000E+01 0.  1.
         13    1    6    6    0    0 -0.19795571929E+02  0.46690363098E+01 -0.11665443170E+02  0.23446687025E+02  0.00000000000E+00 0. -1.
        -14    1    6    6    0    0 -0.26206943949E+01  0.18823420331E+02  0.93655883553E+02  0.95564709575E+02  0.00000000000E+00 0.  1.
</event>
<event>
12    1  0.8451514E-002  0.3090643E+03  0.7818608E-02  0.1080869E+00
         21   -1    0    0  501  502  0.00000000000E+00  0.00000000000E+00  0.31451838121E+03  0.31451838121E+03  0.00000000000E+00 0.  1.
         21   -1    0    0  502  503 -0.00000000000E+00 -0.00000000000E+00 -0.35933026903E+03  0.35933026903E+03  0.00000000000E+00 0. -1.
         -6    2    1    2    0  503  0.21830058307E+03  0.13493372325E+03 -0.15566333652E+03  0.34550616587E+03  0.17111745113E+03 0.  0.
        -24    2    3    3    0    0  0.10709653539E+03  0.32944438165E+02 -0.13177094195E+03  0.19266281139E+03  0.84855016654E+02 0.  0.
          6    2    1    2  501    0 -0.21830058307E+03 -0.13493372325E+03  0.11085144869E+03  0.32834248437E+03  0.17221640202E+03 0.  0.
         24    2    5    5    0    0 -0.16513148983E+03 -0.13474925693E+03  0.27700091838E+02  0.22953345315E+03  0.80576298315E+02 0.  0.
          5    1    5    5  501    0 -0.53169093242E+02 -0.18446631716E+00  0.83151356850E+02  0.98809031217E+02  0.47000000000E+01 0. -1.
        -11    1    6    6    0    0 -0.12348071209E+03 -0.87901834500E+02  0.54889848495E+02  0.16120519295E+03  0.00000000000E+00 0.  1.
         12    1    6    6    0    0 -0.41650777745E+02 -0.46847422430E+02 -0.27189756657E+02  0.68328260201E+02  0.00000000000E+00 0. -1.
         -5    1    3    3    0  503  0.11120404768E+03  0.10198928508E+03 -0.23892394568E+02  0.15284335448E+03  0.47000000000E+01 0.  1.
         11    1    4    4    0    0  0.81730219627E+02  0.41836988396E+02 -0.13734760263E+03  0.16521055156E+03  0.00000000000E+00 0. -1.
        -12    1    4    4    0    0  0.25366315768E+02 -0.88925502312E+01  0.55766606856E+01  0.27452259828E+02  0.00000000000E+00 0.  1.
</event>
<event>
12    1  0.8451514E-002  0.2197795E+03  0.7818608E-02  0.1134338E+00
         21   -1    0    0  503  502  0.00000000000E+00  0.00000000000E+00  0.34552110947E+04  0.34552110947E+04  0.00000000000E+00 0. -1.
         21   -1    0    0  501  503 -0.00000000000E+00 -0.00000000000E+00 -0.17393296636E+02  0.17393296636E+02  0.00000000000E+00 0. -1.
          6    2    1    2  501    0  0.13183714689E+03 -0.25604955948E+02  0.94356651558E+03  0.96882444177E+03  0.17397236153E+03 0.  0.
         24    2    3    3    0    0 -0.26109556395E+01 -0.21036030059E+02  0.30775957956E+03  0.31892466700E+03  0.80917567672E+02 0.  0.
         -6    2    1    2    0  502 -0.13183714689E+03  0.25604955948E+02  0.24942512825E+04  0.25037799496E+04  0.17201142001E+03 0.  0.
        -24    2    5    5    0    0 -0.13795945155E+03 -0.14317458315E+02  0.22893231469E+04  0.22948567280E+04  0.78288766886E+02 0.  0.
          5    1    3    3  501    0  0.13444810253E+03 -0.45689258887E+01  0.63580693602E+03  0.64989977477E+03  0.47000000000E+01 0. -1.
        -13    1    4    4    0    0  0.37757979492E+01  0.20854212410E+02  0.22453987934E+03  0.22553782884E+03  0.00000000000E+00 0.  1.
         14    1    4    4    0    0 -0.63867535887E+01 -0.41890242469E+02  0.83219700218E+02  0.93386838151E+02  0.00000000000E+00 0. -1.
         -5    1    5    5    0  502  0.61223046640E+01  0.39922414263E+02  0.20492813555E+03  0.20892322158E+03  0.47000000000E+01 0.  1.
         11    1    6    6    0    0 -0.91711975285E+02  0.26640796611E+02  0.15607325630E+04  0.15636518001E+04  0.00000000000E+00 0. -1.
        -12    1    6    6    0    0 -0.46247476268E+02 -0.40958254927E+02  0.72859058390E+03  0.73120492795E+03  0.00000000000E+00 0.  1.
</event>
<event>
12    1  0.8451514E-002  0.1902123E+03  0.7818608E-02  0.1158580E+00
         21   -1    0    0  503  502  0.00000000000E+00  0.00000000000E+00  0.59017589783E+03  0.59017589783E+03  0.00000000000E+00 0. -1.
         21   -1    0    0  501  503 -0.00000000000E+00 -0.00000000000E+00 -0.68549570025E+02  0.68549570025E+02  0.00000000000E+00 0. -1.
          6    2    1    2  501    0 -0.97824683020E+01 -0.78355006064E+02  0.15136520334E+03  0.24308875033E+03  0.17304771623E+03 0.  0.
         24    2    3    3    0    0 -0.22493333905E+01 -0.10916625292E+03  0.16047546852E+03  0.20975456389E+03  0.79512708404E+02 0.  0.
         -6    2    1    2    0  502  0.97824683020E+01  0.78355006064E+02  0.37026112447E+03  0.41563671753E+03  0.17153826689E+03 0.  0.
        -24    2    5    5    0    0  0.33320843587E+02  0.32625595648E+02  0.34604754303E+03  0.35859619146E+03  0.81655485958E+02 0.  0.
          5    1    3    3  501    0 -0.75331349115E+01  0.30811246854E+02 -0.91102651750E+01  0.33334186444E+02  0.47000000000E+01 0. -1.
        -13    1    4    4    0    0 -0.15300377531E+01  0.43040260820E+01  0.53859861102E+02  0.54053217240E+02  0.00000000000E+00 0.  1.
         14    1    4    4    0    0 -0.71929563736E+00 -0.11347027900E+03  0.10661560742E+03  0.15570134665E+03  0.00000000000E+00 0. -1.
         -5    1    5    5    0  502 -0.23538375285E+02  0.45729410416E+02  0.24213581437E+02  0.57040526067E+02  0.47000000000E+01 0.  1.
         13    1    6    6    0    0 -0.18972765199E+02  0.55833271686E+01  0.23475706003E+02  0.30696060560E+02  0.00000000000E+00 0. -1.
        -14    1    6    6    0    0  0.52293608786E+02  0.27042268480E+02  0.32257183703E+03  0.32790013090E+03  0.00000000000E+00 0.  1.
</event>
<event>
12    1  0.8451514E-002  0.2274840E+03  0.7818608E-02  0.1128607E+00
         21   -1    0    0  503  502  0.00000000000E+00  0.00000000000E+00  0.19489855564E+03  0.19489855564E+03  0.00000000000E+00 0.  1.
         21   -1    0    0  501  503 -0.00000000000E+00 -0.00000000000E+00 -0.78126157470E+03  0.78126157470E+03  0.00000000000E+00 0.  1.
          6    2    1    2  501    0 -0.99593461811E+01  0.14718027808E+03 -0.68997743706E+03  0.72619034151E+03  0.17182062048E+03 0.  0.
         24    2    3    3    0    0  0.22354588819E+02  0.79397563506E+02 -0.20290232429E+03  0.23333849534E+03  0.80459924658E+02 0.  0.
         -6    2    1    2    0  502  0.99593461811E+01 -0.14718027808E+03  0.10361441799E+03  0.24996978883E+03  0.17316964191E+03 0.  0.
        -24    2    5    5    0    0 -0.39470486900E+01 -0.13865030135E+03  0.13278324401E+03  0.21621984464E+03  0.99398923879E+02 0.  0.
          5    1    3    3  501    0 -0.32313935000E+02  0.67782714575E+02 -0.48707511277E+03  0.49285184616E+03  0.47000000000E+01 0. -1.
        -13    1    4    4    0    0  0.31531028721E+02 -0.16530767295E+01 -0.38323795795E+02  0.49655329614E+02  0.00000000000E+00 0.  1.
         14    1    4    4    0    0 -0.91764399023E+01  0.81050640236E+02 -0.16457852849E+03  0.18368316573E+03  0.00000000000E+00 0. -1.
         -5    1    5    5    0  502  0.13906394871E+02 -0.85299767323E+01 -0.29168826020E+02  0.33749944189E+02  0.47000000000E+01 0.  1.
         11    1    6    6    0    0 -0.34486203613E+02 -0.12278750532E+02  0.50453800587E+02  0.62334997778E+02  0.00000000000E+00 0. -1.
        -12    1    6    6    0    0  0.30539154923E+02 -0.12637155082E+03  0.82329443422E+02  0.15388484686E+03  0.00000000000E+00 0.  1.
</event>
<event>
12    1  0.8451514E-002  0.2106148E+03  0.7818608E-02  0.1141206E+00
         21   -1    0    0  501  502  0.00000000000E+00  0.00000000000E+00  0.60402108920E+03  0.60402108920E+03  0.00000000000E+00 0. -1.
         21   -1    0    0  502  503 -0.00000000000E+00 -0.00000000000E+00 -0.10620149297E+03  0.10620149297E+03  0.00000000000E+00 0. -1.
         -6    2    1    2    0  503  0.10194735556E+03 -0.65205382888E+02  0.51264179788E+02  0.21676395703E+03  0.17237630834E+03 0.  0.
        -24    2    3    3    0    0  0.95121612648E+02 -0.41883089686E+02 -0.28713179059E+02  0.13304425771E+03  0.77935957446E+02 0.  0.
          6    2    1    2  501    0 -0.10194735556E+03  0.65205382888E+02  0.44655541644E+03  0.49345862514E+03  0.17159449150E+03 0.  0.
         24    2    5    5    0    0 -0.77796837986E+02 -0.23367044648E+02  0.19387223718E+03  0.22457351678E+03  0.79047158789E+02 0.  0.
          5    1    5    5  501    0 -0.24150517571E+02  0.88572427536E+02  0.25268317926E+03  0.26888510836E+03  0.47000000000E+01 0. -1.
        -11    1    6    6    0    0 -0.37745021888E+02  0.93814879087E+01  0.21155749228E+02  0.44274876828E+02  0.00000000000E+00 0.  1.
         12    1    6    6    0    0 -0.40051816097E+02 -0.32748532557E+02  0.17271648795E+03  0.18029863995E+03  0.00000000000E+00 0. -1.
         -5    1    3    3    0  503  0.68257429087E+01 -0.23322293202E+02  0.79977358848E+02  0.83719699323E+02  0.47000000000E+01 0.  1.
         11    1    4    4    0    0  0.87317975120E+02 -0.62105866419E+02 -0.17276249848E+02  0.10853587532E+03  0.00000000000E+00 0. -1.
        -12    1    4    4    0    0  0.78036375280E+01  0.20222776733E+02 -0.11436929211E+02  0.24508382388E+02  0.00000000000E+00 0.  1.
</event>
<event>
12    1  0.8451514E-002  0.1816021E+03  0.7818608E-02  0.1166553E+00
         21   -1    0    0  503  502  0.00000000000E+00  0.00000000000E+00  0.55838863761E+03  0.55838863761E+03  0.00000000000E+00 0.  1.
         21   -1    0    0  501  503 -0.00000000000E+00 -0.00000000000E+00 -0.58909100249E+02  0.58909100249E+02  0.00000000000E+00 0.  1.
          6    2    1    2  501    0 -0.52221958412E+02 -0.26609403303E+02  0.27033511294E+03  0.32566915536E+03  0.17188406610E+03 0.  0.
         24    2    3    3    0    0  0.53188616440E+00 -0.42836172087E+02  0.25039188871E+03  0.26679557609E+03  0.81538708278E+02 0.  0.
         -6    2    1    2    0  502  0.52221958412E+02  0.26609403303E+02  0.22914442442E+03  0.29162858250E+03  0.17060149356E+03 0.  0.
        -24    2    5    5    0    0  0.41554693263E+02 -0.48873701775E+02  0.14937186080E+03  0.18118745971E+03  0.80009446309E+02 0.  0.
          5    1    3    3  501    0 -0.52753844577E+02  0.16226768784E+02  0.19943224229E+02  0.58873579265E+02  0.47000000000E+01 0. -1.
        -11    1    4    4    0    0 -0.11125858499E+02  0.66899830734E+01  0.18669406850E+01  0.13115870858E+02  0.00000000000E+00 0.  1.
         12    1    4    4    0    0  0.11657744663E+02 -0.49526155160E+02  0.24852494803E+03  0.25367970524E+03  0.00000000000E+00 0. -1.
         -5    1    5    5    0  502  0.10667265149E+02  0.75483105078E+02  0.79772563616E+02  0.11044112279E+03  0.47000000000E+01 0.  1.
         11    1    6    6    0    0 -0.20177991817E+02  0.31442358158E+01  0.19285163789E+02  0.28088344825E+02  0.00000000000E+00 0. -1.
        -12    1    6    6    0    0  0.61732685080E+02 -0.52017937591E+02  0.13008669702E+03  0.15309911489E+03  0.00000000000E+00 0.  1.
</event>
<event>
12    1  0.8451514E-002  0.1838572E+03  0.7818608E-02  0.1164390E+00
         21   -1    0    0  501  502  0.00000000000E+00  0.00000000000E+00  0.63392567961E+03  0.63392567961E+03  0.00000000000E+00 0.  1.
         21   -1    0    0  502  503 -0.00000000000E+00 -0.00000000000E+00 -0.60205402870E+02  0.60205402870E+02  0.00000000000E+00 0.  1.
         -6    2    1    2    0  503  0.35504851170E+02  0.54153490944E+02  0.40618914732E+03  0.44539395488E+03  0.17085946449E+03 0.  0.
        -24    2    3    3    0    0 -0.44017418924E+02  0.31668957291E+02  0.26350156853E+03  0.28043583645E+03  0.79187914006E+02 0.  0.
          6    2    1    2  501    0 -0.35504851170E+02 -0.54153490944E+02  0.16753112942E+03  0.24873712760E+03  0.17207639084E+03 0.  0.
         24    2    5    5    0    0  0.32970085554E+02 -0.62041707457E+02  0.13722333636E+03  0.17329381617E+03  0.79147347881E+02 0.  0.
          5    1    5    5  501    0 -0.68474936724E+02  0.78882165130E+01  0.30307793064E+02  0.75443311430E+02  0.47000000000E+01 0. -1.
        -11    1    6    6    0    0  0.32027033932E+01 -0.37323081450E+02  0.78706261676E+01  0.38278146170E+02  0.00000000000E+00 0.  1.
         12    1    6    6    0    0  0.29767382161E+02 -0.24718626007E+02  0.12935271019E+03  0.13501567000E+03  0.00000000000E+00 0. -1.
         -5    1    3    3    0  503  0.79522270094E+02  0.22484533653E+02  0.14268757879E+03  0.16495811843E+03  0.47000000000E+01 0.  1.
         13    1    4    4    0    0  0.19760170017E+02  0.24975309078E+02  0.87329511744E+02  0.92955225803E+02  0.00000000000E+00 0. -1.
        -14    1    4    4    0    0 -0.63777588940E+02  0.66936482131E+01  0.17617205678E+03  0.18748061065E+03  0.00000000000E+00 0.  1.
</event>
<event>
12    1  0.8451514E-002  0.1813605E+03  0.7818608E-02  0.1166520E+00
         21   -1    0    0  501  502  0.00000000000E+00  0.00000000000E+00  0.67848802814E+03  0.67848802814E+03  0.00000000000E+00 0. -1.
         21   -1    0    0  502  503 -0.00000000000E+00 -0.00000000000E+00 -0.19675117611E+03  0.19675117611E+03  0.00000000000E+00 0. -1.
         -6    2    1    2    0  503  0.51506234429E+02 -0.24332689392E+02 -0.13908970743E+03  0.22846470695E+03  0.17206162748E+03 0.  0.
        -24    2    3    3    0    0  0.84270198195E+02 -0.49604283489E+02 -0.13841114277E+03  0.18681520227E+03  0.78614401440E+02 0.  0.
          6    2    1    2  501    0 -0.51506234429E+02  0.24332689392E+02  0.62082655946E+03  0.64677449730E+03  0.17218205907E+03 0.  0.
         24    2    5    5    0    0 -0.49531603170E+02  0.73058260081E+02  0.53235680987E+03  0.54564553508E+03  0.80835560583E+02 0.  0.
          5    1    5    5  501    0 -0.19746312592E+01 -0.48725570689E+02  0.88469749582E+02  0.10112896222E+03  0.47000000000E+01 0. -1.
        -11    1    6    6    0    0 -0.28114494557E+02  0.48265918783E+02  0.12427678522E+03  0.13625249747E+03  0.00000000000E+00 0.  1.
         12    1    6    6    0    0 -0.21417108613E+02  0.24792341298E+02  0.40808002465E+03  0.40939303761E+03  0.00000000000E+00 0. -1.
         -5    1    3    3    0  503 -0.32763963766E+02  0.25271594098E+02 -0.67856466016E+00  0.41649504677E+02  0.47000000000E+01 0.  1.
         13    1    4    4    0    0  0.54549197383E+02  0.97495868337E+01 -0.40977751605E+02  0.68919122928E+02  0.00000000000E+00 0. -1.
        -14    1    4    4    0    0  0.29721000812E+02 -0.59353870323E+02 -0.97433391160E+02  0.11789607934E+03  0.00000000000E+00 0.  1.
</event>
<event>
12    1  0.8451514E-002  0.1791966E+03  0.7818608E-02  0.1169108E+00
         21   -1    0    0  503  502  0.00000000000E+00  0.00000000000E+00  0.50176123827E+03  0.50176123827E+03  0.00000000000E+00 0. -1.
         21   -1    0    0  501  503 -0.00000000000E+00 -0.00000000000E+00 -0.71627601035E+02  0.71627601035E+02  0.00000000000E+00 0. -1.
          6    2    1    2  501    0  0.31371865395E+02 -0.27899492326E+02  0.11578712266E+03  0.21155304106E+03  0.17200423191E+03 0.  0.
         24    2    3    3    0    0 -0.35230319356E+02  0.20219647832E+01  0.10624484202E+03  0.13776761073E+03  0.80291247132E+02 0.  0.
         -6    2    1    2    0  502 -0.31371865395E+02  0.27899492326E+02  0.31434651458E+03  0.36183579825E+03  0.17420917903E+03 0.  0.
        -24    2    5    5    0    0 -0.51995547386E+02  0.58562745485E+02  0.30465344565E+03  0.32334402071E+03  0.74863219760E+02 0.  0.
          5    1    3    3  501    0  0.66602184751E+02 -0.29921457110E+02  0.95422806407E+01  0.73785430330E+02  0.47000000000E+01 0. -1.
        -13    1    4    4    0    0 -0.15167998159E+02  0.30900320844E+02  0.94692962148E+02  0.10075542207E+03  0.00000000000E+00 0.  1.
         14    1    4    4    0    0 -0.20062321197E+02 -0.28878356060E+02  0.11551879873E+02  0.37012188657E+02  0.00000000000E+00 0. -1.
         -5    1    5    5    0  502  0.20623681991E+02 -0.30663253158E+02  0.96930689229E+01  0.38491777541E+02  0.47000000000E+01 0.  1.
         13    1    6    6    0    0 -0.32440164841E+02 -0.86013585504E+01  0.14838265351E+03  0.15213073169E+03  0.00000000000E+00 0. -1.
        -14    1    6    6    0    0 -0.19555382546E+02  0.67164104035E+02  0.15627079215E+03  0.17121328902E+03  0.00000000000E+00 0.  1.
</event>
<event>
12    1  0.8451514E-002  0.3196401E+03  0.7818608E-02  0.1077133E+00
         21   -1    0    0  501  502  0.00000000000E+00  0.00000000000E+00  0.20555638550E+03  0.20555638550E+03  0.00000000000E+00 0. -1.
         21   -1    0    0  502  503 -0.00000000000E+00 -0.00000000000E+00 -0.55147218003E+03  0.55147218003E+03  0.00000000000E+00 0.  1.
         -6    2    1    2    0  503 -0.45370465835E+02 -0.26590917235E+03 -0.31213181240E+03  0.44676177229E+03  0.17147491292E+03 0.  0.
        -24    2    3    3    0    0 -0.63236350645E+02 -0.10885219799E+03 -0.21347588052E+03  0.26037194980E+03  0.79837106841E+02 0.  0.
          6    2    1    2  501    0  0.45370465835E+02  0.26590917235E+03 -0.33783982140E+02  0.31026679324E+03  0.14952577847E+03 0.  0.
         24    2    5    5    0    0  0.10577797958E+02  0.80864355525E+02 -0.42886463074E+02  0.12170099801E+03  0.79504404893E+02 0.  0.
          5    1    5    5  501    0  0.34792667877E+02  0.18504481682E+03  0.91024809341E+01  0.18856579523E+03  0.47000000000E+01 0. -1.
        -13    1    6    6    0    0 -0.41462575886E+01  0.42796854155E+02  0.19449223785E+02  0.47191466213E+02  0.00000000000E+00 0.  1.
         14    1    6    6    0    0  0.14724055547E+02  0.38067501371E+02 -0.62335686859E+02  0.74509531797E+02  0.00000000000E+00 0. -1.
         -5    1    3    3    0  503  0.17865884810E+02 -0.15705697435E+03 -0.98655931875E+02  0.18638982249E+03  0.47000000000E+01 0.  1.
         11    1    4    4    0    0  0.23788442463E+01  0.11404336809E+02 -0.11917840928E+02  0.16665915228E+02  0.00000000000E+00 0. -1.
        -12    1    4    4    0    0 -0.65615194891E+02 -0.12025653480E+03 -0.20155803959E+03  0.24370603457E+03  0.00000000000E+00 0.  1.
</event>
<event>
12    1  0.8451514E-002  0.2310751E+03  0.7818608E-02  0.1125944E+00
         21   -1    0    0  503  502  0.00000000000E+00  0.00000000000E+00  0.88641560053E+02  0.88641560053E+02  0.00000000000E+00 0. -1.
         21   -1    0    0  501  503 -0.00000000000E+00 -0.00000000000E+00 -0.63771726310E+03  0.63771726310E+03  0.00000000000E+00 0. -1.
          6    2    1    2  501    0  0.92937450659E+02 -0.12153667590E+03 -0.36126471101E+03  0.42884486051E+03  0.17316809647E+03 0.  0.
         24    2    3    3    0    0  0.52016568362E+02 -0.14042840410E+03 -0.33752782543E+03  0.37768876860E+03  0.79359390901E+02 0.  0.
         -6    2    1    2    0  502 -0.92937450659E+02  0.12153667590E+03 -0.18781099203E+03  0.29751396265E+03  0.17272248237E+03 0.  0.
        -24    2    5    5    0    0 -0.74015572479E+02  0.12253784089E+03 -0.21083215629E+03  0.26732946648E+03  0.80752821013E+02 0.  0.
          5    1    3    3  501    0  0.40920882298E+02  0.18891728199E+02 -0.23736885585E+02  0.51156091911E+02  0.47000000000E+01 0. -1.
        -11    1    4    4    0    0 -0.99358323359E+01 -0.15589988981E+02 -0.10484087636E+03  0.10645833869E+03  0.00000000000E+00 0.  1.
         12    1    4    4    0    0  0.61952400698E+02 -0.12483841511E+03 -0.23268694907E+03  0.27123042991E+03  0.00000000000E+00 0. -1.
         -5    1    5    5    0  502 -0.18921878181E+02 -0.10011649940E+01  0.23021164256E+02  0.30184496168E+02  0.47000000000E+01 0.  1.
         11    1    6    6    0    0 -0.37372046256E+02  0.87087385706E+02 -0.70770337408E+02  0.11827646954E+03  0.00000000000E+00 0. -1.
        -12    1    6    6    0    0 -0.36643526223E+02  0.35450455185E+02 -0.14006181888E+03  0.14905299694E+03  0.00000000000E+00 0.  1.
</event>
<event>
12    1  0.8451514E-002  0.1831762E+03  0.7818608E-02  0.1164896E+00
         21   -1    0    0  501  502  0.00000000000E+00  0.00000000000E+00  0.15472195697E+04  0.15472195697E+04  0.00000000000E+00 0. -1.
         21   -1    0    0  502  503 -0.00000000000E+00 -0.00000000000E+00 -0.29554551813E+02  0.29554551813E+02  0.00000000000E+00 0. -1.
         -6    2    1    2    0  503  0.39871444867E+02 -0.45972715115E+02  0.35119450182E+03  0.39609483098E+03  0.17277243522E+03 0.  0.
        -24    2    3    3    0    0 -0.27841802593E+02  0.21047225028E+02  0.18435769109E+03  0.20391427090E+03  0.79844348330E+02 0.  0.
          6    2    1    2  501    0 -0.39871444867E+02  0.45972715115E+02  0.11664705161E+04  0.11806792906E+04  0.17218275055E+03 0.  0.
         24    2    5    5    0    0 -0.77774420782E+02  0.32628273265E+02  0.53025549570E+03  0.54317921065E+03  0.82214958590E+02 0.  0.
          5    1    5    5  501    0  0.37902975916E+02  0.13344441850E+02  0.63621502040E+03  0.63750007992E+03  0.47000000000E+01 0. -1.
        -13    1    6    6    0    0 -0.67772119166E+02  0.33524620482E+02  0.52732477997E+03  0.53271792150E+03  0.00000000000E+00 0.  1.
         14    1    6    6    0    0 -0.10002301616E+02 -0.89634721631E+00  0.29307157276E+01  0.10461289148E+02  0.00000000000E+00 0. -1.
         -5    1    3    3    0  503  0.67713247460E+02 -0.67019940143E+02  0.16683681073E+03  0.19218056008E+03  0.47000000000E+01 0.  1.
         13    1    4    4    0    0  0.23847315576E+02  0.69412388220E+00  0.22518837159E+02  0.32806619685E+02  0.00000000000E+00 0. -1.
        -14    1    4    4    0    0 -0.51689118169E+02  0.20353101145E+02  0.16183885393E+03  0.17110765121E+03  0.00000000000E+00 0.  1.
</event>
<event>
12    1  0.8451514E-002  0.1973094E+03  0.7818608E-02  0.1152154E+00
         21   -1    0    0  501  502  0.00000000000E+00  0.00000000000E+00  0.63441361994E+03  0.63441361994E+03  0.00000000000E+00 0.  1.
         21   -1    0    0  502  503 -0.00000000000E+00 -0.00000000000E+00 -0.64903128905E+02  0.64903128905E+02  0.00000000000E+00 0. -1.
         -6    2    1    2    0  503 -0.34821970931E+01 -0.94892466085E+02  0.20146061974E+03  0.28198828893E+03  0.17295753229E+03 0.  0.
        -24    2    3    3    0    0  0.51944155793E+02 -0.30006197733E+02  0.15968164856E+03  0.18685742724E+03  0.76281727840E+02 0.  0.
          6    2    1    2  501    0  0.34821970931E+01  0.94892466085E+02  0.36804987130E+03  0.41732845991E+03  0.17229518238E+03 0.  0.
         24    2    5    5    0    0 -0.10423667767E+02  0.31039079005E+02  0.33949277453E+03  0.34585660605E+03  0.57353035760E+02 0.  0.
          5    1    5    5  501    0  0.13905864861E+02  0.63853387081E+02  0.28557096768E+02  0.71471853866E+02  0.47000000000E+01 0. -1.
        -11    1    6    6    0    0  0.99960836817E+01  0.37068693315E+02  0.28097325628E+03  0.28358416821E+03  0.00000000000E+00 0.  1.
         12    1    6    6    0    0 -0.20419751449E+02 -0.60296143099E+01  0.58519518256E+02  0.62272437842E+02  0.00000000000E+00 0. -1.
         -5    1    3    3    0  503 -0.55426352886E+02 -0.64886268352E+02  0.41778971172E+02  0.95130861696E+02  0.47000000000E+01 0.  1.
         11    1    4    4    0    0  0.51269091254E+02  0.11268503222E+02  0.64864941873E+02  0.83444350121E+02  0.00000000000E+00 0. -1.
        -12    1    4    4    0    0  0.67506453907E+00 -0.41274700955E+02  0.94816706691E+02  0.10341307712E+03  0.00000000000E+00 0.  1.
</event>
<event>
12    1  0.8451514E-002  0.2279037E+03  0.7818608E-02  0.1129514E+00
         21   -1    0    0  501  502  0.00000000000E+00  0.00000000000E+00  0.29772820592E+03  0.29772820592E+03  0.00000000000E+00 0. -1.
         21   -1    0    0  502  503 -0.00000000000E+00 -0.00000000000E+00 -0.84651884421E+03  0.84651884421E+03  0.00000000000E+00 0. -1.
         -6    2    1    2    0  503  0.13939023626E+03 -0.52535438882E+02 -0.78541994064E+03  0.81571467050E+03  0.16222308779E+03 0.  0.
        -24    2    3    3    0    0  0.15053441649E+03 -0.99670052889E+01 -0.54938809521E+03  0.57557015912E+03  0.81815506876E+02 0.  0.
          6    2    1    2  501    0 -0.13939023626E+03  0.52535438882E+02  0.23662930235E+03  0.32853237963E+03  0.17248329609E+03 0.  0.
         24    2    5    5    0    0 -0.10700336252E+03 -0.30884534735E+02  0.12959902155E+03  0.18894236352E+03  0.80620941881E+02 0.  0.
          5    1    5    5  501    0 -0.32386873740E+02  0.83419973617E+02  0.10703028080E+03  0.13959001611E+03  0.47000000000E+01 0. -1.
        -13    1    6    6    0    0 -0.47380836172E+02 -0.10810580414E+02  0.43642788418E+01  0.48794048971E+02  0.00000000000E+00 0.  1.
         14    1    6    6    0    0 -0.59622526353E+02 -0.20073954321E+02  0.12523474271E+03  0.14014831455E+03  0.00000000000E+00 0. -1.
         -5    1    3    3    0  503 -0.11144180221E+02 -0.42568433594E+02 -0.23603184543E+03  0.24014451138E+03  0.47000000000E+01 0.  1.
         11    1    4    4    0    0  0.60227923594E+02 -0.43537505765E+02 -0.26978133085E+03  0.27983009785E+03  0.00000000000E+00 0. -1.
        -12    1    4    4    0    0  0.90306492892E+02  0.33570500476E+02 -0.27960676436E+03  0.29574006126E+03  0.00000000000E+00 0.  1.
</event>
<event>
12    1  0.8451514E-002  0.1734623E+03  0.7818608E-02  0.1174834E+00
         21   -1    0    0  501  502  0.00000000000E+00  0.00000000000E+00  0.26182978875E+03  0.26182978875E+03  0.00000000000E+00 0.  1.
         21   -1    0    0  502  503 -0.00000000000E+00 -0.00000000000E+00 -0.11978520017E+03  0.11978520017E+03  0.00000000000E+00 0.  1.
         -6    2    1    2    0  503 -0.95184752818E+01 -0.14671824485E+02  0.26893446876E+02  0.17341087584E+03  0.17041775309E+03 0.  0.
        -24    2    3    3    0    0  0.36317423680E+02  0.19431249608E+02 -0.22506938617E+02  0.97737648187E+02  0.85729556532E+02 0.  0.
          6    2    1    2  501    0  0.95184752818E+01  0.14671824485E+02  0.11515114170E+03  0.20820411308E+03  0.17257839802E+03 0.  0.
         24    2    5    5    0    0 -0.38373560546E+02 -0.46915234170E+01  0.12656157625E+03  0.15509220901E+03  0.80877810132E+02 0.  0.
          5    1    5    5  501    0  0.47892035828E+02  0.19363347902E+02 -0.11410434550E+02  0.53111904073E+02  0.47000000000E+01 0. -1.
        -11    1    6    6    0    0 -0.60909759346E+02 -0.13157417583E+02  0.10802105941E+03  0.12470631780E+03  0.00000000000E+00 0.  1.
         12    1    6    6    0    0  0.22536198800E+02  0.84658941662E+01  0.18540516838E+02  0.30385891216E+02  0.00000000000E+00 0. -1.
         -5    1    3    3    0  503 -0.45835898962E+02 -0.34103074092E+02  0.49400385493E+02  0.75673227651E+02  0.47000000000E+01 0.  1.
         13    1    4    4    0    0 -0.22955639587E+02  0.17339787092E+01  0.12974529456E+02  0.26425489316E+02  0.00000000000E+00 0. -1.
        -14    1    4    4    0    0  0.59273063266E+02  0.17697270898E+02 -0.35481468073E+02  0.71312158871E+02  0.00000000000E+00 0.  1.
</event>
<event>
12    1  0.8451514E-002  0.1858164E+03  0.7818608E-02  0.1162569E+00
         21   -1    0    0  503  502  0.00000000000E+00  0.00000000000E+00  0.95666300204E+03  0.95666300204E+03  0.00000000000E+00 0.  1.
         21   -1    0    0  501  503 -0.00000000000E+00 -0.00000000000E+00 -0.23112373858E+03  0.23112373858E+03  0.00000000000E+00 0.  1.
          6    2    1    2  501    0 -0.67889758174E+02 -0.68127758768E+01 -0.18329338945E+03  0.26015291443E+03  0.17154486029E+03 0.  0.
         24    2    3    3    0    0 -0.15767079537E+02  0.60596993499E+02 -0.12215474051E+03  0.15517255898E+03  0.72361219000E+02 0.  0.
         -6    2    1    2    0  502  0.67889758174E+02  0.68127758768E+01  0.90883265291E+03  0.92763382619E+03  0.17283602437E+03 0.  0.
        -24    2    5    5    0    0  0.49862466110E+02 -0.40887977723E+02  0.80412931176E+03  0.81107815365E+03  0.84057891066E+02 0.  0.
          5    1    3    3  501    0 -0.52122678638E+02 -0.67409769376E+02 -0.61138648944E+02  0.10498035545E+03  0.47000000000E+01 0. -1.
        -13    1    4    4    0    0  0.16409516219E+02 -0.75097686076E+01 -0.39005130492E+02  0.42977541249E+02  0.00000000000E+00 0.  1.
         14    1    4    4    0    0 -0.32176595755E+02  0.68106762106E+02 -0.83149610016E+02  0.11219501774E+03  0.00000000000E+00 0. -1.
         -5    1    5    5    0  502  0.18027292064E+02  0.47700753600E+02  0.10470334114E+03  0.11655567253E+03  0.47000000000E+01 0.  1.
         13    1    6    6    0    0 -0.97831448883E+01 -0.17490972426E+02  0.45134255209E+02  0.49383651481E+02  0.00000000000E+00 0. -1.
        -14    1    6    6    0    0  0.59645610999E+02 -0.23397005297E+02  0.75899505655E+03  0.76169450217E+03  0.00000000000E+00 0.  1.
</event>
<event>
12    1  0.8451514E-002  0.2397998E+03  0.7818608E-02  0.1120248E+00
         21   -1    0    0  503  502  0.00000000000E+00  0.00000000000E+00  0.16280957206E+03  0.16280957206E+03  0.00000000000E+00 0.  1.
         21   -1    0    0  501  503 -0.00000000000E+00 -0.00000000000E+00 -0.42866022860E+03  0.42866022860E+03  0.00000000000E+00 0.  1.
          6    2    1    2  501    0 -0.90293718700E+02  0.14042960223E+03 -0.61040612184E+01  0.23795567588E+03  0.16944679195E+03 0.  0.
         24    2    3    3    0    0 -0.11242833045E+03  0.12073918282E+03  0.34666551516E+02  0.18733960614E+03  0.81708496970E+02 0.  0.
         -6    2    1    2    0  502  0.90293718700E+02 -0.14042960223E+03 -0.25974659532E+03  0.35351412477E+03  0.17213516147E+03 0.  0.
        -24    2    5    5    0    0  0.55786453721E+02 -0.20435642609E+02 -0.17904416511E+03  0.20477181767E+03  0.79655133810E+02 0.  0.
          5    1    3    3  501    0  0.22134611752E+02  0.19690419408E+02 -0.40770612734E+02  0.50616069747E+02  0.47000000000E+01 0. -1.
        -13    1    4    4    0    0 -0.37452640250E+02  0.52376717334E+02 -0.25640413638E+02  0.69306937546E+02  0.00000000000E+00 0.  1.
         14    1    4    4    0    0 -0.74975690202E+02  0.68362465486E+02  0.60306965154E+02  0.11803266859E+03  0.00000000000E+00 0. -1.
         -5    1    5    5    0  502  0.34507264980E+02 -0.11999395962E+03 -0.80702430208E+02  0.14874230711E+03  0.47000000000E+01 0.  1.
         13    1    6    6    0    0 -0.17086061292E+02 -0.19905664698E+02 -0.41029167547E+02  0.48698681369E+02  0.00000000000E+00 0. -1.
        -14    1    6    6    0    0  0.72872515013E+02 -0.52997791127E+00 -0.13801499757E+03  0.15607313630E+03  0.00000000000E+00 0.  1.
</event>
<event>
12    1  0.8451514E-002  0.1816967E+03  0.7818608E-02  0.1166655E+00
         21   -1    0    0  501  502  0.00000000000E+00  0.00000000000E+00  0.25313926468E+03  0.25313926468E+03  0.00000000000E+00 0. -1.
         21   -1    0    0  502  503 -0.00000000000E+00 -0.00000000000E+00 -0.20784996490E+03  0.20784996490E+03  0.00000000000E+00 0. -1.
         -6    2    1    2    0  503 -0.37913988414E+02  0.45296469606E+02 -0.11942175989E+03  0.21574764159E+03  0.16969457104E+03 0.  0.
        -24    2    3    3    0    0 -0.63315429254E+02  0.26594693130E+02 -0.14182367276E+03  0.17677424887E+03  0.80119034109E+02 0.  0.
          6    2    1    2  501    0  0.37913988414E+02 -0.45296469606E+02  0.16471105967E+03  0.24524158798E+03  0.17182683905E+03 0.  0.
         24    2    5    5    0    0  0.35169595975E+02 -0.13479368159E+01  0.17931369063E+02  0.91926967670E+02  0.83007927175E+02 0.  0.
          5    1    5    5  501    0  0.27443924395E+01 -0.43948532790E+02  0.14677969061E+03  0.15331462031E+03  0.47000000000E+01 0. -1.
        -11    1    6    6    0    0  0.36543159546E+02 -0.36631766048E+02  0.22307314918E+02  0.56346296172E+02  0.00000000000E+00 0.  1.
         12    1    6    6    0    0 -0.13735635713E+01  0.35283829232E+02 -0.43759458554E+01  0.35580671498E+02  0.00000000000E+00 0. -1.
         -5    1    3    3    0  503  0.25401440840E+02  0.18701776476E+02  0.22401912864E+02  0.38973392719E+02  0.47000000000E+01 0.  1.
         13    1    4    4    0    0 -0.20257400723E+02  0.47120772780E+02 -0.10377298200E+03  0.11575647414E+03  0.00000000000E+00 0. -1.
        -14    1    4    4    0    0 -0.43058028531E+02 -0.20526079650E+02 -0.38050690755E+02  0.61017774736E+02  0.00000000000E+00 0.  1.
</event>
<event>
12    1  0.8451514E-002  0.1797623E+03  0.7818608E-02  0.1168113E+00
         21   -1    0    0  503  502  0.00000000000E+00  0.00000000000E+00  0.75886267724E+02  0.75886267724E+02  0.00000000000E+00 0.  1.
         21   -1    0    0  501  503 -0.00000000000E+00 -0.00000000000E+00 -0.66255122590E+03  0.66255122590E+03  0.00000000000E+00 0.  1.
          6    2    1    2  501    0  0.74203463482E+01  0.51014946707E+02 -0.51456557896E+03  0.54506165048E+03  0.17221173435E+03 0.  0.
         24    2    3    3    0    0 -0.23923160543E+02  0.81666925078E+02 -0.46151763943E+03  0.47608242832E+03  0.80088343608E+02 0.  0.
         -6    2    1    2    0  502 -0.74203463482E+01 -0.51014946707E+02 -0.72099379216E+02  0.19337584314E+03  0.17186712862E+03 0.  0.
        -24    2    5    5    0    0  0.50305278363E+02 -0.45499113566E+02 -0.83873500174E+02  0.13401767531E+03  0.79531018470E+02 0.  0.
          5    1    3    3  501    0  0.31343506891E+02 -0.30651978372E+02 -0.53047939530E+02  0.68979222167E+02  0.47000000000E+01 0. -1.
        -13    1    4    4    0    0 -0.33514428503E+02  0.18367916454E+00 -0.16817464991E+03  0.17148167111E+03  0.00000000000E+00 0.  1.
         14    1    4    4    0    0  0.95912679601E+01  0.81483245914E+02 -0.29334298952E+03  0.30460075720E+03  0.00000000000E+00 0. -1.
         -5    1    5    5    0  502 -0.57725624712E+02 -0.55158331410E+01  0.11774120958E+02  0.59358167828E+02  0.47000000000E+01 0.  1.
         11    1    6    6    0    0  0.17583681690E+02 -0.47294444845E+02 -0.87541837249E+02  0.10104218745E+03  0.00000000000E+00 0. -1.
        -12    1    6    6    0    0  0.32721596673E+02  0.17953312798E+01  0.36683370757E+01  0.32975487868E+02  0.00000000000E+00 0.  1.
</event>
<event>
12    1  0.8451514E-002  0.2132300E+03  0.7818608E-02  0.1139156E+00
         21   -1    0    0  501  502  0.00000000000E+00  0.00000000000E+00  0.44489561637E+03  0.44489561637E+03  0.00000000000E+00 0.  1.
         21   -1    0    0  502  503 -0.00000000000E+00 -0.00000000000E+00 -0.32367286604E+03  0.32367286604E+03  0.00000000000E+00 0. -1.
         -6    2    1    2    0  503 -0.87532015507E+02 -0.90893846626E+02 -0.25751273276E+03  0.33393346548E+03  0.17109999047E+03 0.  0.
        -24    2    3    3    0    0 -0.88076802558E+02 -0.12700917530E+03 -0.22707631028E+03  0.28646685014E+03  0.81306529764E+02 0.  0.
          6    2    1    2  501    0  0.87532015507E+02  0.90893846626E+02  0.37873548309E+03  0.43463501693E+03  0.17188218842E+03 0.  0.
         24    2    5    5    0    0  0.10071213014E+03  0.51306912859E+02  0.15958741050E+03  0.21150095753E+03  0.80555452818E+02 0.  0.
          5    1    5    5  501    0 -0.13180114635E+02  0.39586933767E+02  0.21914807259E+03  0.22313405940E+03  0.47000000000E+01 0. -1.
        -13    1    6    6    0    0  0.39838083327E+02  0.61293119572E+02  0.11130708709E+03  0.13316601303E+03  0.00000000000E+00 0.  1.
         14    1    6    6    0    0  0.60874046815E+02 -0.99862067128E+01  0.48280323408E+02  0.78334944491E+02  0.00000000000E+00 0. -1.
         -5    1    3    3    0  503  0.54478705071E+00  0.36115328670E+02 -0.30436422482E+02  0.47466615335E+02  0.47000000000E+01 0.  1.
         13    1    4    4    0    0 -0.41179050301E+02 -0.11062990352E+03 -0.11949049628E+03  0.16796627173E+03  0.00000000000E+00 0. -1.
        -14    1    4    4    0    0 -0.46897752257E+02 -0.16379271774E+02 -0.10758581400E+03  0.11850057842E+03  0.00000000000E+00 0.  1.
</event>
<event>
12    1  0.8451514E-002  0.1799139E+03  0.7818608E-02  0.1167967E+00
         21   -1    0    0  501  502  0.00000000000E+00  0.00000000000E+00  0.35457489000E+03  0.35457489000E+03  0.00000000000E+00 0. -1.
         21   -1    0    0  502  503 -0.00000000000E+00 -0.00000000000E+00 -0.27200147665E+03  0.27200147665E+03  0.00000000000E+00 0. -1.
         -6    2    1    2    0  503  0.47658699114E+02  0.16313225874E+02 -0.21420467728E+03  0.27952268277E+03  0.17237115035E+03 0.  0.
        -24    2    3    3    0    0  0.57484517126E+02  0.69753027065E+02 -0.11653869055E+03  0.16766074101E+03  0.79742731241E+02 0.  0.
          6    2    1    2  501    0 -0.47658699114E+02 -0.16313225874E+02  0.29677809064E+03  0.34705368388E+03  0.17271812722E+03 0.  0.
         24    2    5    5    0    0 -0.80345859778E+02  0.30615313416E+02  0.15894248466E+03  0.19775035991E+03  0.80310253490E+02 0.  0.
          5    1    5    5  501    0  0.32687160664E+02 -0.46928539290E+02  0.13783560598E+03  0.14930332397E+03  0.47000000000E+01 0. -1.
        -11    1    6    6    0    0 -0.28939246325E+02  0.44199976337E+02  0.36363328622E+02  0.64135867925E+02  0.00000000000E+00 0.  1.
         12    1    6    6    0    0 -0.51406613453E+02 -0.13584662921E+02  0.12257915604E+03  0.13361449198E+03  0.00000000000E+00 0. -1.
         -5    1    3    3    0  503 -0.98258180119E+01 -0.53439801191E+02 -0.97665986735E+02  0.11186194177E+03  0.47000000000E+01 0.  1.
         11    1    4    4    0    0  0.28425855062E+02  0.39576736630E+02 -0.11594019760E+03  0.12576357476E+03  0.00000000000E+00 0. -1.
        -12    1    4    4    0    0  0.29058662064E+02  0.30176290435E+02 -0.59849295205E+00  0.41897166243E+02  0.00000000000E+00 0.  1.
</event>
<event>
12    1  0.8451514E-002  0.1930784E+03  0.7818608E-02  0.1155835E+00
         21   -1    0    0  501  502  0.00000000000E+00  0.00000000000E+00  0.45726024007E+04  0.45726024007E+04  0.00000000000E+00 0.  1.
         21   -1    0    0  502  503 -0.00000000000E+00 -0.00000000000E+00 -0.12097486988E+02  0.12097486988E+02  0.00000000000E+00 0.  1.
         -6    2    1    2    0  503 -0.48495655523E+02 -0.72216662709E+02  0.96958588047E+03  0.98862330709E+03  0.17237223883E+03 0.  0.
        -24    2    3    3    0    0 -0.14946720695E+02 -0.36930868971E+02  0.89497384095E+03  0.89940635405E+03  0.79789223389E+02 0.  0.
          6    2    1    2  501    0  0.48495655523E+02  0.72216662709E+02  0.35909190333E+04  0.35960765806E+04  0.17175620896E+03 0.  0.
         24    2    5    5    0    0 -0.11262417638E+02 -0.49196419141E+01  0.23908519610E+04  0.23920399929E+04  0.74371923524E+02 0.  0.
          5    1    5    5  501    0  0.59758073161E+02  0.77136304624E+02  0.12000670723E+04  0.12040365878E+04  0.47000000000E+01 0. -1.
        -13    1    6    6    0    0 -0.29527343341E+02 -0.28367386295E+02  0.95068473645E+03  0.95156609898E+03  0.00000000000E+00 0.  1.
         14    1    6    6    0    0  0.18264925702E+02  0.23447744381E+02  0.14401672246E+04  0.14404738939E+04  0.00000000000E+00 0. -1.
         -5    1    3    3    0  503 -0.33548934828E+02 -0.35285793739E+02  0.74612039522E+02  0.89216953038E+02  0.47000000000E+01 0.  1.
         11    1    4    4    0    0 -0.32194144800E+02 -0.48458582698E+02  0.42363075126E+03  0.42760695810E+03  0.00000000000E+00 0. -1.
        -12    1    4    4    0    0  0.17247424105E+02  0.11527713727E+02  0.47134308969E+03  0.47179939595E+03  0.00000000000E+00 0.  1.
</event>
<event>
12    1  0.8451514E-002  0.1984865E+03  0.7818608E-02  0.1152292E+00
         21   -1    0    0  501  502  0.00000000000E+00  0.00000000000E+00  0.58943846827E+02  0.58943846827E+02  0.00000000000E+00 0. -1.
         21   -1    0    0  502  503 -0.00000000000E+00 -0.00000000000E+00 -0.30618319724E+04  0.30618319724E+04  0.00000000000E+00 0.  1.
         -6    2    1    2    0  503 -0.77700962611E+02  0.31534255239E+02 -0.28818823655E+04  0.28883123330E+04  0.17340794578E+03 0.  0.
        -24    2    3    3    0    0 -0.63819991167E+02  0.85078101497E+02 -0.17278444661E+04  0.17329400173E+04  0.79519366605E+02 0.  0.
          6    2    1    2  501    0  0.77700962611E+02 -0.31534255239E+02 -0.12100576003E+03  0.23246348616E+03  0.17990283376E+03 0.  0.
         24    2    5    5    0    0  0.12089994174E+02  0.27963721062E+02 -0.11519797918E+03  0.14357800545E+03  0.80099510523E+02 0.  0.
          5    1    5    5  501    0  0.65610968436E+02 -0.59497976301E+02 -0.58077808468E+01  0.88885480712E+02  0.47000000000E+01 0. -1.
        -13    1    6    6    0    0  0.36987275602E+01  0.39114486797E+01 -0.11784404219E+03  0.11796693730E+03  0.00000000000E+00 0.  1.
         14    1    6    6    0    0  0.83912666141E+01  0.24052272383E+02  0.26460630098E+01  0.25611068147E+02  0.00000000000E+00 0. -1.
         -5    1    3    3    0  503 -0.13880971443E+02 -0.53543846258E+02 -0.11540378994E+04  0.11553723158E+04  0.47000000000E+01 0.  1.
         11    1    4    4    0    0 -0.78435987822E+02  0.75934843839E+02 -0.16247815441E+04  0.16284450776E+04  0.00000000000E+00 0. -1.
        -12    1    4    4    0    0  0.14615996655E+02  0.91432576573E+01 -0.10306292207E+03  0.10449493970E+03  0.00000000000E+00 0.  1.
</event>
<event>
12    1  0.8451514E-002  0.2765055E+03  0.7818608E-02  0.1097767E+00
         21   -1    0    0  501  502  0.00000000000E+00  0.00000000000E+00  0.65441392949E+02  0.65441392949E+02  0.00000000000E+00 0.  1.
         21   -1    0    0  502  503 -0.00000000000E+00 -0.00000000000E+00 -0.22053650881E+04  0.22053650881E+04  0.00000000000E+00 0.  1.
         -6    2    1    2    0  503 -0.27888871316E+02  0.21439854447E+03 -0.18491787790E+04  0.18695735163E+04  0.17058268101E+03 0.  0.
        -24    2    3    3    0    0  0.18324822324E+02  0.38409623022E+02 -0.62346885092E+03  0.63042270877E+03  0.83116096012E+02 0.  0.
          6    2    1    2  501    0  0.27888871316E+02 -0.21439854447E+03 -0.29074491611E+03  0.40123296473E+03  0.17236809660E+03 0.  0.
         24    2    5    5    0    0  0.82682084054E+02 -0.13639910132E+03 -0.16253564513E+03  0.24140206515E+03  0.80100432317E+02 0.  0.
          5    1    5    5  501    0 -0.54793212738E+02 -0.77999443147E+02 -0.12820927098E+03  0.15983089958E+03  0.47000000000E+01 0. -1.
        -13    1    6    6    0    0  0.28132026573E+02 -0.11656627382E+03 -0.11806653914E+03  0.16828195023E+03  0.00000000000E+00 0.  1.
         14    1    6    6    0    0  0.54550057481E+02 -0.19832827505E+02 -0.44469105991E+02  0.73120114918E+02  0.00000000000E+00 0. -1.
         -5    1    3    3    0  503 -0.46213693640E+02  0.17598892145E+03 -0.12257099281E+04  0.12391508075E+04  0.47000000000E+01 0.  1.
         11    1    4    4    0    0  0.22356868160E+02  0.16722671871E+02 -0.56468173918E+02  0.62993110528E+02  0.00000000000E+00 0. -1.
        -12    1    4    4    0    0 -0.40320458365E+01  0.21686951151E+02 -0.56700067700E+03  0.56742959824E+03  0.00000000000E+00 0.  1.
</event>
<event>
12    1  0.8451514E-002  0.2078324E+03  0.7818608E-02  0.1143319E+00
         21   -1    0    0  501  502  0.00000000000E+00  0.00000000000E+00  0.20636702624E+03  0.20636702624E+03  0.00000000000E+00 0.  1.
         21   -1    0    0  502  503 -0.00000000000E+00 -0.00000000000E+00 -0.27399283802E+03  0.27399283802E+03  0.00000000000E+00 0.  1.
         -6    2    1    2    0  503  0.11670353734E+03  0.19697213227E+02 -0.15063027298E+03  0.25667833844E+03  0.17084084537E+03 0.  0.
        -24    2    3    3    0    0  0.49701208172E+01  0.56135913776E+01 -0.21808363095E+02  0.85506263494E+02  0.82337730639E+02 0.  0.
          6    2    1    2  501    0 -0.11670353734E+03 -0.19697213227E+02  0.83004461205E+02  0.22368152582E+03  0.17069267288E+03 0.  0.
         24    2    5    5    0    0 -0.10624872464E+03  0.26950369140E+02  0.10450317440E+03  0.17105468173E+03  0.79521549269E+02 0.  0.
          5    1    5    5  501    0 -0.10454812707E+02 -0.46647582367E+02 -0.21498713198E+02  0.52626844087E+02  0.47000000000E+01 0. -1.
        -13    1    6    6    0    0 -0.83735887767E+02  0.34322828612E+02  0.33992227481E+02  0.96670714248E+02  0.00000000000E+00 0.  1.
         14    1    6    6    0    0 -0.22512836869E+02 -0.73724594716E+01  0.70510946923E+02  0.74383967483E+02  0.00000000000E+00 0. -1.
         -5    1    3    3    0  503  0.11173341653E+03  0.14083621849E+02 -0.12882190989E+03  0.17117207494E+03  0.47000000000E+01 0.  1.
         13    1    4    4    0    0 -0.98326460039E+01 -0.12796650627E+02 -0.47760026533E+02  0.50412848850E+02  0.00000000000E+00 0. -1.
        -14    1    4    4    0    0  0.14802766821E+02  0.18410242005E+02  0.25951663438E+02  0.35093414645E+02  0.00000000000E+00 0.  1.
</event>
<event>
12    1  0.8451514E-002  0.2103673E+03  0.7818608E-02  0.1141676E+00
         21   -1    0    0  501  502  0.00000000000E+00  0.00000000000E+00  0.88152029231E+02  0.88152029231E+02  0.00000000000E+00 0. -1.
         21   -1    0    0  502  503 -0.00000000000E+00 -0.00000000000E+00 -0.58462250201E+03  0.58462250201E+03  0.00000000000E+00 0. -1.
         -6    2    1    2    0  503 -0.10485737996E+03 -0.51484616308E+02 -0.37728399382E+03  0.43098989356E+03  0.17252055097E+03 0.  0.
        -24    2    3    3    0    0 -0.12495629762E+03 -0.83536659961E+02 -0.31602614806E+03  0.35883787584E+03  0.79370303063E+02 0.  0.
          6    2    1    2  501    0  0.10485737996E+03  0.51484616308E+02 -0.11918647896E+03  0.24178463768E+03  0.17495330350E+03 0.  0.
         24    2    5    5    0    0  0.11483489372E+03  0.67301871333E+02 -0.43250812329E+02  0.16343891793E+03  0.84410025614E+02 0.  0.
          5    1    5    5  501    0 -0.99775137658E+01 -0.15817255026E+02 -0.75935666629E+02  0.78345719755E+02  0.47000000000E+01 0. -1.
        -11    1    6    6    0    0  0.37992249825E+02  0.59871309473E+02 -0.48738325540E+02  0.86043065504E+02  0.00000000000E+00 0.  1.
         12    1    6    6    0    0  0.76842643899E+02  0.74305618602E+01  0.54875132108E+01  0.77395852423E+02  0.00000000000E+00 0. -1.
         -5    1    3    3    0  503  0.20098917660E+02  0.32052043654E+02 -0.61257845755E+02  0.72152017713E+02  0.47000000000E+01 0.  1.
         13    1    4    4    0    0 -0.76396896859E+02 -0.19324675274E+02 -0.21908715606E+03  0.23282850099E+03  0.00000000000E+00 0. -1.
        -14    1    4    4    0    0 -0.48559400760E+02 -0.64211984687E+02 -0.96938992000E+02  0.12600937485E+03  0.00000000000E+00 0.  1.
</event>
<event>
12    1  0.8451514E-002  0.1801553E+03  0.7818608E-02  0.1167734E+00
         21   -1    0    0  503  502  0.00000000000E+00  0.00000000000E+00  0.16155117743E+03  0.16155117743E+03  0.00000000000E+00 0. -1.
         21   -1    0    0  501  503 -0.00000000000E+00 -0.00000000000E+00 -0.27193456117E+03  0.27193456117E+03  0.00000000000E+00 0. -1.
          6    2    1    2  501    0  0.50102447165E+02  0.77396163865E+01 -0.16621864639E+03  0.24487635844E+03  0.17252720262E+03 0.  0.
         24    2    3    3    0    0  0.28562890181E+02  0.68064462824E+02 -0.68443356655E+02  0.12789286860E+03  0.78889054843E+02 0.  0.
         -6    2    1    2    0  502 -0.50102447165E+02 -0.77396163865E+01  0.55835262654E+02  0.18860938016E+03  0.17287499777E+03 0.  0.
        -24    2    5    5    0    0  0.14173844620E+02  0.32852774100E+02 -0.96538136367E+01  0.88159925384E+02  0.79992335187E+02 0.  0.
          5    1    3    3  501    0  0.21539556984E+02 -0.60324846437E+02 -0.97775289736E+02  0.11698348984E+03  0.47000000000E+01 0. -1.
        -11    1    4    4    0    0 -0.19877757319E+02  0.28484810503E+02 -0.53154389077E+02  0.63497234141E+02  0.00000000000E+00 0.  1.
         12    1    4    4    0    0  0.48440647500E+02  0.39579652321E+02 -0.15288967578E+02  0.64395634461E+02  0.00000000000E+00 0. -1.
         -5    1    5    5    0  502 -0.64276291786E+02 -0.40592390487E+02  0.65489076291E+02  0.10044945478E+03  0.47000000000E+01 0.  1.
         13    1    6    6    0    0 -0.31497330906E+02  0.62957502321E+01 -0.14229181171E+02  0.35131010830E+02  0.00000000000E+00 0. -1.
        -14    1    6    6    0    0  0.45671175526E+02  0.26557023868E+02  0.45753675341E+01  0.53028914554E+02  0.00000000000E+00 0.  1.
</event>
<event>
12    1  0.8451514E-002  0.1854847E+03  0.7818608E-02  0.1163711E+00
         21   -1    0    0  501  502  0.00000000000E+00  0.00000000000E+00  0.17327241358E+03  0.17327241358E+03  0.00000000000E+00 0. -1.
         21   -1    0    0  502  503 -0.00000000000E+00 -0.00000000000E+00 -0.59408103910E+03  0.59408103910E+03  0.00000000000E+00 0. -1.
         -6    2    1    2    0  503 -0.45145421098E+02  0.30382644693E+02 -0.52631861464E+03  0.55804646954E+03  0.17732276758E+03 0.  0.
        -24    2    3    3    0    0 -0.77653482142E+00  0.58397969535E+02 -0.47304230869E+03  0.48312043087E+03  0.78901198058E+02 0.  0.
          6    2    1    2  501    0  0.45145421098E+02 -0.30382644693E+02  0.10550998912E+03  0.20930698314E+03  0.17238283338E+03 0.  0.
         24    2    5    5    0    0  0.55158402455E+02 -0.41917009113E+02  0.42283152473E+01  0.10677226307E+03  0.81135396076E+02 0.  0.
          5    1    5    5  501    0 -0.10012981358E+02  0.11534364420E+02  0.10128167387E+03  0.10253472007E+03  0.47000000000E+01 0. -1.
        -13    1    6    6    0    0  0.34930477967E+02  0.20068603545E+02  0.93922053966E+01  0.41365452512E+02  0.00000000000E+00 0.  1.
         14    1    6    6    0    0  0.20227924488E+02 -0.61985612658E+02 -0.51638901493E+01  0.65406810556E+02  0.00000000000E+00 0. -1.
         -5    1    3    3    0  503 -0.44368886276E+02 -0.28015324842E+02 -0.53276305946E+02  0.74926038669E+02  0.47000000000E+01 0.  1.
         11    1    4    4    0    0 -0.11009393884E+02  0.74520981374E+02 -0.31272807998E+03  0.32167287020E+03  0.00000000000E+00 0. -1.
        -12    1    4    4    0    0  0.10232859062E+02 -0.16123011839E+02 -0.16031422872E+03  0.16144756066E+03  0.00000000000E+00 0.  1.
</event>
<event>
12    1  0.8451514E-002  0.2640617E+03  0.7818608E-02  0.1104766E+00
         21   -1    0    0  503  502  0.00000000000E+00  0.00000000000E+00  0.13947703642E+03  0.13947703642E+03  0.00000000000E+00 0.  1.
         21   -1    0    0  501  503 -0.00000000000E+00 -0.00000000000E+00 -0.10392824782E+04  0.10392824782E+04  0.00000000000E+00 0.  1.
          6    2    1    2  501    0 -0.12660107400E+03 -0.15435736705E+03 -0.87457661317E+03  0.91349535938E+03  0.17243981737E+03 0.  0.
         24    2    3    3    0    0 -0.12581386468E+03 -0.65113269302E+02 -0.68285428563E+03  0.70196600076E+03  0.79983901134E+02 0.  0.
         -6    2    1    2    0  502  0.12660107400E+03  0.15435736705E+03 -0.25228828661E+02  0.26526415528E+03  0.17284255721E+03 0.  0.
        -24    2    5    5    0    0  0.54275208740E+02  0.15773355366E+03  0.70865419042E+01  0.18583618416E+03  0.81603897182E+02 0.  0.
          5    1    3    3  501    0 -0.78720931764E+00 -0.89244097747E+02 -0.19172232754E+03  0.21152935862E+03  0.47000000000E+01 0. -1.
        -11    1    4    4    0    0 -0.83228308505E+02  0.15240129114E+01 -0.37345964155E+03  0.38262432988E+03  0.00000000000E+00 0.  1.
         12    1    4    4    0    0 -0.42585556174E+02 -0.66637282214E+02 -0.30939464407E+03  0.31934167088E+03  0.00000000000E+00 0. -1.
         -5    1    5    5    0  502  0.72325865256E+02 -0.33761866063E+01 -0.32315370565E+02  0.79427971117E+02  0.47000000000E+01 0.  1.
         11    1    6    6    0    0 -0.25612640445E+01  0.16886145438E+02 -0.25313081751E+02  0.30536111228E+02  0.00000000000E+00 0. -1.
        -12    1    6    6    0    0  0.56836472785E+02  0.14084740822E+03  0.32399623655E+02  0.15530007293E+03  0.00000000000E+00 0.  1.
</event>
<event>
12    1  0.8451514E-002  0.1763361E+03  0.7818608E-02  0.1173072E+00
         21   -1    0    0  503  502  0.00000000000E+00  0.00000000000E+00  0.13195300444E+03  0.13195300444E+03  0.00000000000E+00 0.  1.
         21   -1    0    0  501  503 -0.00000000000E+00 -0.00000000000E+00 -0.48815349572E+03  0.48815349572E+03  0.00000000000E+00 0.  1.
          6    2    1    2  501    0 -0.13078230068E+02 -0.10781098136E+02 -0.40648302825E+03  0.44308337770E+03  0.17551967170E+03 0.  0.
         24    2    3    3    0    0  0.67750748276E+01 -0.42492377555E+02 -0.39266962590E+03  0.40292545143E+03  0.79422795936E+02 0.  0.
         -6    2    1    2    0  502  0.13078230068E+02  0.10781098136E+02  0.50282536971E+02  0.17702312247E+03  0.16888333306E+03 0.  0.
        -24    2    5    5    0    0  0.18310161654E+02 -0.88399053323E+00 -0.36193177635E+02  0.89481208971E+02  0.79755233011E+02 0.  0.
          5    1    3    3  501    0 -0.19853304895E+02  0.31711279419E+02 -0.13813402354E+02  0.40157926270E+02  0.47000000000E+01 0. -1.
        -11    1    4    4    0    0 -0.11692786299E+01 -0.55737014344E+02 -0.15441148683E+03  0.16416725997E+03  0.00000000000E+00 0.  1.
         12    1    4    4    0    0  0.79443534575E+01  0.13244636789E+02 -0.23825813907E+03  0.23875819146E+03  0.00000000000E+00 0. -1.
         -5    1    5    5    0  502 -0.52319315860E+01  0.11665088669E+02  0.86475714606E+02  0.87541913495E+02  0.47000000000E+01 0.  1.
         13    1    6    6    0    0 -0.20354221655E+01 -0.26646875068E+02 -0.47715658676E+02  0.54689880025E+02  0.00000000000E+00 0. -1.
        -14    1    6    6    0    0  0.20345583819E+02  0.25762884534E+02  0.11522481042E+02  0.34791328946E+02  0.00000000000E+00 0.  1.
</event>
<event>
12    1  0.8451514E-002  0.1981488E+03  0.7818608E-02  0.1151943E+00
         21   -1    0    0  501  502  0.00000000000E+00  0.00000000000E+00  0.23263499792E+03  0.23263499792E+03  0.00000000000E+00 0. -1.
         21   -1    0    0  502  503 -0.00000000000E+00 -0.00000000000E+00 -0.44087615758E+03  0.44087615758E+03  0.00000000000E+00 0.  1.
         -6    2    1    2    0  503 -0.94388745205E+02 -0.18411968513E+02 -0.37018002424E+03  0.41987642807E+03  0.17324759361E+03 0.  0.
        -24    2    3    3    0    0 -0.29182331603E+02 -0.30628265255E+02 -0.73785367937E+02  0.11611172214E+03  0.79043990195E+02 0.  0.
          6    2    1    2  501    0  0.94388745205E+02  0.18411968513E+02  0.16193886458E+03  0.25363472743E+03  0.16987684741E+03 0.  0.
         24    2    5    5    0    0  0.80706409044E+02 -0.39491503979E+02  0.15068173869E+03  0.19289897739E+03  0.80199287743E+02 0.  0.
          5    1    5    5  501    0  0.13682336161E+02  0.57903472492E+02  0.11257125894E+02  0.60735750039E+02  0.47000000000E+01 0. -1.
        -13    1    6    6    0    0  0.13383332073E+02  0.36061066728E+01 -0.74320008022E+01  0.15727435221E+02  0.00000000000E+00 0.  1.
         14    1    6    6    0    0  0.67323076971E+02 -0.43097610651E+02  0.15811373949E+03  0.17717154217E+03  0.00000000000E+00 0. -1.
         -5    1    3    3    0  503 -0.65206413602E+02  0.12216296741E+02 -0.29639465631E+03  0.30376470593E+03  0.47000000000E+01 0.  1.
         11    1    4    4    0    0  0.77260253338E+01 -0.42732614789E+02 -0.61666951474E+02  0.75422680529E+02  0.00000000000E+00 0. -1.
        -12    1    4    4    0    0 -0.36908356937E+02  0.12104349534E+02 -0.12118416463E+02  0.40689041608E+02  0.00000000000E+00 0.  1.
</event>
<event>
12    1  0.8451514E-002  0.1916196E+03  0.7818608E-02  0.1161248E+00
         21   -1    0    0  501  502  0.00000000000E+00  0.00000000000E+00  0.32212197825E+03  0.32212197825E+03  0.00000000000E+00 0. -1.
         21   -1    0    0  502  503 -0.00000000000E+00 -0.00000000000E+00 -0.12020942176E+03  0.12020942176E+03  0.00000000000E+00 0. -1.
         -6    2    1    2    0  503 -0.14049943070E+02  0.45408219100E+01  0.14324220214E+02  0.17417573492E+03  0.17295659394E+03 0.  0.
        -24    2    3    3    0    0 -0.18258519125E+02  0.29591267784E+02 -0.53132945000E+02  0.10194142113E+03  0.79749149510E+02 0.  0.
          6    2    1    2  501    0  0.14049943070E+02 -0.45408219100E+01  0.18758833628E+03  0.26815566509E+03  0.19104988052E+03 0.  0.
         24    2    5    5    0    0  0.64026684041E+02  0.36801769662E+01  0.39181550641E+02  0.11127378760E+03  0.82059136747E+02 0.  0.
          5    1    5    5  501    0 -0.49976740970E+02 -0.82209988761E+01  0.14840678564E+03  0.15688187749E+03  0.47000000000E+01 0. -1.
        -13    1    6    6    0    0 -0.11150856185E+02 -0.18565346626E+02  0.22283518897E+02  0.31073604610E+02  0.00000000000E+00 0.  1.
         14    1    6    6    0    0  0.75177540226E+02  0.22245523592E+02  0.16898031744E+02  0.80200182987E+02  0.00000000000E+00 0. -1.
         -5    1    3    3    0  503  0.42085760544E+01 -0.25050445874E+02  0.67457165214E+02  0.72234313796E+02  0.47000000000E+01 0.  1.
         11    1    4    4    0    0 -0.50012271851E+02  0.18599583950E+02 -0.34071950905E+02  0.63309317618E+02  0.00000000000E+00 0. -1.
        -12    1    4    4    0    0  0.31753752726E+02  0.10991683834E+02 -0.19060994095E+02  0.38632103510E+02  0.00000000000E+00 0.  1.
</event>
<event>
12    1  0.8451514E-002  0.1763275E+03  0.7818608E-02  0.1171813E+00
         21   -1    0    0  503  502  0.00000000000E+00  0.00000000000E+00  0.31125345507E+02  0.31125345507E+02  0.00000000000E+00 0. -1.
         21   -1    0    0  501  503 -0.00000000000E+00 -0.00000000000E+00 -0.15977413084E+04  0.15977413084E+04  0.00000000000E+00 0. -1.
          6    2    1    2  501    0  0.21465984906E+02 -0.31627248549E+02 -0.12879953412E+04  0.13000089929E+04  0.17213457326E+03 0.  0.
         24    2    3    3    0    0 -0.52227664978E+02 -0.17926131508E+02 -0.89521876711E+03  0.90011650510E+03  0.75789224806E+02 0.  0.
         -6    2    1    2    0  502 -0.21465984906E+02  0.31627248549E+02 -0.27862062175E+03  0.32885766106E+03  0.17046066706E+03 0.  0.
        -24    2    5    5    0    0 -0.73292702809E+02  0.48230954497E+02 -0.16876404666E+03  0.20617005439E+03  0.79540823648E+02 0.  0.
          5    1    3    3  501    0  0.73693649885E+02 -0.13701117041E+02 -0.39277657408E+03  0.39989248778E+03  0.47000000000E+01 0. -1.
        -11    1    4    4    0    0 -0.13516382080E+02  0.28696504962E+02 -0.38695694536E+03  0.38825488992E+03  0.00000000000E+00 0.  1.
         12    1    4    4    0    0 -0.38711282898E+02 -0.46622636470E+02 -0.50826182175E+03  0.51186161519E+03  0.00000000000E+00 0. -1.
         -5    1    5    5    0  502  0.51826717902E+02 -0.16603705948E+02 -0.10985657509E+03  0.12268760667E+03  0.47000000000E+01 0.  1.
         11    1    6    6    0    0 -0.12280944237E+02  0.55520838376E+02 -0.85711415515E+02  0.10285830951E+03  0.00000000000E+00 0. -1.
        -12    1    6    6    0    0 -0.61011758572E+02 -0.72898838789E+01 -0.83052631147E+02  0.10331174489E+03  0.00000000000E+00 0.  1.
</event>
<event>
12    1  0.8451514E-002  0.2260346E+03  0.7818608E-02  0.1129732E+00
         21   -1    0    0  503  502  0.00000000000E+00  0.00000000000E+00  0.33807757705E+03  0.33807757705E+03  0.00000000000E+00 0.  1.
         21   -1    0    0  501  503 -0.00000000000E+00 -0.00000000000E+00 -0.25411044474E+03  0.25411044474E+03  0.00000000000E+00 0.  1.
          6    2    1    2  501    0  0.13038652978E+03  0.64465502455E+02 -0.14750502025E+03  0.26865901858E+03  0.17106574500E+03 0.  0.
         24    2    3    3    0    0  0.75536534337E+02  0.45148326098E+02 -0.16887542050E+03  0.20652642400E+03  0.79938206081E+02 0.  0.
         -6    2    1    2    0  502 -0.13038652978E+03 -0.64465502455E+02  0.23147215257E+03  0.32352900321E+03  0.17301794806E+03 0.  0.
        -24    2    5    5    0    0 -0.16029972379E+03 -0.41869078103E+02  0.16707974504E+03  0.24887064991E+03  0.81067490639E+02 0.  0.
          5    1    3    3  501    0  0.54849995443E+02  0.19317176357E+02  0.21370400251E+02  0.62132594581E+02  0.47000000000E+01 0. -1.
        -11    1    4    4    0    0  0.47530339614E+02 -0.98204825781E+01 -0.11422794603E+03  0.12411123525E+03  0.00000000000E+00 0.  1.
         12    1    4    4    0    0  0.28006194724E+02  0.54968808676E+02 -0.54647474475E+02  0.82415188750E+02  0.00000000000E+00 0. -1.
         -5    1    5    5    0  502  0.29913194012E+02 -0.22596424352E+02  0.64392407532E+02  0.74658353298E+02  0.47000000000E+01 0.  1.
         11    1    6    6    0    0 -0.12293817865E+02  0.20443503126E+02  0.21054492815E+02  0.31817706477E+02  0.00000000000E+00 0. -1.
        -12    1    6    6    0    0 -0.14800590593E+03 -0.62312581229E+02  0.14602525222E+03  0.21705294344E+03  0.00000000000E+00 0.  1.
</event>
<event>
12    1  0.8451514E-002  0.2284726E+03  0.7818608E-02  0.1127797E+00
         21   -1    0    0  501  502  0.00000000000E+00  0.00000000000E+00  0.69803222208E+03  0.69803222208E+03  0.00000000000E+00 0. -1.
         21   -1    0    0  502  503 -0.00000000000E+00 -0.00000000000E+00 -0.80850348594E+02  0.80850348594E+02  0.00000000000E+00 0. -1.
         -6    2    1    2    0  503  0.14869682547E+03 -0.25464440228E+02  0.41681115908E+03  0.47532228832E+03  0.17158249275E+03 0.  0.
        -24    2    3    3    0    0  0.17365070178E+03 -0.10961386117E+02  0.37165978669E+03  0.42152850662E+03  0.96335697603E+02 0.  0.
          6    2    1    2  501    0 -0.14869682547E+03  0.25464440228E+02  0.20037071440E+03  0.30356028235E+03  0.17100069653E+03 0.  0.
         24    2    5    5    0    0 -0.74909841556E+02 -0.47993814938E+02  0.13178924621E+03  0.17879593638E+03  0.81759958510E+02 0.  0.
          5    1    5    5  501    0 -0.73786983912E+02  0.73458255166E+02  0.68581468198E+02  0.12476434598E+03  0.47000000000E+01 0. -1.
        -11    1    6    6    0    0  0.16610627130E+02 -0.14805549615E+02  0.35301258607E+02  0.41728840054E+02  0.00000000000E+00 0.  1.
         12    1    6    6    0    0 -0.91520468687E+02 -0.33188265323E+02  0.96487987598E+02  0.13706709632E+03  0.00000000000E+00 0. -1.
         -5    1    3    3    0  503 -0.24953876308E+02 -0.14503054111E+02  0.45151372387E+02  0.53793781702E+02  0.47000000000E+01 0.  1.
         11    1    4    4    0    0  0.73490113177E+02  0.85633135786E+01  0.65516678215E+02  0.98825918657E+02  0.00000000000E+00 0. -1.
        -12    1    4    4    0    0  0.10016058860E+03 -0.19524699696E+02  0.30614310848E+03  0.32270258796E+03  0.00000000000E+00 0.  1.
</event>
<event>
12    1  0.8451514E-002  0.1766672E+03  0.7818608E-02  0.1171201E+00
         21   -1    0    0  503  502  0.00000000000E+00  0.00000000000E+00  0.31431875033E+03  0.31431875033E+03  0.00000000000E+00 0.  1.
         21   -1    0    0  501  503 -0.00000000000E+00 -0.00000000000E+00 -0.12599661968E+03  0.12599661968E+03  0.00000000000E+00 0.  1.
          6    2    1    2  501    0  0.33734655206E+02 -0.11703757015E+02 -0.78628771344E+01  0.17630807045E+03  0.17247523294E+03 0.  0.
         24    2    3    3    0    0  0.66471867192E+02  0.36875060433E+02  0.19100353246E+02  0.11164948752E+03  0.79514183391E+02 0.  0.
         -6    2    1    2    0  502 -0.33734655206E+02  0.11703757015E+02  0.19618500779E+03  0.26400729957E+03  0.17302107402E+03 0.  0.
        -24    2    5    5    0    0  0.41286904976E+02  0.36462974315E+02  0.10085787225E+03  0.14010973662E+03  0.80151549479E+02 0.  0.
          5    1    3    3  501    0 -0.32737211987E+02 -0.48578817449E+02 -0.26963230380E+02  0.64658582926E+02  0.47000000000E+01 0. -1.
        -11    1    4    4    0    0  0.27380931987E+02  0.27905435014E+02 -0.29252685563E+02  0.48827741628E+02  0.00000000000E+00 0.  1.
         12    1    4    4    0    0  0.39090935205E+02  0.89696254198E+01  0.48353038809E+02  0.62821745896E+02  0.00000000000E+00 0. -1.
         -5    1    5    5    0  502 -0.75021560182E+02 -0.24759217299E+02  0.95327135539E+02  0.12389756294E+03  0.47000000000E+01 0.  1.
         11    1    6    6    0    0  0.55314071522E+02  0.87628020312E+00  0.77742113954E+02  0.95416197039E+02  0.00000000000E+00 0. -1.
        -12    1    6    6    0    0 -0.14027166545E+02  0.35586694112E+02  0.23115758294E+02  0.44693539585E+02  0.00000000000E+00 0.  1.
</event>
<event>
12    1  0.8451514E-002  0.2175736E+03  0.7818608E-02  0.1135923E+00
         21   -1    0    0  501  502  0.00000000000E+00  0.00000000000E+00  0.16016893790E+04  0.16016893790E+04  0.00000000000E+00 0.  1.
         21   -1    0    0  502  503 -0.00000000000E+00 -0.00000000000E+00 -0.30858487283E+02  0.30858487283E+02  0.00000000000E+00 0. -1.
         -6    2    1    2    0  503 -0.13339031846E+03 -0.62600784156E+01  0.96094565787E+03  0.98501542161E+03  0.17031341048E+03 0.  0.
        -24    2    3    3    0    0 -0.22819177211E+02  0.40377546159E+02  0.51278801632E+03  0.52104515642E+03  0.79908974857E+02 0.  0.
          6    2    1    2  501    0  0.13339031846E+03  0.62600784156E+01  0.60988523386E+03  0.64753244468E+03  0.17177340539E+03 0.  0.
         24    2    5    5    0    0  0.84968344971E+02 -0.37877141413E+02  0.53774759750E+03  0.54996856679E+03  0.68107623293E+02 0.  0.
          5    1    5    5  501    0  0.48421973486E+02  0.44137219829E+02  0.72137636359E+02  0.97563877895E+02  0.47000000000E+01 0. -1.
        -13    1    6    6    0    0 -0.69940306660E+01 -0.20510576938E+02  0.10665535320E+03  0.10883457446E+03  0.00000000000E+00 0.  1.
         14    1    6    6    0    0  0.91962375637E+02 -0.17366564475E+02  0.43109224430E+03  0.44113399233E+03  0.00000000000E+00 0. -1.
         -5    1    3    3    0  503 -0.11057114125E+03 -0.46637624575E+02  0.44815764155E+03  0.46397026519E+03  0.47000000000E+01 0.  1.
         11    1    4    4    0    0  0.26284322298E+02 -0.28211489351E+01  0.12301599417E+03  0.12582431920E+03  0.00000000000E+00 0. -1.
        -12    1    4    4    0    0 -0.49103499510E+02  0.43198695095E+02  0.38977202215E+03  0.39522083722E+03  0.00000000000E+00 0.  1.
</event>
<event>
12    1  0.8451514E-002  0.2183130E+03  0.7818608E-02  0.1136515E+00
         21   -1    0    0  503  502  0.00000000000E+00  0.00000000000E+00  0.20909886588E+03  0.20909886588E+03  0.00000000000E+00 0. -1.
         21   -1    0    0  501  503 -0.00000000000E+00 -0.00000000000E+00 -0.25793204615E+03  0.25793204615E+03  0.00000000000E+00 0.  1.
          6    2    1    2  501    0  0.26818240012E+02  0.11630085666E+03 -0.11366030329E+03  0.24612850727E+03  0.18279898875E+03 0.  0.
         24    2    3    3    0    0  0.69738977591E+02  0.99486017155E+02 -0.29578062226E+02  0.15012412297E+03  0.83074652744E+02 0.  0.
         -6    2    1    2    0  502 -0.26818240012E+02 -0.11630085666E+03  0.64827123016E+02  0.22090240477E+03  0.17421311460E+03 0.  0.
        -24    2    5    5    0    0 -0.24139894274E+02  0.45812007891E+01  0.62019164697E+01  0.86445533653E+02  0.82647713969E+02 0.  0.
          5    1    3    3  501    0 -0.42920737579E+02  0.16814839500E+02 -0.84082241061E+02  0.96004384293E+02  0.47000000000E+01 0. -1.
        -11    1    4    4    0    0 -0.17647855863E+01 -0.15557475268E+01 -0.26189307399E+02  0.26294764508E+02  0.00000000000E+00 0.  1.
         12    1    4    4    0    0  0.71503763177E+02  0.10104176468E+03 -0.33887548279E+01  0.12382935847E+03  0.00000000000E+00 0. -1.
         -5    1    5    5    0  502 -0.26783457382E+01 -0.12088205744E+03  0.58625206546E+02  0.13445687112E+03  0.47000000000E+01 0.  1.
         13    1    6    6    0    0  0.29003569395E+01 -0.95000071748E+00  0.41514467837E+02  0.41626501313E+02  0.00000000000E+00 0. -1.
        -14    1    6    6    0    0 -0.27040251214E+02  0.55312015065E+01 -0.35312551367E+02  0.44819032340E+02  0.00000000000E+00 0.  1.
</event>
<event>
12    1  0.8451514E-002  0.1758529E+03  0.7818608E-02  0.1172462E+00
         21   -1    0    0  501  502  0.00000000000E+00  0.00000000000E+00  0.11864455085E+04  0.11864455085E+04  0.00000000000E+00 0. -1.
         21   -1    0    0  502  503 -0.00000000000E+00 -0.00000000000E+00 -0.30616118068E+02  0.30616118068E+02  0.00000000000E+00 0. -1.
         -6    2    1    2    0  503  0.53271036698E+01  0.30797002339E+02  0.33783072286E+03  0.38085934536E+03  0.17305320064E+03 0.  0.
        -24    2    3    3    0    0 -0.60090885759E+02  0.42838607260E+02  0.21576954961E+03  0.24177112298E+03  0.80316352908E+02 0.  0.
          6    2    1    2  501    0 -0.53271036698E+01 -0.30797002339E+02  0.81799866762E+03  0.83620228125E+03  0.17069153922E+03 0.  0.
         24    2    5    5    0    0  0.38182358955E+02  0.25510296761E+02  0.34663995532E+03  0.35947939431E+03  0.83411681063E+02 0.  0.
          5    1    5    5  501    0 -0.43509462625E+02 -0.56307299100E+02  0.47135871230E+03  0.47672288694E+03  0.47000000000E+01 0. -1.
        -11    1    6    6    0    0  0.52803509381E+02 -0.42837485728E+01  0.13110082279E+03  0.14140009491E+03  0.00000000000E+00 0.  1.
         12    1    6    6    0    0 -0.14621150426E+02  0.29794045334E+02  0.21553913253E+03  0.21807929940E+03  0.00000000000E+00 0. -1.
         -5    1    3    3    0  503  0.65417989428E+02 -0.12041604921E+02  0.12206117325E+03  0.13908822238E+03  0.47000000000E+01 0.  1.
         13    1    4    4    0    0 -0.30705451093E+02  0.29923652858E+02  0.27841141293E+02  0.51121217471E+02  0.00000000000E+00 0. -1.
        -14    1    4    4    0    0 -0.29385434666E+02  0.12914954402E+02  0.18792840832E+03  0.19064990551E+03  0.00000000000E+00 0.  1.
</event>
<event>
12    1  0.8451514E-002  0.1786526E+03  0.7818608E-02  0.1169345E+00
         21   -1    0    0  503  502  0.00000000000E+00  0.00000000000E+00  0.15387877458E+03  0.15387877458E+03  0.00000000000E+00 0. -1.
         21   -1    0    0  501  503 -0.00000000000E+00 -0.00000000000E+00 -0.22189533478E+03  0.22189533478E+03  0.00000000000E+00 0. -1.
          6    2    1    2  501    0  0.46283385446E+02 -0.67204610985E+01 -0.83700973325E+02  0.19643437201E+03  0.17144472347E+03 0.  0.
         24    2    3    3    0    0 -0.42147895996E+02 -0.47095621783E+01 -0.50743530924E+02  0.10192290043E+03  0.77554797323E+02 0.  0.
         -6    2    1    2    0  502 -0.46283385446E+02  0.67204610985E+01  0.15684413124E+02  0.17933973735E+03  0.17242222657E+03 0.  0.
        -24    2    5    5    0    0  0.17865931795E+02 -0.34337813504E+02  0.41486010615E+02  0.98787088430E+02  0.80867316071E+02 0.  0.
          5    1    3    3  501    0  0.88431281442E+02 -0.20108989202E+01 -0.32957442400E+02  0.94511471587E+02  0.47000000000E+01 0. -1.
        -13    1    4    4    0    0 -0.10416160240E+02  0.33884976836E+02 -0.84051683641E+01  0.36432607710E+02  0.00000000000E+00 0.  1.
         14    1    4    4    0    0 -0.31731735756E+02 -0.38594539014E+02 -0.42338362560E+02  0.65490292716E+02  0.00000000000E+00 0. -1.
         -5    1    5    5    0  502 -0.64149317241E+02  0.41058274602E+02 -0.25801597491E+02  0.80552648925E+02  0.47000000000E+01 0.  1.
         11    1    6    6    0    0 -0.13620191302E+02  0.21537534443E+02  0.10559807461E+02  0.27584135560E+02  0.00000000000E+00 0. -1.
        -12    1    6    6    0    0  0.31486123096E+02 -0.55875347947E+02  0.30926203154E+02  0.71202952869E+02  0.00000000000E+00 0.  1.
</event>
<event>
12    1  0.8451514E-002  0.1988909E+03  0.7818608E-02  0.1150750E+00
         21   -1    0    0  503  502  0.00000000000E+00  0.00000000000E+00  0.13435543878E+04  0.13435543878E+04  0.00000000000E+00 0.  1.
         21   -1    0    0  501  503 -0.00000000000E+00 -0.00000000000E+00 -0.55033481825E+02  0.55033481825E+02  0.00000000000E+00 0.  1.
          6    2    1    2  501    0 -0.87119819950E+02  0.48374544455E+02  0.16663847454E+03  0.25921182054E+03  0.17173359348E+03 0.  0.
         24    2    3    3    0    0 -0.39880601529E+02  0.76887731740E+02  0.46727002323E+02  0.12713079701E+03  0.80477581551E+02 0.  0.
         -6    2    1    2    0  502  0.87119819950E+02 -0.48374544455E+02  0.11218824314E+04  0.11393760491E+04  0.17212678960E+03 0.  0.
        -24    2    5    5    0    0  0.89576851906E+02  0.80002258435E+01  0.46777535500E+03  0.48282269316E+03  0.78841323426E+02 0.  0.
          5    1    3    3  501    0 -0.47239218421E+02 -0.28513187285E+02  0.11991147222E+03  0.13208102353E+03  0.47000000000E+01 0. -1.
        -11    1    4    4    0    0 -0.53008486608E+02  0.28710868999E+02  0.23542314284E+01  0.60330390822E+02  0.00000000000E+00 0.  1.
         12    1    4    4    0    0  0.13127885079E+02  0.48176862741E+02  0.44372770894E+02  0.66800406189E+02  0.00000000000E+00 0. -1.
         -5    1    5    5    0  502 -0.24570319559E+01 -0.56374770299E+02  0.65410707644E+03  0.65655335592E+03  0.47000000000E+01 0.  1.
         13    1    6    6    0    0 -0.93934393904E+01 -0.41071351524E+00  0.77161867869E+01  0.12163261393E+02  0.00000000000E+00 0. -1.
        -14    1    6    6    0    0  0.98970291296E+02  0.84109393588E+01  0.46005916821E+03  0.47065943177E+03  0.00000000000E+00 0.  1.
</event>
<event>
12    1  0.8451514E-002  0.1813948E+03  0.7818608E-02  0.1166865E+00
         21   -1    0    0  503  502  0.00000000000E+00  0.00000000000E+00  0.35975055003E+03  0.35975055003E+03  0.00000000000E+00 0. -1.
         21   -1    0    0  501  503 -0.00000000000E+00 -0.00000000000E+00 -0.11947161877E+03  0.11947161877E+03  0.00000000000E+00 0. -1.
          6    2    1    2  501    0 -0.24217068310E+02 -0.49680757799E+02  0.19583789706E+01  0.17972132041E+03  0.17100080020E+03 0.  0.
         24    2    3    3    0    0 -0.42161870824E+02  0.26638436433E+02 -0.24718316210E+02  0.96773316144E+02  0.79163437989E+02 0.  0.
         -6    2    1    2    0  502  0.24217068310E+02  0.49680757799E+02  0.23832055230E+03  0.29950084840E+03  0.17276987136E+03 0.  0.
        -24    2    5    5    0    0 -0.44636057621E+01  0.64767388434E+02  0.24499931514E+03  0.26608104345E+03  0.80992091485E+02 0.  0.
          5    1    3    3  501    0  0.17944802513E+02 -0.76319194232E+02  0.26676695181E+02  0.82948004263E+02  0.47000000000E+01 0. -1.
        -13    1    4    4    0    0 -0.22615936794E+02 -0.65543681770E+01  0.24693714115E+02  0.34120666114E+02  0.00000000000E+00 0.  1.
         14    1    4    4    0    0 -0.19545934030E+02  0.33192804610E+02 -0.49412030325E+02  0.62652650030E+02  0.00000000000E+00 0. -1.
         -5    1    5    5    0  502  0.28680674072E+02 -0.15086630635E+02 -0.66787628489E+01  0.33419804942E+02  0.47000000000E+01 0.  1.
         13    1    6    6    0    0 -0.21602302148E+02 -0.72121226068E+01  0.10802368183E+03  0.11039832429E+03  0.00000000000E+00 0. -1.
        -14    1    6    6    0    0  0.17138696386E+02  0.71979511040E+02  0.13697563332E+03  0.15568271916E+03  0.00000000000E+00 0.  1.
</event>
<event>
12    1  0.8451514E-002  0.1823337E+03  0.7818608E-02  0.1166173E+00
         21   -1    0    0  501  502  0.00000000000E+00  0.00000000000E+00  0.27651317893E+04  0.27651317893E+04  0.00000000000E+00 0. -1.
         21   -1    0    0  502  503 -0.00000000000E+00 -0.00000000000E+00 -0.19359670374E+02  0.19359670374E+02  0.00000000000E+00 0. -1.
         -6    2    1    2    0  503 -0.56776649331E+02 -0.66799777995E+01  0.50023982345E+03  0.53156872457E+03  0.17046177860E+03 0.  0.
        -24    2    3    3    0    0 -0.34454872690E+02  0.32050389949E+02  0.46645018639E+03  0.47533588122E+03  0.78447803319E+02 0.  0.
          6    2    1    2  501    0  0.56776649331E+02  0.66799777995E+01  0.22455322954E+04  0.22529227351E+04  0.17313968439E+03 0.  0.
         24    2    5    5    0    0 -0.45616059887E+01 -0.49799892193E+01  0.19013922001E+04  0.19031330388E+04  0.81101517988E+02 0.  0.
          5    1    5    5  501    0  0.61338255319E+02  0.11659967019E+02  0.34414009536E+03  0.34978969629E+03  0.47000000000E+01 0. -1.
        -13    1    6    6    0    0  0.55919844217E+01  0.37362511918E+02  0.92005158782E+03  0.92082688484E+03  0.00000000000E+00 0.  1.
         14    1    6    6    0    0 -0.10153590410E+02 -0.42342501137E+02  0.98134061226E+03  0.98230615394E+03  0.00000000000E+00 0. -1.
         -5    1    3    3    0  503 -0.22321776641E+02 -0.38730367748E+02  0.33789637059E+02  0.56232843347E+02  0.47000000000E+01 0.  1.
         13    1    4    4    0    0 -0.40683832131E+02  0.54570114866E+02  0.34047865337E+03  0.34721576150E+03  0.00000000000E+00 0. -1.
        -14    1    4    4    0    0  0.62289594414E+01 -0.22519724918E+02  0.12597153302E+03  0.12812011972E+03  0.00000000000E+00 0.  1.
</event>
<event>
12    1  0.8451514E-002  0.2038066E+03  0.7818608E-02  0.1147186E+00
         21   -1    0    0  503  502  0.00000000000E+00  0.00000000000E+00  0.66863480633E+03  0.66863480633E+03  0.00000000000E+00 0. -1.
         21   -1    0    0  501  503 -0.00000000000E+00 -0.00000000000E+00 -0.64493111339E+02  0.64493111339E+02  0.00000000000E+00 0. -1.
          6    2    1    2  501    0  0.28782238437E+02  0.10086516172E+03  0.38682200715E+03  0.43722807816E+03  0.17474246484E+03 0.  0.
         24    2    3    3    0    0  0.41613520725E+02  0.29965696996E+02  0.86649472737E+02  0.12849353795E+03  0.79830007303E+02 0.  0.
         -6    2    1    2    0  502 -0.28782238437E+02 -0.10086516172E+03  0.21731968784E+03  0.29589983951E+03  0.17125031445E+03 0.  0.
        -24    2    5    5    0    0  0.12239221540E+01 -0.93432272705E+02  0.23098584711E+03  0.26177548718E+03  0.80254947235E+02 0.  0.
          5    1    3    3  501    0 -0.12831282288E+02  0.70899464720E+02  0.30017253441E+03  0.30873454021E+03  0.47000000000E+01 0. -1.
        -11    1    4    4    0    0  0.78779707728E+01  0.26867000940E+02  0.90185839726E+02  0.94431900596E+02  0.00000000000E+00 0.  1.
         12    1    4    4    0    0  0.33735549953E+02  0.30986960566E+01 -0.35363669890E+01  0.34061637355E+02  0.00000000000E+00 0. -1.
         -5    1    5    5    0  502 -0.30006160591E+02 -0.74328890118E+01 -0.13666159270E+02  0.34124352326E+02  0.47000000000E+01 0.  1.
         11    1    6    6    0    0 -0.26977794374E+02 -0.86432029746E+02  0.19858960148E+03  0.21825702044E+03  0.00000000000E+00 0. -1.
        -12    1    6    6    0    0  0.28201716528E+02 -0.70002429591E+01  0.32396245629E+02  0.43518466740E+02  0.00000000000E+00 0.  1.
</event>
<event>
12    1  0.8451514E-002  0.1734107E+03  0.7818608E-02  0.1174457E+00
         21   -1    0    0  501  502  0.00000000000E+00  0.00000000000E+00  0.57011220463E+02  0.57011220463E+02  0.00000000000E+00 0.  1.
         21   -1    0    0  502  503 -0.00000000000E+00 -0.00000000000E+00 -0.75121177400E+03  0.75121177400E+03  0.00000000000E+00 0.  1.
         -6    2    1    2    0  503  0.14289194852E+02 -0.88043751314E+01 -0.56868273815E+03  0.59453456107E+03  0.17259660927E+03 0.  0.
        -24    2    3    3    0    0 -0.88725862600E+01  0.56760702464E+02 -0.26806846346E+03  0.28594700518E+03  0.81268004401E+02 0.  0.
          6    2    1    2  501    0 -0.14289194852E+02  0.88043751314E+01 -0.12551781539E+03  0.21368843339E+03  0.17212299810E+03 0.  0.
         24    2    5    5    0    0  0.42304515859E+02  0.48333026617E+02 -0.86942069000E+02  0.13447012370E+03  0.79984606538E+02 0.  0.
          5    1    5    5  501    0 -0.56593710711E+02 -0.39528651485E+02 -0.38575746392E+02  0.79218309689E+02  0.47000000000E+01 0. -1.
        -11    1    6    6    0    0  0.59913077486E+01 -0.16455532988E+02  0.30625450083E+01  0.17778062785E+02  0.00000000000E+00 0.  1.
         12    1    6    6    0    0  0.36313208110E+02  0.64788559605E+02 -0.90004614008E+02  0.11669206092E+03  0.00000000000E+00 0. -1.
         -5    1    3    3    0  503  0.23161781112E+02 -0.65565077596E+02 -0.30061427469E+03  0.30858755589E+03  0.47000000000E+01 0.  1.
         13    1    4    4    0    0 -0.20877953798E+02  0.46307510730E+02 -0.66155800680E+02  0.83407820188E+02  0.00000000000E+00 0. -1.
        -14    1    4    4    0    0  0.12005367538E+02  0.10453191734E+02 -0.20191266278E+03  0.20253918499E+03  0.00000000000E+00 0.  1.
</event>
<event>
12    1  0.8451514E-002  0.2750625E+03  0.7818608E-02  0.1098800E+00
         21   -1    0    0  503  502  0.00000000000E+00  0.00000000000E+00  0.20190890133E+03  0.20190890133E+03  0.00000000000E+00 0.  1.
         21   -1    0    0  501  503 -0.00000000000E+00 -0.00000000000E+00 -0.75699179847E+03  0.75699179847E+03  0.00000000000E+00 0.  1.
          6    2    1    2  501    0 -0.84909283111E+02 -0.19312453784E+03 -0.62057605810E+03  0.67880338824E+03  0.17650133860E+03 0.  0.
         24    2    3    3    0    0 -0.10060758103E+03 -0.10827436735E+03 -0.51716929963E+03  0.54404050134E+03  0.81674712313E+02 0.  0.
         -6    2    1    2    0  502  0.84909283111E+02  0.19312453784E+03  0.65493160958E+02  0.28009731156E+03  0.17221636489E+03 0.  0.
        -24    2    5    5    0    0  0.38839133927E+02  0.14886533799E+03 -0.18685951038E+02  0.17431665022E+03  0.79798261869E+02 0.  0.
          5    1    3    3  501    0  0.15698297914E+02 -0.84850170490E+02 -0.10340675847E+03  0.13476288690E+03  0.47000000000E+01 0. -1.
        -11    1    4    4    0    0 -0.66210773687E+02 -0.10012333074E+03 -0.28576687698E+03  0.30995363507E+03  0.00000000000E+00 0.  1.
         12    1    4    4    0    0 -0.34396807338E+02 -0.81510366047E+01 -0.23140242265E+03  0.23408686627E+03  0.00000000000E+00 0. -1.
         -5    1    5    5    0  502  0.46070149185E+02  0.44259199845E+02  0.84179111997E+02  0.10578066134E+03  0.47000000000E+01 0.  1.
         11    1    6    6    0    0  0.26589735833E+01  0.13059952347E+03 -0.24317080122E+01  0.13064922072E+03  0.00000000000E+00 0. -1.
        -12    1    6    6    0    0  0.36180160343E+02  0.18265814524E+02 -0.16254243026E+02  0.43667429499E+02  0.00000000000E+00 0.  1.
</event>
<event>
12    1  0.8451514E-002  0.2667083E+03  0.7818608E-02  0.1103286E+00
         21   -1    0    0  503  502  0.00000000000E+00  0.00000000000E+00  0.24913117888E+03  0.24913117888E+03  0.00000000000E+00 0.  1.
         21   -1    0    0  501  503 -0.00000000000E+00 -0.00000000000E+00 -0.28834468853E+03  0.28834468853E+03  0.00000000000E+00 0.  1.
          6    2    1    2  501    0 -0.15251763550E+03  0.13471401257E+03  0.10431271828E+02  0.26691217912E+03  0.17240593264E+03 0.  0.
         24    2    3    3    0    0 -0.12745096152E+03  0.12198628996E+03 -0.49637162534E+02  0.20042428643E+03  0.81127332996E+02 0.  0.
         -6    2    1    2    0  502  0.15251763550E+03 -0.13471401257E+03 -0.49644781482E+02  0.27056368828E+03  0.17126181936E+03 0.  0.
        -24    2    5    5    0    0  0.66414651858E+02 -0.10493465518E+02  0.14871121925E+02  0.10615912663E+03  0.80793509016E+02 0.  0.
          5    1    3    3  501    0 -0.25066673979E+02  0.12727722612E+02  0.60068434362E+02  0.66487892687E+02  0.47000000000E+01 0. -1.
        -13    1    4    4    0    0 -0.55128007017E+02  0.70343979421E+01  0.71593621904E+00  0.55579604863E+02  0.00000000000E+00 0.  1.
         14    1    4    4    0    0 -0.72322954502E+02  0.11495189201E+03 -0.50353098753E+02  0.14484468157E+03  0.00000000000E+00 0. -1.
         -5    1    5    5    0  502  0.86102983641E+02 -0.12422054705E+03 -0.64515903407E+02  0.16440456166E+03  0.47000000000E+01 0.  1.
         13    1    6    6    0    0  0.73569525223E+02 -0.63900116351E+01  0.36960870467E+02  0.82579738653E+02  0.00000000000E+00 0. -1.
        -14    1    6    6    0    0 -0.71548733653E+01 -0.41034538833E+01 -0.22089748542E+02  0.23579387976E+02  0.00000000000E+00 0.  1.
</event>
<event>
12    1  0.8451514E-002  0.1850827E+03  0.7818608E-02  0.1163059E+00
         21   -1    0    0  503  502  0.00000000000E+00  0.00000000000E+00  0.65864072228E+03  0.65864072228E+03  0.00000000000E+00 0.  1.
         21   -1    0    0  501  503 -0.00000000000E+00 -0.00000000000E+00 -0.54392390854E+02  0.54392390854E+02  0.00000000000E+00 0.  1.
          6    2    1    2  501    0  0.59411893671E+02  0.28926111582E+02  0.37806224565E+03  0.42077335586E+03  0.17248960077E+03 0.  0.
         24    2    3    3    0    0  0.89442050835E+01  0.55675560948E+02  0.33224600775E+03  0.34739939394E+03  0.84375128743E+02 0.  0.
         -6    2    1    2    0  502 -0.59411893671E+02 -0.28926111582E+02  0.22618608577E+03  0.29225975727E+03  0.17288472253E+03 0.  0.
        -24    2    5    5    0    0  0.26815321893E+02 -0.16987920070E+02  0.16447615435E+03  0.18545217909E+03  0.79576720617E+02 0.  0.
          5    1    3    3  501    0  0.50467688588E+02 -0.26749449365E+02  0.45816237901E+02  0.73373961922E+02  0.47000000000E+01 0. -1.
        -11    1    4    4    0    0 -0.32973223233E+02  0.12698107720E+02  0.70525521073E+02  0.78881712156E+02  0.00000000000E+00 0.  1.
         12    1    4    4    0    0  0.41917428316E+02  0.42977453227E+02  0.26172048668E+03  0.26851768178E+03  0.00000000000E+00 0. -1.
         -5    1    5    5    0  502 -0.86227215564E+02 -0.11938191513E+02  0.61709931424E+02  0.10680757818E+03  0.47000000000E+01 0.  1.
         11    1    6    6    0    0 -0.15926709511E+02  0.52547014685E+00  0.12091535921E+03  0.12196089655E+03  0.00000000000E+00 0. -1.
        -12    1    6    6    0    0  0.42742031404E+02 -0.17513390217E+02  0.43560795134E+02  0.63491282537E+02  0.00000000000E+00 0.  1.
</event>
<event>
12    1  0.8451514E-002  0.2376276E+03  0.7818608E-02  0.1121747E+00
         21   -1    0    0  501  502  0.00000000000E+00  0.00000000000E+00  0.26630670033E+03  0.26630670033E+03  0.00000000000E+00 0. -1.
         21   -1    0    0  502  503 -0.00000000000E+00 -0.00000000000E+00 -0.35418214766E+03  0.35418214766E+03  0.00000000000E+00 0. -1.
         -6    2    1    2    0  503  0.12437487020E+03  0.10588016932E+03 -0.24191393124E+03  0.33910060400E+03  0.17258954462E+03 0.  0.
        -24    2    3    3    0    0  0.11688413620E+03  0.21949364160E+02 -0.19534390704E+03  0.24270896378E+03  0.81269448131E+02 0.  0.
          6    2    1    2  501    0 -0.12437487020E+03 -0.10588016932E+03  0.15403848392E+03  0.28138824399E+03  0.16962243584E+03 0.  0.
         24    2    5    5    0    0  0.52419355608E+01 -0.50713336366E+02  0.49725513024E+02  0.10603950094E+03  0.78564805994E+02 0.  0.
          5    1    5    5  501    0 -0.12961680576E+03 -0.55166832951E+02  0.10431297089E+03  0.17534874305E+03  0.47000000000E+01 0. -1.
        -11    1    6    6    0    0  0.70625544038E+01 -0.42393065547E+02  0.71072393840E+02  0.83056227024E+02  0.00000000000E+00 0.  1.
         12    1    6    6    0    0 -0.18206188430E+01 -0.83202708190E+01 -0.21346880816E+02  0.22983273919E+02  0.00000000000E+00 0. -1.
         -5    1    3    3    0  503  0.74907339975E+01  0.83930805157E+02 -0.46570024200E+02  0.96391640219E+02  0.47000000000E+01 0.  1.
         11    1    4    4    0    0  0.48429377453E+02  0.28771849692E+01 -0.15180682239E+03  0.15937061874E+03  0.00000000000E+00 0. -1.
        -12    1    4    4    0    0  0.68454758747E+02  0.19072179191E+02 -0.43537084654E+02  0.83338345043E+02  0.00000000000E+00 0.  1.
</event>
<event>
12    1  0.8451514E-002  0.2694042E+03  0.7818608E-02  0.1101692E+00
         21   -1    0    0  503  502  0.00000000000E+00  0.00000000000E+00  0.15714258715E+03  0.15714258715E+03  0.00000000000E+00 0. -1.
         21   -1    0    0  501  503 -0.00000000000E+00 -0.00000000000E+00 -0.51821844547E+03  0.51821844547E+03  0.00000000000E+00 0.  1.
          6    2    1    2  501    0 -0.20626192434E+03 -0.26050658494E+02 -0.29286985497E+03  0.39793388133E+03  0.17133593819E+03 0.  0.
         24    2    3    3    0    0 -0.15629161819E+03 -0.19942647347E+02 -0.10955283378E+03  0.20777195150E+03  0.79640324840E+02 0.  0.
         -6    2    1    2    0  502  0.20626192434E+03  0.26050658494E+02 -0.68206003345E+02  0.27742715129E+03  0.17056127092E+03 0.  0.
        -24    2    5    5    0    0  0.19113895082E+03  0.20072624878E+02 -0.10648816988E+03  0.23556958938E+03  0.84948762962E+02 0.  0.
          5    1    3    3  501    0 -0.49970306149E+02 -0.61080111473E+01 -0.18331702119E+03  0.19016192983E+03  0.47000000000E+01 0. -1.
        -13    1    4    4    0    0 -0.54094133768E+01  0.19560415836E+02 -0.90023552690E+01  0.22201667080E+02  0.00000000000E+00 0.  1.
         14    1    4    4    0    0 -0.15088220482E+03 -0.39503063183E+02 -0.10055047851E+03  0.18557028442E+03  0.00000000000E+00 0. -1.
         -5    1    5    5    0  502  0.15122973523E+02  0.59780336161E+01  0.38282166534E+02  0.41857561905E+02  0.47000000000E+01 0.  1.
         13    1    6    6    0    0  0.15692834389E+01 -0.78867268025E+01  0.88161859623E+01  0.11932654570E+02  0.00000000000E+00 0. -1.
        -14    1    6    6    0    0  0.18956966738E+03  0.27959351680E+02 -0.11530435584E+03  0.22363693481E+03  0.00000000000E+00 0.  1.
</event>
<event>
12    1  0.8451514E-002  0.1826444E+03  0.7818608E-02  0.1165452E+00
         21   -1    0    0  503  502  0.00000000000E+00  0.00000000000E+00  0.54706151195E+03  0.54706151195E+03  0.00000000000E+00 0. -1.
         21   -1    0    0  501  503 -0.00000000000E+00 -0.00000000000E+00 -0.10921723310E+03  0.10921723310E+03  0.00000000000E+00 0. -1.
          6    2    1    2  501    0 -0.26896335023E+02  0.52796161263E+02  0.52050453045E+00  0.18264518461E+03  0.17276615715E+03 0.  0.
         24    2    3    3    0    0 -0.84355005364E+02  0.36550965025E+02 -0.74959520598E+01  0.12221540078E+03  0.80179017926E+02 0.  0.
         -6    2    1    2    0  502  0.26896335023E+02 -0.52796161263E+02  0.43732377432E+03  0.47363356043E+03  0.17194713867E+03 0.  0.
        -24    2    5    5    0    0  0.11466883859E+02 -0.64248203609E+02  0.12937103066E+03  0.16504613430E+03  0.79019249432E+02 0.  0.
          5    1    3    3  501    0  0.57458670341E+02  0.16245196238E+02  0.80164565903E+01  0.60429783836E+02  0.47000000000E+01 0. -1.
        -13    1    4    4    0    0 -0.33663791997E+00  0.74667921020E+01  0.26115717059E+02  0.27164259366E+02  0.00000000000E+00 0.  1.
         14    1    4    4    0    0 -0.84018367444E+02  0.29084172923E+02 -0.33611669119E+02  0.95051141411E+02  0.00000000000E+00 0. -1.
         -5    1    5    5    0  502  0.15429451164E+02  0.11452042346E+02  0.30795274366E+03  0.30858742613E+03  0.47000000000E+01 0.  1.
         11    1    6    6    0    0  0.10077150635E+02  0.16015709225E+02  0.43811981548E+02  0.47723596197E+02  0.00000000000E+00 0. -1.
        -12    1    6    6    0    0  0.13897332241E+01 -0.80263912833E+02  0.85559049115E+02  0.11732253810E+03  0.00000000000E+00 0.  1.
</event>
<event>
12    1  0.8451514E-002  0.2289424E+03  0.7818608E-02  0.1127915E+00
         21   -1    0    0  501  502  0.00000000000E+00  0.00000000000E+00  0.14475353758E+04  0.14475353758E+04  0.00000000000E+00 0. -1.
         21   -1    0    0  502  503 -0.00000000000E+00 -0.00000000000E+00 -0.72903964124E+02  0.72903964124E+02  0.00000000000E+00 0. -1.
         -6    2    1    2    0  503 -0.62315487909E+02 -0.13489672936E+03  0.14675137271E+03  0.27193859489E+03  0.17416740904E+03 0.  0.
        -24    2    3    3    0    0 -0.65424300485E+02 -0.34954201379E+02  0.13117759568E+03  0.17063308593E+03  0.80037198335E+02 0.  0.
          6    2    1    2  501    0  0.62315487909E+02  0.13489672936E+03  0.12278800390E+04  0.12485007450E+04  0.17024797396E+03 0.  0.
         24    2    5    5    0    0 -0.30683175904E+02  0.57151560058E+02  0.48562373248E+03  0.49639730977E+03  0.79825569202E+02 0.  0.
          5    1    5    5  501    0  0.92998663813E+02  0.77745169298E+02  0.74225630647E+03  0.75210343525E+03  0.47000000000E+01 0. -1.
        -11    1    6    6    0    0 -0.27811711576E+01  0.16476205190E+02  0.37385647718E+03  0.37422969655E+03  0.00000000000E+00 0.  1.
         12    1    6    6    0    0 -0.27902004746E+02  0.40675354868E+02  0.11176725530E+03  0.12216761322E+03  0.00000000000E+00 0. -1.
         -5    1    3    3    0  503  0.31088125766E+01 -0.99942527977E+02  0.15573777027E+02  0.10130550896E+03  0.47000000000E+01 0.  1.
         11    1    4    4    0    0 -0.10726404772E+02 -0.45140671643E+02  0.90534217574E+02  0.10173092228E+03  0.00000000000E+00 0. -1.
        -12    1    4    4    0    0 -0.54697895714E+02  0.10186470265E+02  0.40643378106E+02  0.68902163651E+02  0.00000000000E+00 0.  1.
</event>
<event>
12    1  0.8451514E-002  0.2090478E+03  0.7818608E-02  0.1143087E+00
         21   -1    0    0  501  502  0.00000000000E+00  0.00000000000E+00  0.19054645381E+03  0.19054645381E+03  0.00000000000E+00 0. -1.
         21   -1    0    0  502  503 -0.00000000000E+00 -0.00000000000E+00 -0.39199676010E+03  0.39199676010E+03  0.00000000000E+00 0. -1.
         -6    2    1    2    0  503  0.10257626573E+03  0.45723074627E+02 -0.29019210898E+03  0.35543947205E+03  0.17179426163E+03 0.  0.
        -24    2    3    3    0    0  0.70026308326E+02 -0.37480122369E+02 -0.18855815656E+03  0.22003702745E+03  0.80954750417E+02 0.  0.
          6    2    1    2  501    0 -0.10257626573E+03 -0.45723074627E+02  0.88741802692E+02  0.22710374186E+03  0.17631934714E+03 0.  0.
         24    2    5    5    0    0 -0.12631623708E+03 -0.68369731163E+02  0.10244107661E+03  0.19123986870E+03  0.73812609437E+02 0.  0.
          5    1    5    5  501    0  0.23739971357E+02  0.22646656536E+02 -0.13699273917E+02  0.35863873162E+02  0.47000000000E+01 0. -1.
        -13    1    6    6    0    0 -0.93307822124E+02 -0.51577697454E+02  0.31428016572E+02  0.11115002820E+03  0.00000000000E+00 0.  1.
         14    1    6    6    0    0 -0.33008414960E+02 -0.16792033710E+02  0.71013060038E+02  0.80089840493E+02  0.00000000000E+00 0. -1.
         -5    1    3    3    0  503  0.32549957401E+02  0.83203196996E+02 -0.10163395242E+03  0.13540244459E+03  0.47000000000E+01 0.  1.
         13    1    4    4    0    0  0.83885316150E+02 -0.25208021637E+02 -0.11718786420E+03  0.14630511316E+03  0.00000000000E+00 0. -1.
        -14    1    4    4    0    0 -0.13859007824E+02 -0.12272100732E+02 -0.71370292359E+02  0.73731914295E+02  0.00000000000E+00 0.  1.
</event>
<event>
12    1  0.8451514E-002  0.2193094E+03  0.7818608E-02  0.1134444E+00
         21   -1    0    0  503  502  0.00000000000E+00  0.00000000000E+00  0.34670731347E+03  0.34670731347E+03  0.00000000000E+00 0.  1.
         21   -1    0    0  501  503 -0.00000000000E+00 -0.00000000000E+00 -0.15041740607E+03  0.15041740607E+03  0.00000000000E+00 0.  1.
          6    2    1    2  501    0 -0.90913400979E+02  0.10092518985E+03  0.28343480179E+02  0.22089546913E+03  0.17187296177E+03 0.  0.
         24    2    3    3    0    0 -0.89263034862E+01 -0.94971495498E+01  0.84376517068E+01  0.81851198475E+02  0.80365104256E+02 0.  0.
         -6    2    1    2    0  502  0.90913400979E+02 -0.10092518985E+03  0.16794642722E+03  0.27622925042E+03  0.17217855833E+03 0.  0.
        -24    2    5    5    0    0  0.75175603538E+01 -0.65855302423E+02  0.15162312104E+03  0.18417870147E+03  0.80862776782E+02 0.  0.
          5    1    3    3  501    0 -0.81987097493E+02  0.11042233940E+03  0.19905828472E+02  0.13904427065E+03  0.47000000000E+01 0. -1.
        -13    1    4    4    0    0 -0.29804089039E+02 -0.32558278654E+02 -0.10580775073E+02  0.45390285673E+02  0.00000000000E+00 0.  1.
         14    1    4    4    0    0  0.20877785553E+02  0.23061129104E+02  0.19018426780E+02  0.36460912802E+02  0.00000000000E+00 0. -1.
         -5    1    5    5    0  502  0.83395840626E+02 -0.35069887427E+02  0.16323306179E+02  0.92050548952E+02  0.47000000000E+01 0.  1.
         11    1    6    6    0    0  0.11366862169E+02 -0.58610107892E+02  0.39121135805E+02  0.71377962771E+02  0.00000000000E+00 0. -1.
        -12    1    6    6    0    0 -0.38493018154E+01 -0.72451945304E+01  0.11250198523E+03  0.11280073869E+03  0.00000000000E+00 0.  1.
</event>
<event>
12    1  0.8451514E-002  0.1841840E+03  0.7818608E-02  0.1164281E+00
         21   -1    0    0  503  502  0.00000000000E+00  0.00000000000E+00  0.23504970222E+03  0.23504970222E+03  0.00000000000E+00 0. -1.
         21   -1    0    0  501  503 -0.00000000000E+00 -0.00000000000E+00 -0.61883044365E+03  0.61883044365E+03  0.00000000000E+00 0. -1.
          6    2    1    2  501    0  0.29084066295E+02  0.58973744521E+02 -0.56611153449E+03  0.59471175351E+03  0.16992944074E+03 0.  0.
         24    2    3    3    0    0  0.40290065905E+02  0.40666722936E+01 -0.15085045392E+03  0.17566018623E+03  0.80379190993E+02 0.  0.
         -6    2    1    2    0  502 -0.29084066295E+02 -0.58973744521E+02  0.18233079305E+03  0.25916839235E+03  0.17204636597E+03 0.  0.
        -24    2    5    5    0    0  0.33835186841E+02 -0.14572291187E+02  0.61295267274E+02  0.11563438950E+03  0.90868205148E+02 0.  0.
          5    1    3    3  501    0 -0.11205999610E+02  0.54907072228E+02 -0.41526108056E+03  0.41905156728E+03  0.47000000000E+01 0. -1.
        -11    1    4    4    0    0  0.52299862057E+02  0.74529041476E+01 -0.15398456525E+03  0.16279455669E+03  0.00000000000E+00 0.  1.
         12    1    4    4    0    0 -0.12009796152E+02 -0.33862318539E+01  0.31341113287E+01  0.12865629546E+02  0.00000000000E+00 0. -1.
         -5    1    5    5    0  502 -0.62919253136E+02 -0.44401453335E+02  0.12103552578E+03  0.14353400285E+03  0.47000000000E+01 0.  1.
         11    1    6    6    0    0 -0.15098217252E+01 -0.19225707566E+02  0.75000893223E+02  0.77440566742E+02  0.00000000000E+00 0. -1.
        -12    1    6    6    0    0  0.35345008567E+02  0.46534163789E+01 -0.13705625949E+02  0.38193822763E+02  0.00000000000E+00 0.  1.
</event>
<event>
12    1  0.8451514E-002  0.1768844E+03  0.7818608E-02  0.1171080E+00
         21   -1    0    0  501  502  0.00000000000E+00  0.00000000000E+00  0.15625802837E+03  0.15625802837E+03  0.00000000000E+00 0.  1.
         21   -1    0    0  502  503 -0.00000000000E+00 -0.00000000000E+00 -0.22410491538E+03  0.22410491538E+03  0.00000000000E+00 0.  1.
         -6    2    1    2    0  503  0.30719573367E+02  0.21974922460E+02 -0.97247455477E+02  0.20105182504E+03  0.17186674882E+03 0.  0.
        -24    2    3    3    0    0  0.25362050376E+02 -0.14980073149E+02  0.10763904173E+02  0.86671238547E+02  0.80798550528E+02 0.  0.
          6    2    1    2  501    0 -0.30719573367E+02 -0.21974922460E+02  0.29400568469E+02  0.17931111870E+03  0.17280478714E+03 0.  0.
         24    2    5    5    0    0 -0.73014913895E+02 -0.29693861300E+02  0.57690119147E+02  0.12763069180E+03  0.82149501475E+02 0.  0.
          5    1    5    5  501    0  0.42295340529E+02  0.77189388402E+01 -0.28289550678E+02  0.51680426903E+02  0.47000000000E+01 0. -1.
        -13    1    6    6    0    0 -0.61066789512E+01 -0.41703987342E+02  0.38276933800E+02  0.56935382225E+02  0.00000000000E+00 0.  1.
         14    1    6    6    0    0 -0.66908234944E+02  0.12010126041E+02  0.19413185348E+02  0.70695309577E+02  0.00000000000E+00 0. -1.
         -5    1    3    3    0  503  0.53575229909E+01  0.36954995609E+02 -0.10801135965E+03  0.11438058649E+03  0.47000000000E+01 0.  1.
         13    1    4    4    0    0 -0.11586452631E+02 -0.38724657926E+02 -0.32968052635E+01  0.40555072938E+02  0.00000000000E+00 0. -1.
        -14    1    4    4    0    0  0.36948503007E+02  0.23744584776E+02  0.14060709436E+02  0.46116165610E+02  0.00000000000E+00 0.  1.
</event>
<event>
12    1  0.8451514E-002  0.1738297E+03  0.7818608E-02  0.1174213E+00
         21   -1    0    0  501  502  0.00000000000E+00  0.00000000000E+00  0.66997201565E+02  0.66997201565E+02  0.00000000000E+00 0.  1.
         21   -1    0    0  502  503 -0.00000000000E+00 -0.00000000000E+00 -0.19931909546E+04  0.19931909546E+04  0.00000000000E+00 0.  1.
         -6    2    1    2    0  503 -0.52714214694E+01  0.82152816585E+01 -0.18693423673E+04  0.18772978840E+04  0.17236931448E+03 0.  0.
        -24    2    3    3    0    0 -0.10972978333E+02  0.18330144262E+01 -0.18647821370E+04  0.18665216701E+04  0.79793234947E+02 0.  0.
          6    2    1    2  501    0  0.52714214694E+01 -0.82152816585E+01 -0.56851385816E+02  0.18289027219E+03  0.17355544605E+03 0.  0.
         24    2    5    5    0    0  0.21334555995E+02  0.44858534772E+02  0.10469874593E+02  0.95545573524E+02  0.80943726901E+02 0.  0.
          5    1    5    5  501    0 -0.16063134525E+02 -0.53073816430E+02 -0.67321260409E+02  0.87344698662E+02  0.47000000000E+01 0. -1.
        -13    1    6    6    0    0  0.34248108783E+02  0.33843822946E+02  0.39258884238E+02  0.62125657328E+02  0.00000000000E+00 0.  1.
         14    1    6    6    0    0 -0.12913552788E+02  0.11014711826E+02 -0.28789009645E+02  0.33419916196E+02  0.00000000000E+00 0. -1.
         -5    1    3    3    0  503  0.57015568635E+01  0.63822672324E+01 -0.45602302299E+01  0.10776213873E+02  0.47000000000E+01 0.  1.
         11    1    4    4    0    0 -0.19688950233E+02  0.49961432229E+01 -0.11944556800E+03  0.12116047178E+03  0.00000000000E+00 0. -1.
        -12    1    4    4    0    0  0.87159719001E+01 -0.31631287968E+01 -0.17453365690E+04  0.17453611984E+04  0.00000000000E+00 0.  1.
</event>
<event>
12    1  0.8451514E-002  0.2029330E+03  0.7818608E-02  0.1147338E+00
         21   -1    0    0  503  502  0.00000000000E+00  0.00000000000E+00  0.10519672452E+03  0.10519672452E+03  0.00000000000E+00 0. -1.
         21   -1    0    0  501  503 -0.00000000000E+00 -0.00000000000E+00 -0.42408192876E+03  0.42408192876E+03  0.00000000000E+00 0.  1.
          6    2    1    2  501    0 -0.92307537077E+02  0.52872527632E+02 -0.85627910100E+02  0.22025881310E+03  0.17281672426E+03 0.  0.
         24    2    3    3    0    0 -0.11520415431E+03  0.48681019421E+02 -0.18630495309E+02  0.14917739914E+03  0.79151514433E+02 0.  0.
         -6    2    1    2    0  502  0.92307537077E+02 -0.52872527632E+02 -0.23325729414E+03  0.30901984018E+03  0.17253437564E+03 0.  0.
        -24    2    5    5    0    0  0.31786773953E+01  0.28463214993E+00 -0.36550182552E+02  0.86566665305E+02  0.78407185206E+02 0.  0.
          5    1    3    3  501    0  0.22896617235E+02  0.41915082109E+01 -0.66997414792E+02  0.71081413961E+02  0.47000000000E+01 0. -1.
        -13    1    4    4    0    0 -0.43472387085E+02  0.52864441105E+02 -0.32868757089E+02  0.75926627509E+02  0.00000000000E+00 0.  1.
         14    1    4    4    0    0 -0.71731767227E+02 -0.41834216845E+01  0.14238261781E+02  0.73250771635E+02  0.00000000000E+00 0. -1.
         -5    1    5    5    0  502  0.89128859682E+02 -0.53157159782E+02 -0.19670711159E+03  0.22245317488E+03  0.47000000000E+01 0.  1.
         11    1    6    6    0    0  0.30729129071E+02  0.20118428068E+02 -0.62297795876E-01  0.36729203672E+02  0.00000000000E+00 0. -1.
        -12    1    6    6    0    0 -0.27550451675E+02 -0.19833795918E+02 -0.36487884756E+02  0.49837461633E+02  0.00000000000E+00 0.  1.
</event>
<event>
12    1  0.8451514E-002  0.1975225E+03  0.7818608E-02  0.1152505E+00
         21   -1    0    0  501  502  0.00000000000E+00  0.00000000000E+00  0.28622379234E+03  0.28622379234E+03  0.00000000000E+00 0.  1.
         21   -1    0    0  502  503 -0.00000000000E+00 -0.00000000000E+00 -0.15610402075E+03  0.15610402075E+03  0.00000000000E+00 0.  1.
         -6    2    1    2    0  503  0.83645925966E+02  0.42062137648E+02 -0.18188050540E+02  0.19532508579E+03  0.17045591689E+03 0.  0.
        -24    2    3    3    0    0  0.72456211677E+02  0.29813484094E+01  0.54879561722E+02  0.11157854106E+03  0.64646836588E+02 0.  0.
          6    2    1    2  501    0 -0.83645925966E+02 -0.42062137648E+02  0.14830782213E+03  0.24700272729E+03  0.17392318083E+03 0.  0.
         24    2    5    5    0    0 -0.50308218875E+02 -0.80940767882E+02  0.15125586656E+03  0.19548834514E+03  0.79088754730E+02 0.  0.
          5    1    5    5  501    0 -0.33337707091E+02  0.38878630234E+02 -0.29480444263E+01  0.51514382156E+02  0.47000000000E+01 0. -1.
        -13    1    6    6    0    0  0.20285516846E+02 -0.66643022112E+01  0.24767519431E+02  0.32700843054E+02  0.00000000000E+00 0.  1.
         14    1    6    6    0    0 -0.70593735722E+02 -0.74276465671E+02  0.12648834713E+03  0.16278750208E+03  0.00000000000E+00 0. -1.
         -5    1    3    3    0  503  0.11189714289E+02  0.39080789238E+02 -0.73067612262E+02  0.83746544735E+02  0.47000000000E+01 0.  1.
         11    1    4    4    0    0  0.69588011090E+02  0.25718361200E+02  0.43336642527E+02  0.85918507761E+02  0.00000000000E+00 0. -1.
        -12    1    4    4    0    0  0.28682005871E+01 -0.22737012791E+02  0.11542919194E+02  0.25660033297E+02  0.00000000000E+00 0.  1.
</event>
<event>
12    1  0.8451514E-002  0.2278090E+03  0.7818608E-02  0.1128768E+00
         21   -1    0    0  503  502  0.00000000000E+00  0.00000000000E+00  0.20145726401E+03  0.20145726401E+03  0.00000000000E+00 0.  1.
         21   -1    0    0  501  503 -0.00000000000E+00 -0.00000000000E+00 -0.69386188943E+03  0.69386188943E+03  0.00000000000E+00 0.  1.
          6    2    1    2  501    0 -0.11391437102E+03  0.10207566533E+03 -0.60198930154E+03  0.64252328918E+03  0.16446620503E+03 0.  0.
         24    2    3    3    0    0 -0.10298990206E+03  0.69700549389E+02 -0.58622328180E+03  0.60460034715E+03  0.80117146322E+02 0.  0.
         -6    2    1    2    0  502  0.11391437102E+03 -0.10207566533E+03  0.10958467612E+03  0.25279586426E+03  0.16882245813E+03 0.  0.
        -24    2    5    5    0    0  0.10350440104E+03 -0.66601395611E+02  0.12048855931E+02  0.14838265864E+03  0.81995923837E+02 0.  0.
          5    1    3    3  501    0 -0.10924468958E+02  0.32375115937E+02 -0.15766019735E+02  0.37922942030E+02  0.47000000000E+01 0. -1.
        -13    1    4    4    0    0 -0.76541038519E+02  0.18367202972E+02 -0.44697647913E+03  0.45385444541E+03  0.00000000000E+00 0.  1.
         14    1    4    4    0    0 -0.26448863539E+02  0.51333346416E+02 -0.13924680267E+03  0.15074590174E+03  0.00000000000E+00 0. -1.
         -5    1    5    5    0  502  0.10409969979E+02 -0.35474269715E+02  0.97535820187E+02  0.10441320561E+03  0.47000000000E+01 0.  1.
         11    1    6    6    0    0  0.65176216278E+02  0.61026167438E+01  0.95683794342E+01  0.66156896726E+02  0.00000000000E+00 0. -1.
        -12    1    6    6    0    0  0.38328184759E+02 -0.72704012355E+02  0.24804764967E+01  0.82225761918E+02  0.00000000000E+00 0.  1.
</event>
<event>
12    1  0.8451514E-002  0.1996128E+03  0.7818608E-02  0.1150580E+00
         21   -1    0    0  503  502  0.00000000000E+00  0.00000000000E+00  0.33352296387E+03  0.33352296387E+03  0.00000000000E+00 0.  1.
         21   -1    0    0  501  503 -0.00000000000E+00 -0.00000000000E+00 -0.17285021652E+03  0.17285021652E+03  0.00000000000E+00 0. -1.
          6    2    1    2  501    0 -0.99841988830E+02  0.88362372140E+01 -0.61917527567E+02  0.20899531560E+03  0.17262317312E+03 0.  0.
         24    2    3    3    0    0 -0.11234745400E+03 -0.24575572316E+02 -0.22744806489E+00  0.13757758962E+03  0.75509153474E+02 0.  0.
         -6    2    1    2    0  502  0.99841988830E+02 -0.88362372140E+01  0.22259027492E+03  0.29737786479E+03  0.16982538725E+03 0.  0.
        -24    2    5    5    0    0  0.12163553698E+03 -0.35927026531E+02  0.13042543128E+03  0.19876083781E+03  0.80056994895E+02 0.  0.
          5    1    3    3  501    0  0.12505465165E+02  0.33411809530E+02 -0.61690079502E+02  0.71417725979E+02  0.47000000000E+01 0. -1.
        -11    1    4    4    0    0 -0.32163288184E+02 -0.12413646336E+02  0.35025017295E+02  0.49145982121E+02  0.00000000000E+00 0.  1.
         12    1    4    4    0    0 -0.80184165811E+02 -0.12161925980E+02 -0.35252465359E+02  0.88431607496E+02  0.00000000000E+00 0. -1.
         -5    1    5    5    0  502 -0.21793548149E+02  0.27090789317E+02  0.92164843634E+02  0.98617026972E+02  0.47000000000E+01 0.  1.
         13    1    6    6    0    0  0.27132629748E+02 -0.34438730723E+02  0.87801812634E+01  0.44713503037E+02  0.00000000000E+00 0. -1.
        -14    1    6    6    0    0  0.94502907231E+02 -0.14882958083E+01  0.12164525002E+03  0.15404733478E+03  0.00000000000E+00 0.  1.
</event>
<event>
12    1  0.8451514E-002  0.1724225E+03  0.7818608E-02  0.1175752E+00
         21   -1    0    0  503  502  0.00000000000E+00  0.00000000000E+00  0.13084755109E+02  0.13084755109E+02  0.00000000000E+00 0.  1.
         21   -1    0    0  501  503 -0.00000000000E+00 -0.00000000000E+00 -0.22980109970E+04  0.22980109970E+04  0.00000000000E+00 0.  1.
          6    2    1    2  501    0  0.62712990965E+01 -0.19481071704E+01 -0.13124688861E+04  0.13237462290E+04  0.17229735196E+03 0.  0.
         24    2    3    3    0    0 -0.26039428994E+02  0.35590020050E+02 -0.11553764507E+04  0.11589638956E+04  0.79736234227E+02 0.  0.
         -6    2    1    2    0  502 -0.62712990965E+01  0.19481071704E+01 -0.97245735576E+03  0.98734952308E+03  0.17071217777E+03 0.  0.
        -24    2    5    5    0    0  0.44757008624E+02  0.11240620944E+02 -0.84023973638E+03  0.84524453416E+03  0.79410116210E+02 0.  0.
          5    1    3    3  501    0  0.32310728090E+02 -0.37538127220E+02 -0.15709243539E+03  0.16478233341E+03  0.47000000000E+01 0. -1.
        -13    1    4    4    0    0  0.22449605565E+02  0.33946565456E+02 -0.41176935524E+03  0.41377573154E+03  0.00000000000E+00 0.  1.
         14    1    4    4    0    0 -0.48489034559E+02  0.16434545931E+01 -0.74360709549E+03  0.74518816407E+03  0.00000000000E+00 0. -1.
         -5    1    5    5    0  502 -0.51028307721E+02 -0.92925137739E+01 -0.13221761938E+03  0.14210498892E+03  0.47000000000E+01 0.  1.
         11    1    6    6    0    0  0.20537657323E+02  0.34549279298E+02 -0.69519222164E+03  0.69635312385E+03  0.00000000000E+00 0. -1.
        -12    1    6    6    0    0  0.24219351302E+02 -0.23308658354E+02 -0.14504751474E+03  0.14889141031E+03  0.00000000000E+00 0.  1.
</event>
<event>
12    1  0.8451514E-002  0.2416254E+03  0.7818608E-02  0.1118746E+00
         21   -1    0    0  503  502  0.00000000000E+00  0.00000000000E+00  0.31202480892E+03  0.31202480892E+03  0.00000000000E+00 0. -1.
         21   -1    0    0  501  503 -0.00000000000E+00 -0.00000000000E+00 -0.19913049938E+03  0.19913049938E+03  0.00000000000E+00 0.  1.
          6    2    1    2  501    0 -0.13487133101E+03  0.10112848525E+03 -0.67454726110E+01  0.24153237651E+03  0.17284426818E+03 0.  0.
         24    2    3    3    0    0 -0.74236782930E+02  0.89356001718E+02 -0.65831271461E+02  0.15592652732E+03  0.80521615954E+02 0.  0.
         -6    2    1    2    0  502  0.13487133101E+03 -0.10112848525E+03  0.11963978215E+03  0.26962293179E+03  0.17310575212E+03 0.  0.
        -24    2    5    5    0    0  0.10419340568E+03 -0.12148104605E+03  0.14015075659E+03  0.22721831050E+03  0.79824906622E+02 0.  0.
          5    1    3    3  501    0 -0.60634548084E+02  0.11772483531E+02  0.59085798851E+02  0.85605849191E+02  0.47000000000E+01 0. -1.
        -13    1    4    4    0    0 -0.28431585398E+02  0.11813408620E+02 -0.57824754309E+02  0.65510410488E+02  0.00000000000E+00 0.  1.
         14    1    4    4    0    0 -0.45805197532E+02  0.77542593098E+02 -0.80065171525E+01  0.90416116828E+02  0.00000000000E+00 0. -1.
         -5    1    5    5    0  502  0.30677925334E+02  0.20352560803E+02 -0.20510974441E+02  0.42404621288E+02  0.47000000000E+01 0.  1.
         13    1    6    6    0    0 -0.35962993540E+01 -0.47009495122E+02  0.28564267195E+02  0.55124798059E+02  0.00000000000E+00 0. -1.
        -14    1    6    6    0    0  0.10778970503E+03 -0.74471550930E+02  0.11158648940E+03  0.17209351244E+03  0.00000000000E+00 0.  1.
</event>
<event>
12    1  0.8451514E-002  0.1867972E+03  0.7818608E-02  0.1162531E+00
         21   -1    0    0  503  502  0.00000000000E+00  0.00000000000E+00  0.20813086946E+03  0.20813086946E+03  0.00000000000E+00 0.  1.
         21   -1    0    0  501  503 -0.00000000000E+00 -0.00000000000E+00 -0.29378913234E+03  0.29378913234E+03  0.00000000000E+00 0.  1.
          6    2    1    2  501    0  0.61264059675E+02  0.11423566697E+02 -0.20977632732E+03  0.27764673327E+03  0.17087369052E+03 0.  0.
         24    2    3    3    0    0  0.78802457161E+02 -0.27233347175E+02 -0.80259825360E+02  0.14127017130E+03  0.81019375951E+02 0.  0.
         -6    2    1    2    0  502 -0.61264059675E+02 -0.11423566697E+02  0.12411806444E+03  0.22427326854E+03  0.17609492377E+03 0.  0.
        -24    2    5    5    0    0 -0.85323921855E+02 -0.59808695618E+02  0.10073822671E+03  0.16520801241E+03  0.79298457311E+02 0.  0.
          5    1    3    3  501    0 -0.17538397486E+02  0.38656913873E+02 -0.12951650196E+03  0.13637656197E+03  0.47000000000E+01 0. -1.
        -11    1    4    4    0    0 -0.17093271197E+02 -0.37483573165E+01 -0.10994881037E+02  0.20666821521E+02  0.00000000000E+00 0.  1.
         12    1    4    4    0    0  0.95895728358E+02 -0.23484989859E+02 -0.69264944323E+02  0.12060334978E+03  0.00000000000E+00 0. -1.
         -5    1    5    5    0  502  0.24059862181E+02  0.48385128921E+02  0.23379837727E+02  0.59065256124E+02  0.47000000000E+01 0.  1.
         11    1    6    6    0    0 -0.23766100440E+01  0.45863309135E+00 -0.12335625066E+02  0.12570849827E+02  0.00000000000E+00 0. -1.
        -12    1    6    6    0    0 -0.82947311811E+02 -0.60267328709E+02  0.11307385178E+03  0.15263716258E+03  0.00000000000E+00 0.  1.
</event>
<event>
12    1  0.8451514E-002  0.2264595E+03  0.7818608E-02  0.1129198E+00
         21   -1    0    0  503  502  0.00000000000E+00  0.00000000000E+00  0.30115089131E+03  0.30115089131E+03  0.00000000000E+00 0.  1.
         21   -1    0    0  501  503 -0.00000000000E+00 -0.00000000000E+00 -0.17919191013E+03  0.17919191013E+03  0.00000000000E+00 0. -1.
          6    2    1    2  501    0 -0.27327078503E+02 -0.14555169647E+03  0.11498227073E+03  0.25377583638E+03  0.17102393687E+03 0.  0.
         24    2    3    3    0    0 -0.23863314902E+01 -0.58902652243E+02 -0.10622637207E+02  0.99086532856E+02  0.78930878324E+02 0.  0.
         -6    2    1    2    0  502  0.27327078503E+02  0.14555169647E+03  0.69767104537E+01  0.22656696507E+03  0.17132381506E+03 0.  0.
        -24    2    5    5    0    0 -0.13983902122E+02  0.20432334640E+02  0.38837482191E+02  0.90925339450E+02  0.78396667747E+02 0.  0.
          5    1    3    3  501    0 -0.24940747013E+02 -0.86649044223E+02  0.12560490794E+03  0.15468930352E+03  0.47000000000E+01 0. -1.
        -11    1    4    4    0    0 -0.33955498157E+02 -0.26706623867E+02  0.16754707740E+02  0.46335082226E+02  0.00000000000E+00 0.  1.
         12    1    4    4    0    0  0.31569166667E+02 -0.32196028376E+02 -0.27377344947E+02  0.52751450630E+02  0.00000000000E+00 0. -1.
         -5    1    5    5    0  502  0.41310980626E+02  0.12511936183E+03 -0.31860771737E+02  0.13564162562E+03  0.47000000000E+01 0.  1.
         13    1    6    6    0    0  0.50044934126E+01  0.13892311018E+02 -0.22203604016E+02  0.26665357508E+02  0.00000000000E+00 0. -1.
        -14    1    6    6    0    0 -0.18988395535E+02  0.65400236216E+01  0.61041086206E+02  0.64259981942E+02  0.00000000000E+00 0.  1.
</event>
<event>
12    1  0.8451514E-002  0.2035166E+03  0.7818608E-02  0.1147106E+00
         21   -1    0    0  503  502  0.00000000000E+00  0.00000000000E+00  0.52067154152E+03  0.52067154152E+03  0.00000000000E+00 0.  1.
         21   -1    0    0  501  503 -0.00000000000E+00 -0.00000000000E+00 -0.85927867497E+02  0.85927867497E+02  0.00000000000E+00 0.  1.
          6    2    1    2  501    0 -0.73009851216E+01  0.10583038109E+03  0.30430679238E+03  0.36608965677E+03  0.17368258104E+03 0.  0.
         24    2    3    3    0    0  0.22450393343E+02 -0.72900662360E+01  0.93204583294E+02  0.12470280376E+03  0.79413661871E+02 0.  0.
         -6    2    1    2    0  502  0.73009851216E+01 -0.10583038109E+03  0.13043688164E+03  0.24050975225E+03  0.17198193768E+03 0.  0.
        -24    2    5    5    0    0 -0.14536103625E+02 -0.54697184486E+02  0.15190879497E+03  0.18072183288E+03  0.79881278109E+02 0.  0.
          5    1    3    3  501    0 -0.29751378464E+02  0.11312044733E+03  0.21110220908E+03  0.24138685301E+03  0.47000000000E+01 0. -1.
        -13    1    4    4    0    0 -0.52579803859E+01  0.32330888844E+02  0.25519530970E+02  0.41523236773E+02  0.00000000000E+00 0.  1.
         14    1    4    4    0    0  0.27708373729E+02 -0.39620955080E+02  0.67685052324E+02  0.83179566988E+02  0.00000000000E+00 0. -1.
         -5    1    5    5    0  502  0.21837088747E+02 -0.51133196604E+02 -0.21471913328E+02  0.59787919364E+02  0.47000000000E+01 0.  1.
         13    1    6    6    0    0 -0.14537809715E+02  0.14328173579E+02  0.96005480752E+01  0.22556927822E+02  0.00000000000E+00 0. -1.
        -14    1    6    6    0    0  0.17060903174E-02 -0.69025358065E+02  0.14230824690E+03  0.15816490506E+03  0.00000000000E+00 0.  1.
</event>
<event>
12    1  0.8451514E-002  0.2360550E+03  0.7818608E-02  0.1122530E+00
         21   -1    0    0  501  502  0.00000000000E+00  0.00000000000E+00  0.39306170370E+02  0.39306170370E+02  0.00000000000E+00 0.  1.
         21   -1    0    0  502  503 -0.00000000000E+00 -0.00000000000E+00 -0.14233130160E+04  0.14233130160E+04  0.00000000000E+00 0.  1.
         -6    2    1    2    0  503 -0.16029275149E+03 -0.18823185663E+02 -0.74788212516E+03  0.78410859670E+03  0.17161159571E+03 0.  0.
        -24    2    3    3    0    0 -0.71119575229E+02 -0.38847147591E+02 -0.20833202427E+03  0.23685251789E+03  0.78292962898E+02 0.  0.
          6    2    1    2  501    0  0.16029275149E+03  0.18823185663E+02 -0.63612472047E+03  0.67851058968E+03  0.17226108616E+03 0.  0.
         24    2    5    5    0    0  0.69885274965E+02 -0.24363184359E+02 -0.48617651550E+03  0.49810790527E+03  0.79160373013E+02 0.  0.
          5    1    5    5  501    0  0.90407476528E+02  0.43186370022E+02 -0.14994820497E+03  0.18040268441E+03  0.47000000000E+01 0. -1.
        -13    1    6    6    0    0  0.74424008789E+02  0.85022871424E+01 -0.31983053827E+03  0.32848560879E+03  0.00000000000E+00 0.  1.
         14    1    6    6    0    0 -0.45387338240E+01 -0.32865471501E+02 -0.16634597723E+03  0.16962229648E+03  0.00000000000E+00 0. -1.
         -5    1    3    3    0  503 -0.89173176264E+02  0.20023961928E+02 -0.53955010090E+03  0.54725607881E+03  0.47000000000E+01 0.  1.
         13    1    4    4    0    0 -0.48177176586E+02  0.15218593190E+02 -0.67910639751E+02  0.84643374897E+02  0.00000000000E+00 0. -1.
        -14    1    4    4    0    0 -0.22942398643E+02 -0.54065740781E+02 -0.14042138451E+03  0.15220914299E+03  0.00000000000E+00 0.  1.
</event>
<event>
12    1  0.8451514E-002  0.1932196E+03  0.7818608E-02  0.1156276E+00
         21   -1    0    0  503  502  0.00000000000E+00  0.00000000000E+00  0.31379671508E+03  0.31379671508E+03  0.00000000000E+00 0.  1.
         21   -1    0    0  501  503 -0.00000000000E+00 -0.00000000000E+00 -0.11783942276E+03  0.11783942276E+03  0.00000000000E+00 0.  1.
          6    2    1    2  501    0  0.60266646298E+02 -0.62807072545E+02  0.11607762508E+03  0.22540591617E+03  0.17250221733E+03 0.  0.
         24    2    3    3    0    0 -0.24749133118E+02 -0.43305261376E+02  0.99505096997E+02  0.13649729974E+03  0.79008754297E+02 0.  0.
         -6    2    1    2    0  502 -0.60266646298E+02  0.62807072545E+02  0.79879667237E+02  0.20623022167E+03  0.16903652290E+03 0.  0.
        -24    2    5    5    0    0 -0.96019587720E+01  0.25770904321E+02 -0.21002589239E+02  0.87327286502E+02  0.80178607441E+02 0.  0.
          5    1    3    3  501    0  0.85015779416E+02 -0.19501811169E+02  0.16572528084E+02  0.88908616431E+02  0.47000000000E+01 0. -1.
        -11    1    4    4    0    0 -0.27497637084E+02 -0.38552199344E+02  0.12040681877E+02  0.48860721848E+02  0.00000000000E+00 0.  1.
         12    1    4    4    0    0  0.27485039655E+01 -0.47530620322E+01  0.87464415120E+02  0.87636577894E+02  0.00000000000E+00 0. -1.
         -5    1    5    5    0  502 -0.50664687526E+02  0.37036168224E+02  0.10088225648E+03  0.11890293516E+03  0.47000000000E+01 0.  1.
         13    1    6    6    0    0  0.17974914744E+02 -0.33696476947E+01  0.21937615368E+02  0.28560655694E+02  0.00000000000E+00 0. -1.
        -14    1    6    6    0    0 -0.27576873516E+02  0.29140552015E+02 -0.42940204608E+02  0.58766630807E+02  0.00000000000E+00 0.  1.
</event>
<event>
12    1  0.8451514E-002  0.2138907E+03  0.7818608E-02  0.1138763E+00
         21   -1    0    0  501  502  0.00000000000E+00  0.00000000000E+00  0.89007593947E+03  0.89007593947E+03  0.00000000000E+00 0.  1.
         21   -1    0    0  502  503 -0.00000000000E+00 -0.00000000000E+00 -0.12578102308E+03  0.12578102308E+03  0.00000000000E+00 0.  1.
         -6    2    1    2    0  503  0.73641218085E+02 -0.10313392880E+03 -0.87788891024E+01  0.21407077938E+03  0.17230668420E+03 0.  0.
        -24    2    3    3    0    0  0.44206295879E+02 -0.21687706394E+02  0.40708770673E+02  0.11421578321E+03  0.94675698684E+02 0.  0.
          6    2    1    2  501    0 -0.73641218085E+02  0.10313392880E+03  0.77307380550E+03  0.80178618317E+03  0.17075812868E+03 0.  0.
         24    2    5    5    0    0 -0.52361266992E+02  0.26359423269E+02  0.63208167465E+03  0.63977373927E+03  0.79666006277E+02 0.  0.
          5    1    5    5  501    0 -0.21279951093E+02  0.76774505531E+02  0.14099213085E+03  0.16201244390E+03  0.47000000000E+01 0. -1.
        -11    1    6    6    0    0 -0.43303281217E+02  0.47441459241E+02  0.29500083330E+03  0.30191283157E+03  0.00000000000E+00 0.  1.
         12    1    6    6    0    0 -0.90579857749E+01 -0.21082035972E+02  0.33708084135E+03  0.33786090770E+03  0.00000000000E+00 0. -1.
         -5    1    3    3    0  503  0.29434922206E+02 -0.81446222407E+02 -0.49487659776E+02  0.99854996168E+02  0.47000000000E+01 0.  1.
         11    1    4    4    0    0  0.28132007261E+02  0.28086128131E+02 -0.10395937733E+02  0.41089122007E+02  0.00000000000E+00 0. -1.
        -12    1    4    4    0    0  0.16074288618E+02 -0.49773834525E+02  0.51104708407E+02  0.73126661207E+02  0.00000000000E+00 0.  1.
</event>
<event>
12    1  0.8451514E-002  0.1830457E+03  0.7818608E-02  0.1165618E+00
         21   -1    0    0  501  502  0.00000000000E+00  0.00000000000E+00  0.22255965225E+03  0.22255965225E+03  0.00000000000E+00 0.  1.
         21   -1    0    0  502  503 -0.00000000000E+00 -0.00000000000E+00 -0.25496630832E+03  0.25496630832E+03  0.00000000000E+00 0.  1.
         -6    2    1    2    0  503  0.39641441461E+02  0.39552985356E+02 -0.17073882692E+03  0.24808859866E+03  0.17105649137E+03 0.  0.
        -24    2    3    3    0    0  0.47245928089E+02 -0.71055719618E+01 -0.17747594226E+03  0.20010601942E+03  0.79133065472E+02 0.  0.
          6    2    1    2  501    0 -0.39641441461E+02 -0.39552985356E+02  0.13833217084E+03  0.22943736190E+03  0.17426942077E+03 0.  0.
         24    2    5    5    0    0  0.23225798149E+02 -0.20188467232E+01  0.13143507294E+03  0.15574366245E+03  0.80233388026E+02 0.  0.
          5    1    5    5  501    0 -0.62867239610E+02 -0.37534138632E+02  0.68970979008E+01  0.73693699449E+02  0.47000000000E+01 0. -1.
        -11    1    6    6    0    0 -0.10663077809E+02  0.27352436561E+02  0.19726067203E+02  0.35369121299E+02  0.00000000000E+00 0.  1.
         12    1    6    6    0    0  0.33888875958E+02 -0.29371283284E+02  0.11170900574E+03  0.12037454116E+03  0.00000000000E+00 0. -1.
         -5    1    3    3    0  503 -0.76044866283E+01  0.46658557317E+02  0.67371153476E+01  0.47982579245E+02  0.47000000000E+01 0.  1.
         13    1    4    4    0    0  0.26054648931E+02 -0.26437892280E+02 -0.24526360442E+02  0.44489877901E+02  0.00000000000E+00 0. -1.
        -14    1    4    4    0    0  0.21191279159E+02  0.19332320318E+02 -0.15294958182E+03  0.15561614152E+03  0.00000000000E+00 0.  1.
</event>
<event>
12    1  0.8451514E-002  0.2241498E+03  0.7818608E-02  0.1130956E+00
         21   -1    0    0  503  502  0.00000000000E+00  0.00000000000E+00  0.67798137073E+03  0.67798137073E+03  0.00000000000E+00 0.  1.
         21   -1    0    0  501  503 -0.00000000000E+00 -0.00000000000E+00 -0.55736075363E+03  0.55736075363E+03  0.00000000000E+00 0. -1.
          6    2    1    2  501    0 -0.14253479724E+03 -0.14034268673E+02 -0.51496112600E+03  0.56162987237E+03  0.17242396329E+03 0.  0.
         24    2    3    3    0    0 -0.91646002500E+02 -0.69495851721E+02 -0.25830671131E+03  0.29412429260E+03  0.80981968421E+02 0.  0.
         -6    2    1    2    0  502  0.14253479724E+03  0.14034268673E+02  0.63558174310E+03  0.67371225199E+03  0.17149611425E+03 0.  0.
        -24    2    5    5    0    0  0.94238649125E+01  0.36057578264E+02  0.21443197940E+03  0.23145354950E+03  0.78744610006E+02 0.  0.
          5    1    3    3  501    0 -0.50888794742E+02  0.55461583048E+02 -0.25665441469E+03  0.26750557977E+03  0.47000000000E+01 0. -1.
        -13    1    4    4    0    0  0.80165341753E+01 -0.67986916274E+01 -0.29421126454E+00  0.10515397677E+02  0.00000000000E+00 0.  1.
         14    1    4    4    0    0 -0.99662536675E+02 -0.62697160093E+02 -0.25801250004E+03  0.28360889492E+03  0.00000000000E+00 0. -1.
         -5    1    5    5    0  502  0.13311093233E+03 -0.22023309591E+02  0.42114976370E+03  0.44225870249E+03  0.47000000000E+01 0.  1.
         11    1    6    6    0    0 -0.17236630535E+02  0.49364973307E+01  0.58137826963E+01  0.18848620833E+02  0.00000000000E+00 0. -1.
        -12    1    6    6    0    0  0.26660495447E+02  0.31121080933E+02  0.20861819670E+03  0.21260492866E+03  0.00000000000E+00 0.  1.
</event>
<event>
12    1  0.8451514E-002  0.1842911E+03  0.7818608E-02  0.1164117E+00
         21   -1    0    0  501  502  0.00000000000E+00  0.00000000000E+00  0.21391533038E+03  0.21391533038E+03  0.00000000000E+00 0. -1.
         21   -1    0    0  502  503 -0.00000000000E+00 -0.00000000000E+00 -0.19089559730E+03  0.19089559730E+03  0.00000000000E+00 0. -1.
         -6    2    1    2    0  503 -0.13498781520E+02 -0.63757179458E+02  0.96379658150E+02  0.20645543487E+03  0.17055091042E+03 0.  0.
        -24    2    3    3    0    0  0.41704831882E+02 -0.43079115035E+02  0.85689298638E+01  0.10058837066E+03  0.80308720568E+02 0.  0.
          6    2    1    2  501    0  0.13498781520E+02  0.63757179458E+02 -0.73359925063E+02  0.19835549281E+03  0.17238337475E+03 0.  0.
         24    2    5    5    0    0  0.12736893442E+01 -0.32736447900E+01 -0.97954962091E+02  0.12576355025E+03  0.78796934837E+02 0.  0.
          5    1    5    5  501    0  0.12225092176E+02  0.67030824248E+02  0.24595037028E+02  0.72591942559E+02  0.47000000000E+01 0. -1.
        -13    1    6    6    0    0  0.95490959319E+01 -0.37026563679E+02 -0.27171096925E+02  0.46908636295E+02  0.00000000000E+00 0.  1.
         14    1    6    6    0    0 -0.82754065877E+01  0.33752918889E+02 -0.70783865166E+02  0.78854913959E+02  0.00000000000E+00 0. -1.
         -5    1    3    3    0  503 -0.55203613402E+02 -0.20678064423E+02  0.87810728286E+02  0.10586706420E+03  0.47000000000E+01 0.  1.
         11    1    4    4    0    0 -0.19163407239E+02 -0.18873591008E+02 -0.15211898583E+02  0.30900654897E+02  0.00000000000E+00 0. -1.
        -12    1    4    4    0    0  0.60868239121E+02 -0.24205524028E+02  0.23780828447E+02  0.69687715767E+02  0.00000000000E+00 0.  1.
</event>
<event>
12    1  0.8451514E-002  0.2404453E+03  0.7818608E-02  0.1121654E+00
         21   -1    0    0  503  502  0.00000000000E+00  0.00000000000E+00  0.26316453591E+02  0.26316453591E+02  0.00000000000E+00 0. -1.
         21   -1    0    0  501  503 -0.00000000000E+00 -0.00000000000E+00 -0.22533391626E+04  0.22533391626E+04  0.00000000000E+00 0.  1.
          6    2    1    2  501    0 -0.10316033063E+03 -0.10876137302E+03 -0.82805569792E+03  0.86225875480E+03  0.18799689174E+03 0.  0.
         24    2    3    3    0    0 -0.45578283964E+02 -0.70637642278E+02 -0.20869809989E+03  0.23904528000E+03  0.80750805049E+02 0.  0.
         -6    2    1    2    0  502  0.10316033063E+03  0.10876137302E+03 -0.13989670111E+04  0.14173968614E+04  0.17156361640E+03 0.  0.
        -24    2    5    5    0    0  0.38533976693E+02  0.45362018509E+02 -0.11115184533E+04  0.11159921382E+04  0.80141128275E+02 0.  0.
          5    1    3    3  501    0 -0.57582046666E+02 -0.38123730747E+02 -0.61935759803E+03  0.62321347480E+03  0.47000000000E+01 0. -1.
        -11    1    4    4    0    0 -0.23465382160E+02  0.14964775556E+02 -0.42670974916E+02  0.50944879700E+02  0.00000000000E+00 0.  1.
         12    1    4    4    0    0 -0.22112901804E+02 -0.85602417834E+02 -0.16602712497E+03  0.18810040030E+03  0.00000000000E+00 0. -1.
         -5    1    5    5    0  502  0.64626353937E+02  0.63399354516E+02 -0.28744855778E+03  0.30140472316E+03  0.47000000000E+01 0.  1.
         11    1    6    6    0    0  0.44600264213E+02  0.60186136616E+02 -0.66846469631E+03  0.67264894620E+03  0.00000000000E+00 0. -1.
        -12    1    6    6    0    0 -0.60662875197E+01 -0.14824118107E+02 -0.44305375701E+03  0.44334319203E+03  0.00000000000E+00 0.  1.
</event>
<event>
12    1  0.8451514E-002  0.1853214E+03  0.7818608E-02  0.1163584E+00
         21   -1    0    0  503  502  0.00000000000E+00  0.00000000000E+00  0.83374925073E+03  0.83374925073E+03  0.00000000000E+00 0. -1.
         21   -1    0    0  501  503 -0.00000000000E+00 -0.00000000000E+00 -0.40664108654E+02  0.40664108654E+02  0.00000000000E+00 0. -1.
          6    2    1    2  501    0  0.57172362089E+02  0.98370543797E+01  0.43500402054E+03  0.47283455467E+03  0.17600730547E+03 0.  0.
         24    2    3    3    0    0  0.60934764502E+02  0.66136887859E+02  0.35547270064E+03  0.37520695731E+03  0.79575664942E+02 0.  0.
         -6    2    1    2    0  502 -0.57172362089E+02 -0.98370543797E+01  0.35808112153E+03  0.40157880471E+03  0.17227303959E+03 0.  0.
        -24    2    5    5    0    0 -0.76189249877E+02  0.45834082870E+02  0.19975675224E+03  0.23261249607E+03  0.79374103545E+02 0.  0.
          5    1    3    3  501    0 -0.37624024129E+01 -0.56299833479E+02  0.79531319903E+02  0.97627597365E+02  0.47000000000E+01 0. -1.
        -13    1    4    4    0    0 -0.15430341218E+02 -0.44819045185E+01  0.47740153723E+02  0.50371670368E+02  0.00000000000E+00 0.  1.
         14    1    4    4    0    0  0.76365105720E+02  0.70618792377E+02  0.30773254692E+03  0.32483528694E+03  0.00000000000E+00 0. -1.
         -5    1    5    5    0  502  0.19016887788E+02 -0.55671137250E+02  0.15832436929E+03  0.16896630864E+03  0.47000000000E+01 0.  1.
         11    1    6    6    0    0 -0.35210807754E+02 -0.17865306790E+02  0.98834939474E+02  0.10642986155E+03  0.00000000000E+00 0. -1.
        -12    1    6    6    0    0 -0.40978442123E+02  0.63699389660E+02  0.10092181276E+03  0.12618263452E+03  0.00000000000E+00 0.  1.
</event>
<event>
12    1  0.8451514E-002  0.2023688E+03  0.7818608E-02  0.1149215E+00
         21   -1    0    0  503  502  0.00000000000E+00  0.00000000000E+00  0.84932554760E+03  0.84932554760E+03  0.00000000000E+00 0. -1.
         21   -1    0    0  501  503 -0.00000000000E+00 -0.00000000000E+00 -0.48057873525E+02  0.48057873525E+02  0.00000000000E+00 0.  1.
          6    2    1    2  501    0 -0.54371516633E+02 -0.65688895702E+02  0.32893240096E+03  0.38619901061E+03  0.18352617948E+03 0.  0.
         24    2    3    3    0    0 -0.75369531495E+02 -0.18690018785E+02  0.10468732287E+03  0.15607348811E+03  0.85846462012E+02 0.  0.
         -6    2    1    2    0  502  0.54371516633E+02  0.65688895702E+02  0.47233527311E+03  0.51118441051E+03  0.17589087096E+03 0.  0.
        -24    2    5    5    0    0  0.79492209983E+02 -0.97301782832E+01  0.23886257025E+03  0.26450510669E+03  0.80584962492E+02 0.  0.
          5    1    3    3  501    0  0.20998014862E+02 -0.46998876917E+02  0.22424507809E+03  0.23012552250E+03  0.47000000000E+01 0. -1.
        -11    1    4    4    0    0 -0.69108542727E+02 -0.13800214024E+02  0.11980520926E+03  0.13899541270E+03  0.00000000000E+00 0.  1.
         12    1    4    4    0    0 -0.62609887674E+01 -0.48898047614E+01 -0.15117886387E+02  0.17078075411E+02  0.00000000000E+00 0. -1.
         -5    1    5    5    0  502 -0.25120693350E+02  0.75419073986E+02  0.23347270286E+03  0.24667930382E+03  0.47000000000E+01 0.  1.
         13    1    6    6    0    0  0.18548106834E+02  0.76928687950E+01  0.16893799154E+03  0.17012718032E+03  0.00000000000E+00 0. -1.
        -14    1    6    6    0    0  0.60944103150E+02 -0.17423047078E+02  0.69924578716E+02  0.94377926375E+02  0.00000000000E+00 0.  1.
</event>
<event>
12    1  0.8451514E-002  0.2014318E+03  0.7818608E-02  0.1148625E+00
         21   -1    0    0  501  502  0.00000000000E+00  0.00000000000E+00  0.18365270390E+03  0.18365270390E+03  0.00000000000E+00 0.  1.
         21   -1    0    0  502  503 -0.00000000000E+00 -0.00000000000E+00 -0.43650487335E+03  0.43650487335E+03  0.00000000000E+00 0.  1.
         -6    2    1    2    0  503 -0.35868634448E+02  0.10023319935E+03 -0.34463560303E+03  0.39918476410E+03  0.17100153163E+03 0.  0.
        -24    2    3    3    0    0 -0.89875299022E+01  0.26795433266E+02 -0.56597123968E+02  0.10068190868E+03  0.78325228097E+02 0.  0.
          6    2    1    2  501    0  0.35868634448E+02 -0.10023319935E+03  0.91783433590E+02  0.22097281315E+03  0.17050376032E+03 0.  0.
         24    2    5    5    0    0 -0.18145052120E+02 -0.66065137494E+02  0.11132099455E+03  0.15397474545E+03  0.81375752522E+02 0.  0.
          5    1    5    5  501    0  0.54013686568E+02 -0.34168061860E+02 -0.19537560965E+02  0.66998067706E+02  0.47000000000E+01 0. -1.
        -11    1    6    6    0    0 -0.46625550352E+02 -0.46248024348E+02  0.46552700809E+02  0.80498295972E+02  0.00000000000E+00 0.  1.
         12    1    6    6    0    0  0.28480498232E+02 -0.19817113146E+02  0.64768293746E+02  0.73476449477E+02  0.00000000000E+00 0. -1.
         -5    1    3    3    0  503 -0.26881104546E+02  0.73437766088E+02 -0.28803847906E+03  0.29850285541E+03  0.47000000000E+01 0.  1.
         11    1    4    4    0    0 -0.42908664785E+02  0.18763200824E+02 -0.41941274032E+02  0.62867174951E+02  0.00000000000E+00 0. -1.
        -12    1    4    4    0    0  0.33921134883E+02  0.80322324418E+01 -0.14655849936E+02  0.37814733730E+02  0.00000000000E+00 0.  1.
</event>
<event>
12    1  0.8451514E-002  0.1773319E+03  0.7818608E-02  0.1170521E+00
         21   -1    0    0  501  502  0.00000000000E+00  0.00000000000E+00  0.28346662976E+03  0.28346662976E+03  0.00000000000E+00 0. -1.
         21   -1    0    0  502  503 -0.00000000000E+00 -0.00000000000E+00 -0.20761204858E+03  0.20761204858E+03  0.00000000000E+00 0. -1.
         -6    2    1    2    0  503 -0.21736724226E+01 -0.38242224986E+02 -0.12984220415E+03  0.21978531635E+03  0.17314558811E+03 0.  0.
        -24    2    3    3    0    0 -0.66082922663E+02 -0.10219807226E+02 -0.10011444043E+03  0.14378874999E+03  0.78618740211E+02 0.  0.
          6    2    1    2  501    0  0.21736724226E+01  0.38242224986E+02  0.20569678533E+03  0.27129336199E+03  0.17268968741E+03 0.  0.
         24    2    5    5    0    0 -0.48406902656E+02 -0.18134567892E+02  0.87798585318E+02  0.13108347319E+03  0.82475418049E+02 0.  0.
          5    1    5    5  501    0  0.50580575079E+02  0.56376792878E+02  0.11789820001E+03  0.14020988880E+03  0.47000000000E+01 0. -1.
        -11    1    6    6    0    0 -0.46950112268E+02  0.23830709948E+02  0.33354634214E+02  0.62327741834E+02  0.00000000000E+00 0.  1.
         12    1    6    6    0    0 -0.14567903878E+01 -0.41965277840E+02  0.54443951104E+02  0.68755731355E+02  0.00000000000E+00 0. -1.
         -5    1    3    3    0  503  0.63909250240E+02 -0.28022417760E+02 -0.29727763718E+02  0.75996566364E+02  0.47000000000E+01 0.  1.
         13    1    4    4    0    0  0.92100226984E+01  0.19738015280E+02 -0.26574660904E+02  0.34360243995E+02  0.00000000000E+00 0. -1.
        -14    1    4    4    0    0 -0.75292945361E+02 -0.29957822506E+02 -0.73539779528E+02  0.10942850599E+03  0.00000000000E+00 0.  1.
</event>
<event>
12    1  0.8451514E-002  0.1866013E+03  0.7818608E-02  0.1162059E+00
         21   -1    0    0  503  502  0.00000000000E+00  0.00000000000E+00  0.42379564107E+02  0.42379564107E+02  0.00000000000E+00 0.  1.
         21   -1    0    0  501  503 -0.00000000000E+00 -0.00000000000E+00 -0.12388125037E+04  0.12388125037E+04  0.00000000000E+00 0.  1.
          6    2    1    2  501    0  0.57810107947E+02 -0.41203863699E+02 -0.22006375047E+03  0.28715140509E+03  0.17025894457E+03 0.  0.
         24    2    3    3    0    0  0.10349076878E+03 -0.23864967657E+02 -0.13920958879E+03  0.19256363869E+03  0.80134695547E+02 0.  0.
         -6    2    1    2    0  502 -0.57810107947E+02  0.41203863699E+02 -0.97636918913E+03  0.99404066273E+03  0.17256963439E+03 0.  0.
        -24    2    5    5    0    0 -0.54822411555E+02  0.37546579871E+01 -0.92601640902E+03  0.93104175954E+03  0.79452967047E+02 0.  0.
          5    1    3    3  501    0 -0.45680660835E+02 -0.17338896042E+02 -0.80854161689E+02  0.94587766401E+02  0.47000000000E+01 0. -1.
        -13    1    4    4    0    0  0.37898920625E+02 -0.15465681985E+01 -0.11179111781E+03  0.11805072672E+03  0.00000000000E+00 0.  1.
         14    1    4    4    0    0  0.65591848157E+02 -0.22318399459E+02 -0.27418470972E+02  0.74512911965E+02  0.00000000000E+00 0. -1.
         -5    1    5    5    0  502 -0.29876963924E+01  0.37449205712E+02 -0.50352780114E+02  0.62998903192E+02  0.47000000000E+01 0.  1.
         13    1    6    6    0    0  0.17052311513E+02 -0.48168846634E+01 -0.35705813826E+03  0.35749754936E+03  0.00000000000E+00 0. -1.
        -14    1    6    6    0    0 -0.71874723068E+02  0.85715426505E+01 -0.56895827076E+03  0.57354421018E+03  0.00000000000E+00 0.  1.
</event>
<event>
12    1  0.8451514E-002  0.1888600E+03  0.7818608E-02  0.1159869E+00
         21   -1    0    0  501  502  0.00000000000E+00  0.00000000000E+00  0.20142172828E+03  0.20142172828E+03  0.00000000000E+00 0. -1.
         21   -1    0    0  502  503 -0.00000000000E+00 -0.00000000000E+00 -0.17749443504E+03  0.17749443504E+03  0.00000000000E+00 0. -1.
         -6    2    1    2    0  503  0.30095086855E+02 -0.68685448804E+02 -0.78559496116E+01  0.18902328443E+03  0.17333401565E+03 0.  0.
        -24    2    3    3    0    0  0.16954446158E+02 -0.86891536057E+02  0.49032094097E+02  0.12768424655E+03  0.77855817273E+02 0.  0.
          6    2    1    2  501    0 -0.30095086855E+02  0.68685448804E+02  0.31783242854E+02  0.18989287889E+03  0.17153928354E+03 0.  0.
         24    2    5    5    0    0  0.31919891462E+02  0.27676751829E+02 -0.31245258005E+02  0.92310848353E+02  0.75895615902E+02 0.  0.
          5    1    5    5  501    0 -0.62014978316E+02  0.41008696975E+02  0.63028500858E+02  0.97582030536E+02  0.47000000000E+01 0. -1.
        -13    1    6    6    0    0 -0.51933288747E+01 -0.23192664203E+02 -0.10801257589E+02  0.26106273253E+02  0.00000000000E+00 0.  1.
         14    1    6    6    0    0  0.37113220336E+02  0.50869416032E+02 -0.20444000416E+02  0.66204575100E+02  0.00000000000E+00 0. -1.
         -5    1    3    3    0  503  0.13140640697E+02  0.18206087253E+02 -0.56888043709E+02  0.61339037880E+02  0.47000000000E+01 0.  1.
         13    1    4    4    0    0  0.46431175165E+02 -0.61502394736E+02  0.21435713445E+02  0.79986801389E+02  0.00000000000E+00 0. -1.
        -14    1    4    4    0    0 -0.29476729008E+02 -0.25389141321E+02  0.27596380652E+02  0.47697445164E+02  0.00000000000E+00 0.  1.
</event>
<event>
12    1  0.8451514E-002  0.2069609E+03  0.7818608E-02  0.1144052E+00
         21   -1    0    0  501  502  0.00000000000E+00  0.00000000000E+00  0.31743149862E+03  0.31743149862E+03  0.00000000000E+00 0.  1.
         21   -1    0    0  502  503 -0.00000000000E+00 -0.00000000000E+00 -0.15128717533E+03  0.15128717533E+03  0.00000000000E+00 0.  1.
         -6    2    1    2    0  503 -0.39678257462E+02  0.10716147602E+03  0.55420280994E+01  0.20675317636E+03  0.17221560847E+03 0.  0.
        -24    2    3    3    0    0  0.21807789327E+02 -0.17239421629E+01  0.11355833981E+02  0.81483632648E+02  0.77666439163E+02 0.  0.
          6    2    1    2  501    0  0.39678257462E+02 -0.10716147602E+03  0.16060229518E+03  0.26196549759E+03  0.17255398763E+03 0.  0.
         24    2    5    5    0    0 -0.88055701056E+01 -0.11617715877E+03  0.15817022625E+03  0.21236742272E+03  0.80668652386E+02 0.  0.
          5    1    5    5  501    0  0.48483827568E+02  0.90156827429E+01  0.24320689350E+01  0.49598074864E+02  0.47000000000E+01 0. -1.
        -13    1    6    6    0    0  0.13441701425E+02 -0.94782232410E+02  0.15384850439E+03  0.18120075392E+03  0.00000000000E+00 0.  1.
         14    1    6    6    0    0 -0.22247271531E+02 -0.21394926356E+02  0.43217218576E+01  0.31166668801E+02  0.00000000000E+00 0. -1.
         -5    1    3    3    0  503 -0.61486046789E+02  0.10888541819E+03 -0.58138058813E+01  0.12526954371E+03  0.47000000000E+01 0.  1.
         11    1    4    4    0    0 -0.25100650853E+02 -0.11490724836E+02  0.18225251277E+02  0.33079286791E+02  0.00000000000E+00 0. -1.
        -12    1    4    4    0    0  0.46908440179E+02  0.97667826728E+01 -0.68694172967E+01  0.48404345857E+02  0.00000000000E+00 0.  1.
</event>
<event>
12    1  0.8451514E-002  0.1817213E+03  0.7818608E-02  0.1166168E+00
         21   -1    0    0  501  502  0.00000000000E+00  0.00000000000E+00  0.78660161983E+02  0.78660161983E+02  0.00000000000E+00 0. -1.
         21   -1    0    0  502  503 -0.00000000000E+00 -0.00000000000E+00 -0.17254256703E+04  0.17254256703E+04  0.00000000000E+00 0. -1.
         -6    2    1    2    0  503 -0.37418451196E+02 -0.44656814126E+02 -0.16080630303E+04  0.16182888223E+04  0.17203962141E+03 0.  0.
        -24    2    3    3    0    0 -0.15103561930E+02 -0.62909192312E+02 -0.52216792823E+03  0.53200093856E+03  0.78612780767E+02 0.  0.
          6    2    1    2  501    0  0.37418451196E+02  0.44656814126E+02 -0.38702478003E+02  0.18579701000E+03  0.17212865997E+03 0.  0.
         24    2    5    5    0    0 -0.14767417055E+02 -0.14961512256E+02 -0.62092107312E+02  0.10305116753E+03  0.79512199593E+02 0.  0.
          5    1    5    5  501    0  0.52185868251E+02  0.59618326382E+02  0.23389629310E+02  0.82745842463E+02  0.47000000000E+01 0. -1.
        -11    1    6    6    0    0  0.18606006448E+02 -0.21509908594E+02 -0.62900893038E+02  0.69031746238E+02  0.00000000000E+00 0.  1.
         12    1    6    6    0    0 -0.33373423504E+02  0.65483963385E+01  0.80878572531E+00  0.34019421296E+02  0.00000000000E+00 0. -1.
         -5    1    3    3    0  503 -0.22314889266E+02  0.18252378186E+02 -0.10858951021E+04  0.10862878837E+04  0.47000000000E+01 0.  1.
         13    1    4    4    0    0 -0.19542324061E+02  0.30336106270E+01 -0.28818516391E+03  0.28886293275E+03  0.00000000000E+00 0. -1.
        -14    1    4    4    0    0  0.44387621315E+01 -0.65942802939E+02 -0.23398276432E+03  0.24313800581E+03  0.00000000000E+00 0.  1.
</event>
<event>
12    1  0.8451514E-002  0.2271130E+03  0.7818608E-02  0.1129092E+00
         21   -1    0    0  501  502  0.00000000000E+00  0.00000000000E+00  0.25583056416E+03  0.25583056416E+03  0.00000000000E+00 0. -1.
         21   -1    0    0  502  503 -0.00000000000E+00 -0.00000000000E+00 -0.28070223272E+03  0.28070223272E+03  0.00000000000E+00 0.  1.
         -6    2    1    2    0  503 -0.10373883373E+03 -0.10555871799E+03  0.13177792076E+03  0.26063532453E+03  0.16929549145E+03 0.  0.
        -24    2    3    3    0    0 -0.39689310334E+02 -0.54743778427E+02 -0.20280369404E+01  0.10375758919E+03  0.78672750997E+02 0.  0.
          6    2    1    2  501    0  0.10373883373E+03  0.10555871799E+03 -0.15664958931E+03  0.27589747235E+03  0.17226703936E+03 0.  0.
         24    2    5    5    0    0  0.75746634852E+02 -0.32941860141E+01 -0.10621305892E+03  0.15261547242E+03  0.79131941617E+02 0.  0.
          5    1    5    5  501    0  0.27992198883E+02  0.10885290401E+03 -0.50436530388E+02  0.12328199993E+03  0.47000000000E+01 0. -1.
        -13    1    6    6    0    0  0.15416445753E+02 -0.33299118478E+02 -0.16035524874E+02  0.40045426069E+02  0.00000000000E+00 0.  1.
         14    1    6    6    0    0  0.60330189099E+02  0.30004932464E+02 -0.90177534050E+02  0.11257004635E+03  0.00000000000E+00 0. -1.
         -5    1    3    3    0  503 -0.64049523401E+02 -0.50814939566E+02  0.13380595770E+03  0.15687773534E+03  0.47000000000E+01 0.  1.
         11    1    4    4    0    0  0.28632345945E+01  0.17823641670E+02  0.65369571315E+01  0.19199274029E+02  0.00000000000E+00 0. -1.
        -12    1    4    4    0    0 -0.42552544929E+02 -0.72567420096E+02 -0.85649940718E+01  0.84558315161E+02  0.00000000000E+00 0.  1.
</event>
<event>
12    1  0.8451514E-002  0.2009970E+03  0.7818608E-02  0.1149070E+00
         21   -1    0    0  501  502  0.00000000000E+00  0.00000000000E+00  0.59569445304E+03  0.59569445304E+03  0.00000000000E+00 0. -1.
         21   -1    0    0  502  503 -0.00000000000E+00 -0.00000000000E+00 -0.69891956536E+02  0.69891956536E+02  0.00000000000E+00 0. -1.
         -6    2    1    2    0  503 -0.10226131650E+03 -0.17237480896E+02  0.20246867135E+03  0.28529518063E+03  0.17217801723E+03 0.  0.
        -24    2    3    3    0    0 -0.74770374165E+02 -0.58115291189E+02  0.20088104804E+03  0.23578399167E+03  0.79201637256E+02 0.  0.
          6    2    1    2  501    0  0.10226131650E+03  0.17237480896E+02  0.32333382516E+03  0.38029122894E+03  0.17123711257E+03 0.  0.
         24    2    5    5    0    0  0.95375267250E+02  0.30340047287E+02  0.11889065573E+03  0.17525904989E+03  0.81017198650E+02 0.  0.
          5    1    5    5  501    0  0.68860492463E+01 -0.13102566391E+02  0.20444316943E+03  0.20503217905E+03  0.47000000000E+01 0. -1.
        -11    1    6    6    0    0 -0.11886540298E+02  0.15242957525E+02  0.27045710184E+02  0.33243165218E+02  0.00000000000E+00 0.  1.
         12    1    6    6    0    0  0.10726180755E+03  0.15097089761E+02  0.91844945546E+02  0.14201588468E+03  0.00000000000E+00 0. -1.
         -5    1    3    3    0  503 -0.27490942332E+02  0.40877810293E+02  0.15876233050E+01  0.49511188962E+02  0.47000000000E+01 0.  1.
         13    1    4    4    0    0 -0.48788009702E+02 -0.18849781773E+02  0.33986822975E+02  0.62375382159E+02  0.00000000000E+00 0. -1.
        -14    1    4    4    0    0 -0.25982364463E+02 -0.39265509416E+02  0.16689422507E+03  0.17340860951E+03  0.00000000000E+00 0.  1.
</event>
<event>
12    1  0.8451514E-002  0.2033362E+03  0.7818608E-02  0.1147329E+00
         21   -1    0    0  501  502  0.00000000000E+00  0.00000000000E+00  0.33508752382E+03  0.33508752382E+03  0.00000000000E+00 0.  1.
         21   -1    0    0  502  503 -0.00000000000E+00 -0.00000000000E+00 -0.12293957753E+03  0.12293957753E+03  0.00000000000E+00 0.  1.
         -6    2    1    2    0  503  0.56106728239E+02  0.90752202607E+02  0.88993393384E+02  0.22030318874E+03  0.17096708359E+03 0.  0.
        -24    2    3    3    0    0 -0.10603286967E+02  0.40046120610E+02 -0.10831237739E+02  0.89887009299E+02  0.79033140260E+02 0.  0.
          6    2    1    2  501    0 -0.56106728239E+02 -0.90752202607E+02  0.12315455290E+03  0.23772391261E+03  0.17309444674E+03 0.  0.
         24    2    5    5    0    0 -0.63868751238E+01 -0.12008424604E+03  0.10241272299E+03  0.17620362267E+03  0.78091820900E+02 0.  0.
          5    1    5    5  501    0 -0.49719853115E+02  0.29332043433E+02  0.20741829913E+02  0.61520289936E+02  0.47000000000E+01 0. -1.
        -13    1    6    6    0    0 -0.11768801295E+02 -0.93095366965E+02  0.29648068501E+02  0.98408637833E+02  0.00000000000E+00 0.  1.
         14    1    6    6    0    0  0.53819261714E+01 -0.26988879074E+02  0.72764654489E+02  0.77794984838E+02  0.00000000000E+00 0. -1.
         -5    1    3    3    0  503  0.66710015205E+02  0.50706081997E+02  0.99824631123E+02  0.13041617944E+03  0.47000000000E+01 0.  1.
         13    1    4    4    0    0 -0.37999613522E+02  0.47145042173E+02 -0.35103025510E+01  0.60654330870E+02  0.00000000000E+00 0. -1.
        -14    1    4    4    0    0  0.27396326555E+02 -0.70989215633E+01 -0.73209351881E+01  0.29232678429E+02  0.00000000000E+00 0.  1.
</event>
<event>
12    1  0.8451514E-002  0.2203123E+03  0.7818608E-02  0.1133960E+00
         21   -1    0    0  501  502  0.00000000000E+00  0.00000000000E+00  0.18273048697E+04  0.18273048697E+04  0.00000000000E+00 0.  1.
         21   -1    0    0  502  503 -0.00000000000E+00 -0.00000000000E+00 -0.65201148487E+02  0.65201148487E+02  0.00000000000E+00 0. -1.
         -6    2    1    2    0  503 -0.13618792096E+03  0.87790766272E+01  0.14939594743E+03  0.26481935401E+03  0.17083886896E+03 0.  0.
        -24    2    3    3    0    0 -0.14268189119E+03  0.29897497555E+02  0.16757614562E+03  0.23582333777E+03  0.79239507954E+02 0.  0.
          6    2    1    2  501    0  0.13618792096E+03 -0.87790766272E+01  0.16127077738E+04  0.16276866642E+04  0.17295459268E+03 0.  0.
         24    2    5    5    0    0  0.20855700416E+02 -0.67818590829E+01  0.10430378552E+04  0.10464367901E+04  0.81369739175E+02 0.  0.
          5    1    5    5  501    0  0.11533222054E+03 -0.19972175442E+01  0.56966991859E+03  0.58124987408E+03  0.47000000000E+01 0. -1.
        -13    1    6    6    0    0  0.28313940576E+02  0.32545950690E+02  0.45607174914E+03  0.45810736570E+03  0.00000000000E+00 0.  1.
         14    1    6    6    0    0 -0.74582401595E+01 -0.39327809773E+02  0.58696610610E+03  0.58832942445E+03  0.00000000000E+00 0. -1.
         -5    1    3    3    0  503  0.64939702303E+01 -0.21118420927E+02 -0.18180198188E+02  0.28996016243E+02  0.47000000000E+01 0.  1.
         11    1    4    4    0    0 -0.12202361099E+03  0.48090547365E+02  0.10693341049E+03  0.16922534285E+03  0.00000000000E+00 0. -1.
        -12    1    4    4    0    0 -0.20658280201E+02 -0.18193049811E+02  0.60642735135E+02  0.66597994917E+02  0.00000000000E+00 0.  1.
</event>
<event>
12    1  0.8451514E-002  0.1816930E+03  0.7818608E-02  0.1167196E+00
         21   -1    0    0  503  502  0.00000000000E+00  0.00000000000E+00  0.95271129484E+03  0.95271129484E+03  0.00000000000E+00 0. -1.
         21   -1    0    0  501  503 -0.00000000000E+00 -0.00000000000E+00 -0.48564132638E+02  0.48564132638E+02  0.00000000000E+00 0. -1.
          6    2    1    2  501    0 -0.29326555533E+02 -0.50723034143E+02  0.17282665499E+03  0.24772249657E+03  0.16752465365E+03 0.  0.
         24    2    3    3    0    0  0.42082675646E+02 -0.52301078972E+02  0.10645407818E+03  0.15010499059E+03  0.81808819727E+02 0.  0.
         -6    2    1    2    0  502  0.29326555533E+02  0.50723034143E+02  0.73132050721E+03  0.75355293090E+03  0.17198680867E+03 0.  0.
        -24    2    5    5    0    0 -0.58812599169E+00  0.13507044161E+02  0.14919943825E+03  0.16945794975E+03  0.79200620111E+02 0.  0.
          5    1    3    3  501    0 -0.71409231179E+02  0.15780448296E+01  0.66372576809E+02  0.97617505988E+02  0.47000000000E+01 0. -1.
        -11    1    4    4    0    0  0.23060977933E+02 -0.32236770279E+02  0.11461737892E+03  0.12127720978E+03  0.00000000000E+00 0.  1.
         12    1    4    4    0    0  0.19021697713E+02 -0.20064308693E+02 -0.81633007364E+01  0.28827780805E+02  0.00000000000E+00 0. -1.
         -5    1    5    5    0  502  0.29914681525E+02  0.37215989982E+02  0.58212106896E+03  0.58409498115E+03  0.47000000000E+01 0.  1.
         11    1    6    6    0    0 -0.20840420734E+02  0.90811114117E+01  0.14684519990E+03  0.14859442269E+03  0.00000000000E+00 0. -1.
        -12    1    6    6    0    0  0.20252294742E+02  0.44259327489E+01  0.23542383430E+01  0.20863527056E+02  0.00000000000E+00 0.  1.
</event>
<event>
12    1  0.8451514E-002  0.1763363E+03  0.7818608E-02  0.1171525E+00
         21   -1    0    0  503  502  0.00000000000E+00  0.00000000000E+00  0.53173667789E+03  0.53173667789E+03  0.00000000000E+00 0. -1.
         21   -1    0    0  501  503 -0.00000000000E+00 -0.00000000000E+00 -0.59926622392E+02  0.59926622392E+02  0.00000000000E+00 0. -1.
          6    2    1    2  501    0  0.30711744618E+02 -0.25953067075E+02  0.28487670600E+03  0.33503613643E+03  0.17169071654E+03 0.  0.
         24    2    3    3    0    0 -0.38966728468E+02 -0.19919333982E+01  0.21638852733E+03  0.23432890652E+03  0.81016467127E+02 0.  0.
         -6    2    1    2    0  502 -0.30711744618E+02  0.25953067075E+02  0.18693334950E+03  0.25662716385E+03  0.17116264523E+03 0.  0.
        -24    2    5    5    0    0  0.20864978636E+02  0.66383382758E+02  0.13955169477E+03  0.17562173185E+03  0.80785000751E+02 0.  0.
          5    1    3    3  501    0  0.69678473086E+02 -0.23961133677E+02  0.68488178669E+02  0.10070722991E+03  0.47000000000E+01 0. -1.
        -11    1    4    4    0    0 -0.37948263687E+02  0.33883988302E+02  0.15593591855E+03  0.16402501661E+03  0.00000000000E+00 0.  1.
         12    1    4    4    0    0 -0.10184647814E+01 -0.35875921701E+02  0.60452608777E+02  0.70303889909E+02  0.00000000000E+00 0. -1.
         -5    1    5    5    0  502 -0.51576723254E+02 -0.40430315683E+02  0.47381654727E+02  0.81005431994E+02  0.47000000000E+01 0.  1.
         13    1    6    6    0    0  0.17223165315E+02 -0.27357859247E+01 -0.24877446191E+01  0.17615641384E+02  0.00000000000E+00 0. -1.
        -14    1    6    6    0    0  0.36418133217E+01  0.69119168683E+02  0.14203943939E+03  0.15800609047E+03  0.00000000000E+00 0.  1.
</event>
<event>
12    1  0.8451514E-002  0.1729267E+03  0.7818608E-02  0.1175091E+00
         21   -1    0    0  501  502  0.00000000000E+00  0.00000000000E+00  0.12828220213E+04  0.12828220213E+04  0.00000000000E+00 0.  1.
         21   -1    0    0  502  503 -0.00000000000E+00 -0.00000000000E+00 -0.24639431926E+02  0.24639431926E+02  0.00000000000E+00 0.  1.
         -6    2    1    2    0  503 -0.91136740779E+01  0.15970897011E+02  0.79031190057E+03  0.80900960199E+03  0.17194623383E+03 0.  0.
        -24    2    3    3    0    0  0.10634480444E+02 -0.57371888485E+02  0.35812750931E+03  0.37017638556E+03  0.73284498652E+02 0.  0.
          6    2    1    2  501    0  0.91136740779E+01 -0.15970897011E+02  0.46787068877E+03  0.49845185119E+03  0.17091851259E+03 0.  0.
         24    2    5    5    0    0 -0.34419421949E+02 -0.29752112658E+02  0.42804856203E+03  0.43768225245E+03  0.79185212214E+02 0.  0.
          5    1    5    5  501    0  0.43533096027E+02  0.13781215647E+02  0.39822126732E+02  0.60769598747E+02  0.47000000000E+01 0. -1.
        -13    1    6    6    0    0  0.19767413765E+02 -0.14461110620E+02  0.24369382812E+03  0.24492153076E+03  0.00000000000E+00 0.  1.
         14    1    6    6    0    0 -0.54186835714E+02 -0.15291002038E+02  0.18435473391E+03  0.19276072168E+03  0.00000000000E+00 0. -1.
         -5    1    3    3    0  503 -0.19748154522E+02  0.73342785496E+02  0.43218439126E+03  0.43883321643E+03  0.47000000000E+01 0.  1.
         13    1    4    4    0    0 -0.44925814509E+01  0.11902946561E+01  0.21166768118E+03  0.21171869862E+03  0.00000000000E+00 0. -1.
        -14    1    4    4    0    0  0.15127061895E+02 -0.58562183141E+02  0.14645982813E+03  0.15845768694E+03  0.00000000000E+00 0.  1.
</event>
<event>
12    1  0.8451514E-002  0.1912816E+03  0.7818608E-02  0.1157699E+00
         21   -1    0    0  501  502  0.00000000000E+00  0.00000000000E+00  0.29054825770E+03  0.29054825770E+03  0.00000000000E+00 0.  1.
         21   -1    0    0  502  503 -0.00000000000E+00 -0.00000000000E+00 -0.12526628836E+03  0.12526628836E+03  0.00000000000E+00 0.  1.
         -6    2    1    2    0  503  0.53740819725E+02 -0.57334739707E+02  0.70227941535E+02  0.20376603906E+03  0.17439405614E+03 0.  0.
        -24    2    3    3    0    0 -0.23417119682E+02  0.19070697891E+01  0.27863321276E+02  0.97559680228E+02  0.90496011649E+02 0.  0.
          6    2    1    2  501    0 -0.53740819725E+02  0.57334739707E+02  0.95054027807E+02  0.21204850701E+03  0.17249334202E+03 0.  0.
         24    2    5    5    0    0  0.36027432534E+02  0.45443483389E+02  0.55837875424E+02  0.11325712227E+03  0.79663174279E+02 0.  0.
          5    1    5    5  501    0 -0.89768252259E+02  0.11891256317E+02  0.39216152383E+02  0.98791384737E+02  0.47000000000E+01 0. -1.
        -13    1    6    6    0    0 -0.25634860793E+02  0.13110688330E+02  0.13844424442E+02  0.31948463570E+02  0.00000000000E+00 0.  1.
         14    1    6    6    0    0  0.61662293327E+02  0.32332795060E+02  0.41993450982E+02  0.81308658703E+02  0.00000000000E+00 0. -1.
         -5    1    3    3    0  503  0.77157939407E+02 -0.59241809496E+02  0.42364620259E+02  0.10620635883E+03  0.47000000000E+01 0.  1.
         11    1    4    4    0    0 -0.23084826767E+02  0.19480479907E+02 -0.26650659484E+02  0.40282204200E+02  0.00000000000E+00 0. -1.
        -12    1    4    4    0    0 -0.33229291530E+00 -0.17573410118E+02  0.54513980761E+02  0.57277476028E+02  0.00000000000E+00 0.  1.
</event>
<event>
12    1  0.8451514E-002  0.2065138E+03  0.7818608E-02  0.1144747E+00
         21   -1    0    0  501  502  0.00000000000E+00  0.00000000000E+00  0.12129882835E+03  0.12129882835E+03  0.00000000000E+00 0.  1.
         21   -1    0    0  502  503 -0.00000000000E+00 -0.00000000000E+00 -0.38435156953E+03  0.38435156953E+03  0.00000000000E+00 0.  1.
         -6    2    1    2    0  503 -0.90829254454E+02 -0.65578890472E+02 -0.20947920742E+03  0.29415891571E+03  0.17348597929E+03 0.  0.
        -24    2    3    3    0    0 -0.13173870839E+03 -0.50848772439E+02 -0.16151479664E+03  0.22924948265E+03  0.80793631018E+02 0.  0.
          6    2    1    2  501    0  0.90829254454E+02  0.65578890472E+02 -0.53573533755E+02  0.21149148217E+03  0.17119573351E+03 0.  0.
         24    2    5    5    0    0  0.12947301090E+03  0.62896782473E+02 -0.48316428200E+02  0.17211813110E+03  0.81061137563E+02 0.  0.
          5    1    5    5  501    0 -0.38643756445E+02  0.26821079985E+01 -0.52571055556E+01  0.39373351068E+02  0.47000000000E+01 0. -1.
        -13    1    6    6    0    0  0.12732097094E+03  0.78048212190E+02 -0.39574119569E+02  0.15449357271E+03  0.00000000000E+00 0.  1.
         14    1    6    6    0    0  0.21520399562E+01 -0.15151429716E+02 -0.87423086308E+01  0.17624558395E+02  0.00000000000E+00 0. -1.
         -5    1    3    3    0  503  0.40909453941E+02 -0.14730118032E+02 -0.47964410778E+02  0.64909433061E+02  0.47000000000E+01 0.  1.
         13    1    4    4    0    0  0.21084961765E+00  0.11656888851E+02 -0.18461509120E+00  0.11660257200E+02  0.00000000000E+00 0. -1.
        -14    1    4    4    0    0 -0.13194955801E+03 -0.62505661290E+02 -0.16133018155E+03  0.21758922545E+03  0.00000000000E+00 0.  1.
</event>
<event>
12    1  0.8451514E-002  0.1780454E+03  0.7818608E-02  0.1170345E+00
         21   -1    0    0  501  502  0.00000000000E+00  0.00000000000E+00  0.84332738761E+03  0.84332738761E+03  0.00000000000E+00 0.  1.
         21   -1    0    0  502  503 -0.00000000000E+00 -0.00000000000E+00 -0.50870582214E+02  0.50870582214E+02  0.00000000000E+00 0.  1.
         -6    2    1    2    0  503  0.42145513358E+02  0.19544762154E+02  0.63138864591E+03  0.65601204509E+03  0.17187768644E+03 0.  0.
        -24    2    3    3    0    0 -0.38499242186E+02  0.25514992343E+02  0.41239337711E+03  0.42251635347E+03  0.79489401731E+02 0.  0.
          6    2    1    2  501    0 -0.42145513358E+02 -0.19544762154E+02  0.16106815949E+03  0.23818592474E+03  0.16920798066E+03 0.  0.
         24    2    5    5    0    0 -0.62670553670E+02 -0.66482603302E+02  0.91151367583E+02  0.15138220361E+03  0.79123099775E+02 0.  0.
          5    1    5    5  501    0  0.20525040312E+02  0.46937841148E+02  0.69916791909E+02  0.86803721132E+02  0.47000000000E+01 0. -1.
        -13    1    6    6    0    0 -0.25624870296E+02 -0.64923545353E+02  0.22459563577E+02  0.73322116138E+02  0.00000000000E+00 0.  1.
         14    1    6    6    0    0 -0.37045683374E+02 -0.15590579494E+01  0.68691804006E+02  0.78060087470E+02  0.00000000000E+00 0. -1.
         -5    1    3    3    0  503  0.80644755544E+02 -0.59702301889E+01  0.21899526880E+03  0.23349569161E+03  0.47000000000E+01 0.  1.
         11    1    4    4    0    0  0.77141971506E+01 -0.18817042949E+02  0.42437394705E+02  0.47058712396E+02  0.00000000000E+00 0. -1.
        -12    1    4    4    0    0 -0.46213439337E+02  0.44332035292E+02  0.36995598240E+03  0.37545764108E+03  0.00000000000E+00 0.  1.
</event>
<event>
12    1  0.8451514E-002  0.1825345E+03  0.7818608E-02  0.1166215E+00
         21   -1    0    0  503  502  0.00000000000E+00  0.00000000000E+00  0.53213804736E+02  0.53213804736E+02  0.00000000000E+00 0.  1.
         21   -1    0    0  501  503 -0.00000000000E+00 -0.00000000000E+00 -0.68698129029E+03  0.68698129029E+03  0.00000000000E+00 0.  1.
          6    2    1    2  501    0 -0.44965077518E+02  0.43125136295E+02 -0.43462930515E+03  0.47005650424E+03  0.16783577899E+03 0.  0.
         24    2    3    3    0    0 -0.25575747388E+02 -0.38849495620E+02 -0.22459948197E+03  0.24371516240E+03  0.82393876717E+02 0.  0.
         -6    2    1    2    0  502  0.44965077518E+02 -0.43125136295E+02 -0.19913818041E+03  0.27013859078E+03  0.17157274772E+03 0.  0.
        -24    2    5    5    0    0  0.58158704329E-01 -0.81396841714E+02 -0.85469931201E+02  0.14198276505E+03  0.78921145503E+02 0.  0.
          5    1    3    3  501    0 -0.19389330129E+02  0.81974631915E+02 -0.21002982318E+03  0.22634134184E+03  0.47000000000E+01 0. -1.
        -11    1    4    4    0    0 -0.15077228765E+02  0.11861882355E+02 -0.15892676922E+03  0.16008043308E+03  0.00000000000E+00 0.  1.
         12    1    4    4    0    0 -0.10498518623E+02 -0.50711377975E+02 -0.65672712750E+02  0.83634729325E+02  0.00000000000E+00 0. -1.
         -5    1    5    5    0  502  0.44906918814E+02  0.38271705419E+02 -0.11366824920E+03  0.12815582574E+03  0.47000000000E+01 0.  1.
         13    1    6    6    0    0 -0.10625406055E+02 -0.78379925653E+02 -0.97542423323E+02  0.12558199054E+03  0.00000000000E+00 0. -1.
        -14    1    6    6    0    0  0.10683564760E+02 -0.30169160601E+01  0.12072492123E+02  0.16400774510E+02  0.00000000000E+00 0.  1.
</event>
<event>
12    1  0.8451514E-002  0.1971213E+03  0.7818608E-02  0.1152298E+00
         21   -1    0    0  501  502  0.00000000000E+00  0.00000000000E+00  0.13645321880E+03  0.13645321880E+03  0.00000000000E+00 0. -1.
         21   -1    0    0  502  503 -0.00000000000E+00 -0.00000000000E+00 -0.37498107289E+03  0.37498107289E+03  0.00000000000E+00 0. -1.
         -6    2    1    2    0  503 -0.68338206467E+02 -0.66555590526E+02 -0.24530530816E+03  0.31469272110E+03  0.17250234028E+03 0.  0.
        -24    2    3    3    0    0 -0.97724045524E+02 -0.76079484834E+02 -0.24182500522E+03  0.28325334120E+03  0.80093976441E+02 0.  0.
          6    2    1    2  501    0  0.68338206467E+02  0.66555590526E+02  0.67774540785E+01  0.19674157059E+03  0.17193473943E+03 0.  0.
         24    2    5    5    0    0  0.70228622693E+02 -0.21909765970E+02  0.71004334548E+01  0.10813069491E+03  0.78928662322E+02 0.  0.
          5    1    5    5  501    0 -0.18904162262E+01  0.88465356496E+02 -0.32297937637E+00  0.88610875682E+02  0.47000000000E+01 0. -1.
        -13    1    6    6    0    0  0.43216165460E+02  0.90125497721E+01 -0.29525583989E+02  0.53109538883E+02  0.00000000000E+00 0.  1.
         14    1    6    6    0    0  0.27012457234E+02 -0.30922315742E+02  0.36626017444E+02  0.55021156026E+02  0.00000000000E+00 0. -1.
         -5    1    3    3    0  503  0.29385839057E+02  0.95238943080E+01 -0.34803029420E+01  0.31439379899E+02  0.47000000000E+01 0.  1.
         11    1    4    4    0    0 -0.79038196568E+02 -0.28701358055E+02 -0.20133592838E+03  0.21819019347E+03  0.00000000000E+00 0. -1.
        -12    1    4    4    0    0 -0.18685848956E+02 -0.47378126779E+02 -0.40489076844E+02  0.65063147726E+02  0.00000000000E+00 0.  1.
</event>
<event>
12    1  0.8451514E-002  0.1768983E+03  0.7818608E-02  0.1170841E+00
         21   -1    0    0  503  502  0.00000000000E+00  0.00000000000E+00  0.58424361763E+02  0.58424361763E+02  0.00000000000E+00 0. -1.
         21   -1    0    0  501  503 -0.00000000000E+00 -0.00000000000E+00 -0.56843692118E+03  0.56843692118E+03  0.00000000000E+00 0. -1.
          6    2    1    2  501    0  0.25812026562E+02 -0.32696572935E+02 -0.33035474211E+03  0.37473625893E+03  0.17192347579E+03 0.  0.
         24    2    3    3    0    0  0.39253484007E+02  0.11974390069E+02 -0.31137945561E+03  0.32415642884E+03  0.80224702923E+02 0.  0.
         -6    2    1    2    0  502 -0.25812026562E+02  0.32696572935E+02 -0.17965781731E+03  0.25212502401E+03  0.17191500753E+03 0.  0.
        -24    2    5    5    0    0 -0.34072079082E+02  0.82588872772E+02 -0.15285490050E+03  0.19469718755E+03  0.80997195977E+02 0.  0.
          5    1    3    3  501    0 -0.13441457445E+02 -0.44670963004E+02 -0.18975286496E+02  0.50579830086E+02  0.47000000000E+01 0. -1.
        -11    1    4    4    0    0  0.24533190615E+02  0.43988407478E+02 -0.13061581020E+03  0.13999052578E+03  0.00000000000E+00 0.  1.
         12    1    4    4    0    0  0.14720293392E+02 -0.32014017409E+02 -0.18076364541E+03  0.18416590306E+03  0.00000000000E+00 0. -1.
         -5    1    5    5    0  502  0.82600525200E+01 -0.49892299837E+02 -0.26802916809E+02  0.57427836457E+02  0.47000000000E+01 0.  1.
         13    1    6    6    0    0 -0.50686677213E+01  0.79586179648E+02 -0.67433336331E+02  0.10443613470E+03  0.00000000000E+00 0. -1.
        -14    1    6    6    0    0 -0.29003411361E+02  0.30026931242E+01 -0.85421564167E+02  0.90261052848E+02  0.00000000000E+00 0.  1.
</event>
<event>
12    1  0.8451514E-002  0.1795941E+03  0.7818608E-02  0.1168215E+00
         21   -1    0    0  501  502  0.00000000000E+00  0.00000000000E+00  0.27627845040E+03  0.27627845040E+03  0.00000000000E+00 0.  1.
         21   -1    0    0  502  503 -0.00000000000E+00 -0.00000000000E+00 -0.11669711820E+03  0.11669711820E+03  0.00000000000E+00 0.  1.
         -6    2    1    2    0  503  0.34392602307E+02 -0.42778167920E+02  0.80492100222E+02  0.19673808141E+03  0.17092124424E+03 0.  0.
        -24    2    3    3    0    0 -0.16899929498E+02 -0.81752561578E+02  0.51212936372E+02  0.12582061800E+03  0.78987176941E+02 0.  0.
          6    2    1    2  501    0 -0.34392602307E+02  0.42778167920E+02  0.79089231985E+02  0.19623748719E+03  0.17100064918E+03 0.  0.
         24    2    5    5    0    0 -0.36779450708E+02  0.74367364476E+02  0.10457101953E+03  0.15531089583E+03  0.79392338061E+02 0.  0.
          5    1    5    5  501    0  0.23868484008E+01 -0.31589196557E+02 -0.25481787546E+02  0.40926591367E+02  0.47000000000E+01 0. -1.
        -11    1    6    6    0    0 -0.36469276875E+02 -0.32534188600E+00  0.17078008936E+02  0.40271235297E+02  0.00000000000E+00 0.  1.
         12    1    6    6    0    0 -0.31017383303E+00  0.74692706362E+02  0.87493010595E+02  0.11503966053E+03  0.00000000000E+00 0. -1.
         -5    1    3    3    0  503  0.51292531805E+02  0.38974393659E+02  0.29279163850E+02  0.70917463405E+02  0.47000000000E+01 0.  1.
         13    1    4    4    0    0  0.16325993640E+02 -0.76602349076E+02  0.48421960814E+02  0.92082268876E+02  0.00000000000E+00 0. -1.
        -14    1    4    4    0    0 -0.33225923139E+02 -0.51502125020E+01  0.27909755582E+01  0.33738349127E+02  0.00000000000E+00 0.  1.
</event>
<event>
12    1  0.8451514E-002  0.2154969E+03  0.7818608E-02  0.1137457E+00
         21   -1    0    0  501  502  0.00000000000E+00  0.00000000000E+00  0.12324799153E+03  0.12324799153E+03  0.00000000000E+00 0.  1.
         21   -1    0    0  502  503 -0.00000000000E+00 -0.00000000000E+00 -0.37687796319E+03  0.37687796319E+03  0.00000000000E+00 0. -1.
         -6    2    1    2    0  503 -0.48279079494E+01 -0.12937407054E+03 -0.11002560126E+03  0.24116430195E+03  0.17115381615E+03 0.  0.
        -24    2    3    3    0    0  0.15773477026E+02 -0.67921464750E+01 -0.77056797742E+02  0.11247950419E+03  0.80118368395E+02 0.  0.
          6    2    1    2  501    0  0.48279079494E+01  0.12937407054E+03 -0.14360437041E+03  0.25896165277E+03  0.17227293340E+03 0.  0.
         24    2    5    5    0    0  0.19381951733E+02  0.69267847773E+01 -0.94873854956E+02  0.12628945856E+03  0.80773377966E+02 0.  0.
          5    1    5    5  501    0 -0.14554043783E+02  0.12244728576E+03 -0.48730515455E+02  0.13267219421E+03  0.47000000000E+01 0. -1.
        -11    1    6    6    0    0 -0.21071969080E+02 -0.22118371576E+02 -0.20529602783E+02  0.36806450964E+02  0.00000000000E+00 0.  1.
         12    1    6    6    0    0  0.40453920813E+02  0.29045156353E+02 -0.74344252173E+02  0.89483007593E+02  0.00000000000E+00 0. -1.
         -5    1    3    3    0  503 -0.20601384976E+02 -0.12258192406E+03 -0.32968803513E+02  0.12868479776E+03  0.47000000000E+01 0.  1.
         11    1    4    4    0    0 -0.19469045212E+02  0.79918319056E+01  0.52866103556E+01  0.21699339799E+02  0.00000000000E+00 0. -1.
        -12    1    4    4    0    0  0.35242522238E+02 -0.14783978381E+02 -0.82343408097E+02  0.90780164395E+02  0.00000000000E+00 0.  1.
</event>
<event>
12    1  0.8451514E-002  0.1921317E+03  0.7818608E-02  0.1156621E+00
         21   -1    0    0  503  502  0.00000000000E+00  0.00000000000E+00  0.35520206835E+03  0.35520206835E+03  0.00000000000E+00 0.  1.
         21   -1    0    0  501  503 -0.00000000000E+00 -0.00000000000E+00 -0.20766215474E+03  0.20766215474E+03  0.00000000000E+00 0.  1.
          6    2    1    2  501    0  0.52536372097E+02  0.64172231255E+02 -0.12527224296E+03  0.22936371266E+03  0.17331021947E+03 0.  0.
         24    2    3    3    0    0 -0.40963374960E+02  0.16596969843E+02 -0.72239139354E+02  0.11171929810E+03  0.72864606071E+02 0.  0.
         -6    2    1    2    0  502 -0.52536372097E+02 -0.64172231255E+02  0.27281215658E+03  0.33350051043E+03  0.17296812430E+03 0.  0.
        -24    2    5    5    0    0 -0.31353372443E+02  0.23020058061E+02  0.19387507463E+03  0.21389964214E+03  0.81563198235E+02 0.  0.
          5    1    3    3  501    0  0.93499747057E+02  0.47575261412E+02 -0.53033103608E+02  0.11764441456E+03  0.47000000000E+01 0. -1.
        -13    1    4    4    0    0 -0.25463399217E+02 -0.60809266079E+01 -0.79172864034E+02  0.83388876761E+02  0.00000000000E+00 0.  1.
         14    1    4    4    0    0 -0.15499975743E+02  0.22677896451E+02  0.69337246798E+01  0.28330421342E+02  0.00000000000E+00 0. -1.
         -5    1    5    5    0  502 -0.21182999654E+02 -0.87192289316E+02  0.78937081943E+02  0.11960086829E+03  0.47000000000E+01 0.  1.
         11    1    6    6    0    0 -0.18076744960E+02  0.18144944501E+02  0.70845066689E+01  0.26574385299E+02  0.00000000000E+00 0. -1.
        -12    1    6    6    0    0 -0.13276627483E+02  0.48751135602E+01  0.18679056797E+03  0.18732525684E+03  0.00000000000E+00 0.  1.
</event>
<event>
12    1  0.8451514E-002  0.2583657E+03  0.7818608E-02  0.1108317E+00
         21   -1    0    0  501  502  0.00000000000E+00  0.00000000000E+00  0.34695225447E+03  0.34695225447E+03  0.00000000000E+00 0. -1.
         21   -1    0    0  502  503 -0.00000000000E+00 -0.00000000000E+00 -0.22952456728E+03  0.22952456728E+03  0.00000000000E+00 0.  1.
         -6    2    1    2    0  503  0.18703661567E+02 -0.19093630098E+03 -0.58520962580E+02  0.26491041254E+03  0.17305006681E+03 0.  0.
        -24    2    3    3    0    0  0.74806081108E+01 -0.15830003408E+03  0.20830845619E+02  0.17825083540E+03  0.78895981533E+02 0.  0.
          6    2    1    2  501    0 -0.18703661567E+02  0.19093630098E+03  0.17594864976E+03  0.31156640921E+03  0.17119930492E+03 0.  0.
         24    2    5    5    0    0 -0.49737293318E+02  0.40897925474E+02  0.57906574171E+02  0.11809645797E+03  0.80294230161E+02 0.  0.
          5    1    5    5  501    0  0.31033631751E+02  0.15003837551E+03  0.11804207559E+03  0.19346995125E+03  0.47000000000E+01 0. -1.
        -13    1    6    6    0    0 -0.17400465064E+02  0.37317648299E+02 -0.10373300040E+02  0.42461611047E+02  0.00000000000E+00 0.  1.
         14    1    6    6    0    0 -0.32336828254E+02  0.35802771751E+01  0.68279874211E+02  0.75634846918E+02  0.00000000000E+00 0. -1.
         -5    1    3    3    0  503  0.11223053456E+02 -0.32636266898E+02 -0.79351808198E+02  0.86659577141E+02  0.47000000000E+01 0.  1.
         11    1    4    4    0    0 -0.47841040199E+01 -0.23689659489E+01  0.21175211028E+02  0.21837793227E+02  0.00000000000E+00 0. -1.
        -12    1    4    4    0    0  0.12264712131E+02 -0.15593106814E+03 -0.34436540952E+00  0.15641304217E+03  0.00000000000E+00 0.  1.
</event>
<event>
12    1  0.8451514E-002  0.1910070E+03  0.7818608E-02  0.1158558E+00
         21   -1    0    0  503  502  0.00000000000E+00  0.00000000000E+00  0.50673522453E+02  0.50673522453E+02  0.00000000000E+00 0. -1.
         21   -1    0    0  501  503 -0.00000000000E+00 -0.00000000000E+00 -0.80878545909E+03  0.80878545909E+03  0.00000000000E+00 0. -1.
          6    2    1    2  501    0 -0.56189810329E+02  0.49198775158E+02 -0.53029657548E+03  0.56216533218E+03  0.17099002452E+03 0.  0.
         24    2    3    3    0    0 -0.43837612454E+02  0.66310154400E+02 -0.18920639586E+03  0.22039058660E+03  0.80337896304E+02 0.  0.
         -6    2    1    2    0  502  0.56189810329E+02 -0.49198775158E+02 -0.22781536116E+03  0.29729364936E+03  0.17580062829E+03 0.  0.
        -24    2    5    5    0    0  0.82756263175E+02  0.14612313686E+02 -0.10833955058E+03  0.15918430575E+03  0.80870675609E+02 0.  0.
          5    1    3    3  501    0 -0.12352197874E+02 -0.17111379242E+02 -0.34109017962E+03  0.34177474559E+03  0.47000000000E+01 0. -1.
        -11    1    4    4    0    0  0.64203646403E+01  0.61725013856E+02 -0.11448830079E+03  0.13022584012E+03  0.00000000000E+00 0.  1.
         12    1    4    4    0    0 -0.50257977094E+02  0.45851405437E+01 -0.74718095071E+02  0.90164746473E+02  0.00000000000E+00 0. -1.
         -5    1    5    5    0  502 -0.26566452846E+02 -0.63811088844E+02 -0.11947581058E+03  0.13810934360E+03  0.47000000000E+01 0.  1.
         13    1    6    6    0    0  0.62610892104E+02 -0.27540723605E+02 -0.51572176164E+02  0.85663905007E+02  0.00000000000E+00 0. -1.
        -14    1    6    6    0    0  0.20145371071E+02  0.42153037291E+02 -0.56767374412E+02  0.73520400747E+02  0.00000000000E+00 0.  1.
</event>
<event>
12    1  0.8451514E-002  0.2177415E+03  0.7818608E-02  0.1135923E+00
         21   -1    0    0  501  502  0.00000000000E+00  0.00000000000E+00  0.12658496981E+03  0.12658496981E+03  0.00000000000E+00 0.  1.
         21   -1    0    0  502  503 -0.00000000000E+00 -0.00000000000E+00 -0.41274048838E+03  0.41274048838E+03  0.00000000000E+00 0. -1.
         -6    2    1    2    0  503  0.10043395204E+03  0.86797190041E+02 -0.22893789128E+03  0.31594925396E+03  0.17259965844E+03 0.  0.
        -24    2    3    3    0    0  0.86640617029E+02  0.81373167150E+02 -0.75538433401E+02  0.16176378191E+03  0.79581890934E+02 0.  0.
          6    2    1    2  501    0 -0.10043395204E+03 -0.86797190041E+02 -0.57217627289E+02  0.22337620422E+03  0.17030073640E+03 0.  0.
         24    2    5    5    0    0 -0.45059370008E+01 -0.87066699563E+02 -0.38587074462E+02  0.12554244623E+03  0.81676372642E+02 0.  0.
          5    1    5    5  501    0 -0.95928015042E+02  0.26950952255E+00 -0.18630552827E+02  0.97833757998E+02  0.47000000000E+01 0. -1.
        -11    1    6    6    0    0  0.18082348555E+01 -0.63153077825E+02  0.16379457645E+02  0.65267661094E+02  0.00000000000E+00 0.  1.
         12    1    6    6    0    0 -0.63141718562E+01 -0.23913621739E+02 -0.54966532107E+02  0.60274785132E+02  0.00000000000E+00 0. -1.
         -5    1    3    3    0  503  0.13793335014E+02  0.54240228905E+01 -0.15339945788E+03  0.15418547205E+03  0.47000000000E+01 0.  1.
         13    1    4    4    0    0  0.23037374678E+02 -0.11135158559E+02 -0.32892368369E+02  0.41672776306E+02  0.00000000000E+00 0. -1.
        -14    1    4    4    0    0  0.63603242351E+02  0.92508325709E+02 -0.42646065032E+02  0.12009100560E+03  0.00000000000E+00 0.  1.
</event>
<event>
12    1  0.8451514E-002  0.2011206E+03  0.7818608E-02  0.1148915E+00
         21   -1    0    0  501  502  0.00000000000E+00  0.00000000000E+00  0.58769610866E+03  0.58769610866E+03  0.00000000000E+00 0.  1.
         21   -1    0    0  502  503 -0.00000000000E+00 -0.00000000000E+00 -0.90227795992E+02  0.90227795992E+02  0.00000000000E+00 0.  1.
         -6    2    1    2    0  503 -0.89915392814E+02  0.51688671848E+02  0.83178046353E+02  0.21764208184E+03  0.17231654514E+03 0.  0.
        -24    2    3    3    0    0 -0.10192531994E+03  0.52489615603E+02  0.11871625748E+03  0.17982760961E+03  0.71417706477E+02 0.  0.
          6    2    1    2  501    0  0.89915392814E+02 -0.51688671848E+02  0.41429026631E+03  0.46028182281E+03  0.17165790103E+03 0.  0.
         24    2    5    5    0    0  0.38817468740E+02  0.31579460838E+02  0.27117517731E+03  0.28693650713E+03  0.79325431687E+02 0.  0.
          5    1    5    5  501    0  0.51097924074E+02 -0.83268132686E+02  0.14311508901E+03  0.17334531568E+03  0.47000000000E+01 0. -1.
        -11    1    6    6    0    0  0.56100512991E+02  0.18752032977E+02  0.24940289399E+03  0.25632149701E+03  0.00000000000E+00 0.  1.
         12    1    6    6    0    0 -0.17283044251E+02  0.12827427861E+02  0.21772283319E+02  0.30615010126E+02  0.00000000000E+00 0. -1.
         -5    1    3    3    0  503  0.12009927121E+02 -0.80094375493E+00 -0.35538211123E+02  0.37814472232E+02  0.47000000000E+01 0.  1.
         13    1    4    4    0    0 -0.22225778615E+02  0.88463091768E+01  0.75516156344E+02  0.79214470206E+02  0.00000000000E+00 0. -1.
        -14    1    4    4    0    0 -0.79699541321E+02  0.43643306426E+02  0.43200101131E+02  0.10061313940E+03  0.00000000000E+00 0.  1.
</event>
<event>
12    1  0.8451514E-002  0.2605578E+03  0.7818608E-02  0.1107851E+00
         21   -1    0    0  503  502  0.00000000000E+00  0.00000000000E+00  0.24441900741E+03  0.24441900741E+03  0.00000000000E+00 0.  1.
         21   -1    0    0  501  503 -0.00000000000E+00 -0.00000000000E+00 -0.37365130691E+03  0.37365130691E+03  0.00000000000E+00 0. -1.
          6    2    1    2  501    0 -0.19476390377E+03  0.15621095267E+02 -0.22760440057E+03  0.34596840075E+03  0.17237567789E+03 0.  0.
         24    2    3    3    0    0 -0.51221408282E+02 -0.24056824593E+02 -0.38038198312E+02  0.10485386287E+03  0.79655913483E+02 0.  0.
         -6    2    1    2    0  502  0.19476390377E+03 -0.15621095267E+02  0.98372101070E+02  0.27210191358E+03  0.16181898614E+03 0.  0.
        -24    2    5    5    0    0  0.16621860950E+03 -0.98339959952E+01  0.17024426749E+02  0.18556950080E+03  0.80130361920E+02 0.  0.
          5    1    3    3  501    0 -0.14354249549E+03  0.39677919860E+02 -0.18956620226E+03  0.24111453787E+03  0.47000000000E+01 0. -1.
        -11    1    4    4    0    0 -0.70624844115E+02 -0.63741624379E+01 -0.22736206720E+02  0.74467668482E+02  0.00000000000E+00 0.  1.
         12    1    4    4    0    0  0.19403435833E+02 -0.17682662155E+02 -0.15301991592E+02  0.30386194393E+02  0.00000000000E+00 0. -1.
         -5    1    5    5    0  502  0.28545294268E+02 -0.57870992721E+01  0.81347674321E+02  0.86532412773E+02  0.47000000000E+01 0.  1.
         11    1    6    6    0    0  0.25498271492E+02 -0.16353387737E+02 -0.24220549348E+02  0.38784406019E+02  0.00000000000E+00 0. -1.
        -12    1    6    6    0    0  0.14072033801E+03  0.65193917419E+01  0.41244976097E+02  0.14678509479E+03  0.00000000000E+00 0.  1.
</event>
<event>
12    1  0.8451514E-002  0.1884669E+03  0.7818608E-02  0.1159900E+00
         21   -1    0    0  503  502  0.00000000000E+00  0.00000000000E+00  0.11224122987E+04  0.11224122987E+04  0.00000000000E+00 0.  1.
         21   -1    0    0  501  503 -0.00000000000E+00 -0.00000000000E+00 -0.35838517423E+02  0.35838517423E+02  0.00000000000E+00 0. -1.
          6    2    1    2  501    0 -0.41255180777E+01  0.75556872298E+02  0.34408408069E+03  0.39221509456E+03  0.17237449048E+03 0.  0.
         24    2    3    3    0    0 -0.44400367933E+02 -0.51140328386E+01  0.23134100150E+03  0.24777496727E+03  0.76656568067E+02 0.  0.
         -6    2    1    2    0  502  0.41255180777E+01 -0.75556872298E+02  0.74248970059E+03  0.76603572156E+03  0.17260912599E+03 0.  0.
        -24    2    5    5    0    0  0.63674835649E+02 -0.74164155659E+02  0.46953806150E+03  0.48662071093E+03  0.82334187508E+02 0.  0.
          5    1    3    3  501    0  0.40274849855E+02  0.80670905136E+02  0.11274307919E+03  0.14444012729E+03  0.47000000000E+01 0. -1.
        -13    1    4    4    0    0 -0.20860881908E+02  0.23769494697E+02  0.18790114624E+03  0.19054397401E+03  0.00000000000E+00 0.  1.
         14    1    4    4    0    0 -0.23539486024E+02 -0.28883527536E+02  0.43439855258E+02  0.57230993265E+02  0.00000000000E+00 0. -1.
         -5    1    5    5    0  502 -0.59549317571E+02 -0.13927166384E+01  0.27295163909E+03  0.27941501063E+03  0.47000000000E+01 0.  1.
         13    1    6    6    0    0 -0.10809677953E+02 -0.35190701228E+02  0.79266531856E+02  0.87398041528E+02  0.00000000000E+00 0. -1.
        -14    1    6    6    0    0  0.74484513602E+02 -0.38973454431E+02  0.39027152964E+03  0.39922266940E+03  0.00000000000E+00 0.  1.
</event>
<event>
12    1  0.8451514E-002  0.1967291E+03  0.7818608E-02  0.1152907E+00
         21   -1    0    0  501  502  0.00000000000E+00  0.00000000000E+00  0.95538048854E+03  0.95538048854E+03  0.00000000000E+00 0.  1.
         21   -1    0    0  502  503 -0.00000000000E+00 -0.00000000000E+00 -0.27938561274E+03  0.27938561274E+03  0.00000000000E+00 0.  1.
         -6    2    1    2    0  503 -0.60961862212E+02 -0.71468488784E+02 -0.23308608425E+03  0.30501059113E+03  0.17285324556E+03 0.  0.
        -24    2    3    3    0    0  0.31798952551E+02 -0.34942044543E+02 -0.89507156569E+02  0.13015136673E+03  0.81827424040E+02 0.  0.
          6    2    1    2  501    0  0.60961862212E+02  0.71468488784E+02  0.90908096004E+03  0.92975551014E+03  0.17085965934E+03 0.  0.
         24    2    5    5    0    0  0.79183788895E+02  0.10472545273E+03  0.79205876109E+03  0.80665250729E+03  0.78062113888E+02 0.  0.
          5    1    5    5  501    0 -0.18221926683E+02 -0.33256963947E+02  0.11702219896E+03  0.12310300286E+03  0.47000000000E+01 0. -1.
        -13    1    6    6    0    0  0.43181530766E+02  0.33692868941E+02  0.15024127488E+03  0.15991339748E+03  0.00000000000E+00 0.  1.
         14    1    6    6    0    0  0.36002258130E+02  0.71032583790E+02  0.64181748621E+03  0.64673910980E+03  0.00000000000E+00 0. -1.
         -5    1    3    3    0  503 -0.92760814764E+02 -0.36526444241E+02 -0.14357892768E+03  0.17485922440E+03  0.47000000000E+01 0.  1.
         13    1    4    4    0    0  0.19786766429E+02 -0.37585935434E+02 -0.27914593866E+01  0.42567721499E+02  0.00000000000E+00 0. -1.
        -14    1    4    4    0    0  0.12012186123E+02  0.26438908908E+01 -0.86715697183E+02  0.87583645233E+02  0.00000000000E+00 0.  1.
</event>
<event>
12    1  0.8451514E-002  0.1908905E+03  0.7818608E-02  0.1158050E+00
         21   -1    0    0  503  502  0.00000000000E+00  0.00000000000E+00  0.67023909360E+03  0.67023909360E+03  0.00000000000E+00 0. -1.
         21   -1    0    0  501  503 -0.00000000000E+00 -0.00000000000E+00 -0.56445395056E+02  0.56445395056E+02  0.00000000000E+00 0. -1.
          6    2    1    2  501    0  0.68527904628E+02 -0.42043857538E+02  0.22804223196E+03  0.29628541837E+03  0.17122508552E+03 0.  0.
         24    2    3    3    0    0  0.61373009329E+02  0.34891535113E+02  0.15812288264E+03  0.19197313444E+03  0.82865993239E+02 0.  0.
         -6    2    1    2    0  502 -0.68527904628E+02  0.42043857538E+02  0.38575146658E+03  0.43039907029E+03  0.17313406962E+03 0.  0.
        -24    2    5    5    0    0 -0.42600780119E+02 -0.31363443307E+02  0.20974919058E+03  0.23789000878E+03  0.98987076365E+02 0.  0.
          5    1    3    3  501    0  0.71548952991E+01 -0.76935392651E+02  0.69919349320E+02  0.10431228393E+03  0.47000000000E+01 0. -1.
        -13    1    4    4    0    0 -0.11770342193E+02  0.33619491811E+02  0.55420481955E+02  0.65880505501E+02  0.00000000000E+00 0.  1.
         14    1    4    4    0    0  0.73143351522E+02  0.12720433015E+01  0.10270240069E+03  0.12609262894E+03  0.00000000000E+00 0. -1.
         -5    1    5    5    0  502 -0.25927124509E+02  0.73407300845E+02  0.17600227600E+03  0.19250906150E+03  0.47000000000E+01 0.  1.
         13    1    6    6    0    0 -0.14590535159E+02  0.88284354530E+01 -0.48822210598E+01  0.17738688544E+02  0.00000000000E+00 0. -1.
        -14    1    6    6    0    0 -0.28010244960E+02 -0.40191878760E+02  0.21463141164E+03  0.22015132024E+03  0.00000000000E+00 0.  1.
</event>
<event>
12    1  0.8451514E-002  0.2001320E+03  0.7818608E-02  0.1149752E+00
         21   -1    0    0  501  502  0.00000000000E+00  0.00000000000E+00  0.61583786085E+02  0.61583786085E+02  0.00000000000E+00 0.  1.
         21   -1    0    0  502  503 -0.00000000000E+00 -0.00000000000E+00 -0.68017871125E+03  0.68017871125E+03  0.00000000000E+00 0. -1.
         -6    2    1    2    0  503 -0.89945963347E+02  0.44738485450E+02 -0.38981926925E+03  0.43819159035E+03  0.17309245731E+03 0.  0.
        -24    2    3    3    0    0 -0.89448541994E+02  0.76924540270E+02 -0.37810222621E+03  0.40361459438E+03  0.77621007287E+02 0.  0.
          6    2    1    2  501    0  0.89945963347E+02 -0.44738485450E+02 -0.22877565592E+03  0.30357090699E+03  0.17240993714E+03 0.  0.
         24    2    5    5    0    0  0.75386756651E+02  0.26283347701E+02 -0.67534259494E+02  0.12671800425E+03  0.71572333701E+02 0.  0.
          5    1    5    5  501    0  0.14559206696E+02 -0.71021833150E+02 -0.16124139643E+03  0.17685290273E+03  0.47000000000E+01 0. -1.
        -13    1    6    6    0    0 -0.12453194209E+02 -0.49228499429E+01 -0.42553734400E+01  0.14050790038E+02  0.00000000000E+00 0.  1.
         14    1    6    6    0    0  0.87839950860E+02  0.31206197644E+02 -0.63278886054E+02  0.11266721421E+03  0.00000000000E+00 0. -1.
         -5    1    3    3    0  503 -0.49742135260E+00 -0.32186054821E+02 -0.11717043039E+02  0.34576995973E+02  0.47000000000E+01 0.  1.
         13    1    4    4    0    0 -0.31388767139E+02  0.88971608816E+01 -0.21624114547E+03  0.21868847059E+03  0.00000000000E+00 0. -1.
        -14    1    4    4    0    0 -0.58059774855E+02  0.68027379389E+02 -0.16186108074E+03  0.18492612379E+03  0.00000000000E+00 0.  1.
</event>
<event>
12    1  0.8451514E-002  0.1781589E+03  0.7818608E-02  0.1169659E+00
         21   -1    0    0  501  502  0.00000000000E+00  0.00000000000E+00  0.30099857585E+02  0.30099857585E+02  0.00000000000E+00 0. -1.
         21   -1    0    0  502  503 -0.00000000000E+00 -0.00000000000E+00 -0.11410287341E+04  0.11410287341E+04  0.00000000000E+00 0. -1.
         -6    2    1    2    0  503 -0.43606012817E+02  0.27663297260E+01 -0.71773497448E+03  0.73945505729E+03  0.17245622989E+03 0.  0.
        -24    2    3    3    0    0 -0.73565897138E+02 -0.22944024228E+02 -0.65913867934E+03  0.66864380979E+03  0.81745802907E+02 0.  0.
          6    2    1    2  501    0  0.43606012817E+02 -0.27663297260E+01 -0.39319390204E+03  0.43167353440E+03  0.17271785885E+03 0.  0.
         24    2    5    5    0    0 -0.17464345170E+02  0.44263373283E+02 -0.27438953753E+03  0.28997685619E+03  0.80825177093E+02 0.  0.
          5    1    5    5  501    0  0.61070357987E+02 -0.47029703009E+02 -0.11880436451E+03  0.14169667821E+03  0.47000000000E+01 0. -1.
        -11    1    6    6    0    0 -0.22083168312E+02 -0.36653337779E+01 -0.20073800502E+03  0.20198229540E+03  0.00000000000E+00 0.  1.
         12    1    6    6    0    0  0.46188231423E+01  0.47928707061E+02 -0.73651532512E+02  0.87994560793E+02  0.00000000000E+00 0. -1.
         -5    1    3    3    0  503  0.29959884322E+02  0.25710353954E+02 -0.58596295139E+02  0.70811247504E+02  0.47000000000E+01 0.  1.
         11    1    4    4    0    0 -0.29412866442E+02  0.20235439706E+01 -0.55210156787E+02  0.62588919586E+02  0.00000000000E+00 0. -1.
        -12    1    4    4    0    0 -0.44153030697E+02 -0.24967568198E+02 -0.60392852256E+03  0.60605489020E+03  0.00000000000E+00 0.  1.
</event>
<event>
12    1  0.8451514E-002  0.1728781E+03  0.7818608E-02  0.1175123E+00
         21   -1    0    0  501  502  0.00000000000E+00  0.00000000000E+00  0.62963933314E+03  0.62963933314E+03  0.00000000000E+00 0. -1.
         21   -1    0    0  502  503 -0.00000000000E+00 -0.00000000000E+00 -0.65684936361E+02  0.65684936361E+02  0.00000000000E+00 0. -1.
         -6    2    1    2    0  503  0.81014895624E+01 -0.16446147280E+02  0.98133727471E+02  0.19878899193E+03  0.17190324299E+03 0.  0.
        -24    2    3    3    0    0  0.17495012583E+02 -0.46316922182E+02  0.12531790856E+03  0.15705685599E+03  0.80690427329E+02 0.  0.
          6    2    1    2  501    0 -0.81014895624E+01  0.16446147280E+02  0.46582066931E+03  0.49653527758E+03  0.17094524277E+03 0.  0.
         24    2    5    5    0    0  0.58995220204E+02  0.19086808812E+01  0.32777615427E+03  0.34228974434E+03  0.78999890515E+02 0.  0.
          5    1    5    5  501    0 -0.67096709766E+02  0.14537466399E+02  0.13804451504E+03  0.15424553324E+03  0.47000000000E+01 0. -1.
        -11    1    6    6    0    0  0.17090734055E+02 -0.19178424208E+01  0.66825370565E+01  0.18450680519E+02  0.00000000000E+00 0.  1.
         12    1    6    6    0    0  0.41904486148E+02  0.38265233020E+01  0.32109361721E+03  0.32383906382E+03  0.00000000000E+00 0. -1.
         -5    1    3    3    0  503 -0.93935230210E+01  0.29870774902E+02 -0.27184181093E+02  0.41732135935E+02  0.47000000000E+01 0.  1.
         11    1    4    4    0    0  0.45306434832E+02 -0.48168115193E+02  0.96323452542E+02  0.11683769883E+03  0.00000000000E+00 0. -1.
        -12    1    4    4    0    0 -0.27811422248E+02  0.18511930107E+01  0.28994456021E+02  0.40219157164E+02  0.00000000000E+00 0.  1.
</event>
<event>
12    1  0.8451514E-002  0.2030862E+03  0.7818608E-02  0.1147538E+00
         21   -1    0    0  503  502  0.00000000000E+00  0.00000000000E+00  0.13061564238E+03  0.13061564238E+03  0.00000000000E+00 0. -1.
         21   -1    0    0  501  503 -0.00000000000E+00 -0.00000000000E+00 -0.32251298496E+03  0.32251298496E+03  0.00000000000E+00 0. -1.
          6    2    1    2  501    0 -0.10142690231E+03  0.19702957526E+02 -0.13454090722E+03  0.24209835037E+03  0.17272733566E+03 0.  0.
         24    2    3    3    0    0 -0.78759483773E+02  0.71321637705E+02 -0.53065335829E+02  0.14290833705E+03  0.79479749898E+02 0.  0.
         -6    2    1    2    0  502  0.10142690231E+03 -0.19702957526E+02 -0.57356435359E+02  0.21103027697E+03  0.17483819398E+03 0.  0.
        -24    2    5    5    0    0  0.48077118602E+02 -0.73670594340E+02 -0.64094356015E+02  0.13470076224E+03  0.79356430560E+02 0.  0.
          5    1    3    3  501    0 -0.22667418538E+02 -0.51618680179E+02 -0.81475571395E+02  0.99190013312E+02  0.47000000000E+01 0. -1.
        -13    1    4    4    0    0  0.83602374636E+01 -0.93439116887E+01 -0.11784191789E+02  0.17206668248E+02  0.00000000000E+00 0.  1.
         14    1    4    4    0    0 -0.87119721237E+02  0.80665549394E+02 -0.41281144040E+02  0.12570166881E+03  0.00000000000E+00 0. -1.
         -5    1    5    5    0  502  0.53349783709E+02  0.53967636814E+02  0.67379206566E+01  0.76329514736E+02  0.47000000000E+01 0.  1.
         11    1    6    6    0    0  0.63746740783E+02 -0.27222496510E+02 -0.40737851410E+02  0.80400769985E+02  0.00000000000E+00 0. -1.
        -12    1    6    6    0    0 -0.15669622181E+02 -0.46448097830E+02 -0.23356504605E+02  0.54299992253E+02  0.00000000000E+00 0.  1.
</event>
<event>
12    1  0.8451514E-002  0.2357576E+03  0.7818608E-02  0.1122905E+00
         21   -1    0    0  501  502  0.00000000000E+00  0.00000000000E+00  0.41923514665E+03  0.41923514665E+03  0.00000000000E+00 0. -1.
         21   -1    0    0  502  503 -0.00000000000E+00 -0.00000000000E+00 -0.76789086742E+03  0.76789086742E+03  0.00000000000E+00 0.  1.
         -6    2    1    2    0  503  0.12770471466E+03 -0.98200093158E+02 -0.71448271724E+03  0.75191221656E+03  0.17010195687E+03 0.  0.
        -24    2    3    3    0    0  0.21945199360E+02 -0.29916289581E+02 -0.12826929755E+03  0.15231567192E+03  0.73283525182E+02 0.  0.
          6    2    1    2  501    0 -0.12770471466E+03  0.98200093158E+02  0.36582699647E+03  0.43521379751E+03  0.17213339524E+03 0.  0.
         24    2    5    5    0    0 -0.12730110619E+03  0.13187954271E+03  0.29186208664E+03  0.35380516094E+03  0.79980177981E+02 0.  0.
          5    1    5    5  501    0 -0.40360847239E+00 -0.33679449554E+02  0.73964909826E+02  0.81408636567E+02  0.47000000000E+01 0. -1.
        -13    1    6    6    0    0 -0.76166413978E+02  0.44163170638E+02  0.80397887681E+02  0.11922889164E+03  0.00000000000E+00 0.  1.
         14    1    6    6    0    0 -0.51134692211E+02  0.87716372075E+02  0.21146419896E+03  0.23457626930E+03  0.00000000000E+00 0. -1.
         -5    1    3    3    0  503  0.10575951530E+03 -0.68283803577E+02 -0.58621341970E+03  0.59959654464E+03  0.47000000000E+01 0.  1.
         11    1    4    4    0    0  0.41334966285E+02 -0.32545083477E+02 -0.53519656190E+02  0.75047421641E+02  0.00000000000E+00 0. -1.
        -12    1    4    4    0    0 -0.19389766925E+02  0.26287938957E+01 -0.74749641355E+02  0.77268250281E+02  0.00000000000E+00 0.  1.
</event>
<event>
12    1  0.8451514E-002  0.2327617E+03  0.7818608E-02  0.1124788E+00
         21   -1    0    0  501  502  0.00000000000E+00  0.00000000000E+00  0.56104325149E+02  0.56104325149E+02  0.00000000000E+00 0. -1.
         21   -1    0    0  502  503 -0.00000000000E+00 -0.00000000000E+00 -0.98718928511E+03  0.98718928511E+03  0.00000000000E+00 0.  1.
         -6    2    1    2    0  503  0.53781407239E+02  0.14823473750E+03 -0.38486854034E+03  0.44955092017E+03  0.17060556651E+03 0.  0.
        -24    2    3    3    0    0  0.83600778167E+01  0.12568961417E+03 -0.36630548970E+03  0.39534707712E+03  0.79068512050E+02 0.  0.
          6    2    1    2  501    0 -0.53781407239E+02 -0.14823473750E+03 -0.54621641962E+03  0.59374269008E+03  0.17120755765E+03 0.  0.
         24    2    5    5    0    0 -0.62543644351E+02 -0.48489739451E+02 -0.41209735306E+03  0.42630358041E+03  0.75150196177E+02 0.  0.
          5    1    5    5  501    0  0.87622371128E+01 -0.99744998045E+02 -0.13411906655E+03  0.16743910967E+03  0.47000000000E+01 0. -1.
        -13    1    6    6    0    0  0.95388838918E+01  0.10784549477E+02 -0.35347777242E+02  0.38167553881E+02  0.00000000000E+00 0.  1.
         14    1    6    6    0    0 -0.72082528243E+02 -0.59274288928E+02 -0.37674957582E+03  0.38813602653E+03  0.00000000000E+00 0. -1.
         -5    1    3    3    0  503  0.45421329422E+02  0.22545123329E+02 -0.18563050642E+02  0.54203843051E+02  0.47000000000E+01 0.  1.
         11    1    4    4    0    0  0.19238928326E+02  0.46598243466E+02 -0.57882920715E+02  0.76759137357E+02  0.00000000000E+00 0. -1.
        -12    1    4    4    0    0 -0.10878850509E+02  0.79091370701E+02 -0.30842256898E+03  0.31858793977E+03  0.00000000000E+00 0.  1.
</event>
<event>
12    1  0.8451514E-002  0.2026877E+03  0.7818608E-02  0.1147625E+00
         21   -1    0    0  501  502  0.00000000000E+00  0.00000000000E+00  0.11762109127E+03  0.11762109127E+03  0.00000000000E+00 0.  1.
         21   -1    0    0  502  503 -0.00000000000E+00 -0.00000000000E+00 -0.35160110279E+03  0.35160110279E+03  0.00000000000E+00 0.  1.
         -6    2    1    2    0  503 -0.10214871880E+03  0.12633260769E+02 -0.14035875200E+03  0.24654184713E+03  0.17460911516E+03 0.  0.
        -24    2    3    3    0    0 -0.12075427960E+03 -0.17817230246E+02 -0.15116687417E+03  0.20896120317E+03  0.76904556727E+02 0.  0.
          6    2    1    2  501    0  0.10214871880E+03 -0.12633260769E+02 -0.93621259524E+02  0.22268034693E+03  0.17386096929E+03 0.  0.
         24    2    5    5    0    0  0.96505299509E+02 -0.44944941978E+02 -0.12090096246E+03  0.17975989591E+03  0.79770024509E+02 0.  0.
          5    1    5    5  501    0  0.56434192928E+01  0.32311681210E+02  0.27279702933E+02  0.42920451023E+02  0.47000000000E+01 0. -1.
        -11    1    6    6    0    0 -0.81010633656E+01 -0.22808466502E+02 -0.11540962538E+02  0.26815055251E+02  0.00000000000E+00 0.  1.
         12    1    6    6    0    0  0.10460636288E+03 -0.22136475476E+02 -0.10935999992E+03  0.15294484065E+03  0.00000000000E+00 0. -1.
         -5    1    3    3    0  503  0.18605560802E+02  0.30450491015E+02  0.10808122180E+02  0.37580643966E+02  0.47000000000E+01 0.  1.
         11    1    4    4    0    0 -0.20052579481E+02 -0.30231265547E+02 -0.15258072865E+02  0.39355357297E+02  0.00000000000E+00 0. -1.
        -12    1    4    4    0    0 -0.10070170012E+03  0.12414035301E+02 -0.13590880131E+03  0.16960584587E+03  0.00000000000E+00 0.  1.
</event>
<event>
12    1  0.8451514E-002  0.1823063E+03  0.7818608E-02  0.1165728E+00
         21   -1    0    0  503  502  0.00000000000E+00  0.00000000000E+00  0.25298331652E+03  0.25298331652E+03  0.00000000000E+00 0. -1.
         21   -1    0    0  501  503 -0.00000000000E+00 -0.00000000000E+00 -0.13098129818E+03  0.13098129818E+03  0.00000000000E+00 0.  1.
          6    2    1    2  501    0 -0.50967383014E+02 -0.31920319493E+02  0.58235517592E+02  0.19082803428E+03  0.17148580766E+03 0.  0.
         24    2    3    3    0    0  0.74304433733E+01 -0.75472130676E+02  0.34701350132E+02  0.11412722971E+03  0.77907553305E+02 0.  0.
         -6    2    1    2    0  502  0.50967383014E+02  0.31920319493E+02  0.63766500753E+02  0.19313658042E+03  0.17210168840E+03 0.  0.
        -24    2    5    5    0    0  0.79335994908E+02  0.52714354275E+02  0.60442158634E+01  0.12537876023E+03  0.81303737539E+02 0.  0.
          5    1    3    3  501    0 -0.58397826388E+02  0.43551811183E+02  0.23534167460E+02  0.76700804573E+02  0.47000000000E+01 0. -1.
        -13    1    4    4    0    0  0.39165367901E+01  0.14606949291E+02 -0.45681245356E+01  0.15797784331E+02  0.00000000000E+00 0.  1.
         14    1    4    4    0    0  0.35139065832E+01 -0.90079079967E+02  0.39269474668E+02  0.98329445375E+02  0.00000000000E+00 0. -1.
         -5    1    5    5    0  502 -0.28368611894E+02 -0.20794034782E+02  0.57722284890E+02  0.67757820185E+02  0.47000000000E+01 0.  1.
         11    1    6    6    0    0  0.62340089440E+02 -0.71581384478E+01 -0.88669431934E+00  0.62755971224E+02  0.00000000000E+00 0. -1.
        -12    1    6    6    0    0  0.16995905468E+02  0.59872492723E+02  0.69309101827E+01  0.62622789011E+02  0.00000000000E+00 0.  1.
</event>
<event>
12    1  0.8451514E-002  0.1955316E+03  0.7818608E-02  0.1153738E+00
         21   -1    0    0  501  502  0.00000000000E+00  0.00000000000E+00  0.74487415832E+03  0.74487415832E+03  0.00000000000E+00 0. -1.
         21   -1    0    0  502  503 -0.00000000000E+00 -0.00000000000E+00 -0.18613985531E+03  0.18613985531E+03  0.00000000000E+00 0. -1.
         -6    2    1    2    0  503 -0.23770298012E+02  0.89120520649E+02 -0.11725593445E+03  0.22731279599E+03  0.17150702256E+03 0.  0.
        -24    2    3    3    0    0  0.13713660612E+02  0.87208193724E+01 -0.68069835859E+01  0.85572823269E+02  0.83739213507E+02 0.  0.
          6    2    1    2  501    0  0.23770298012E+02 -0.89120520649E+02  0.67599023746E+03  0.70370121765E+03  0.17240971060E+03 0.  0.
         24    2    5    5    0    0 -0.18764009500E+01 -0.55112860737E+02  0.63912906502E+03  0.64717591240E+03  0.85497084914E+02 0.  0.
          5    1    5    5  501    0  0.25646698962E+02 -0.34007659913E+02  0.36861172437E+02  0.56525305252E+02  0.47000000000E+01 0. -1.
        -13    1    6    6    0    0 -0.16162598320E+02 -0.67610747913E+02  0.31908982340E+03  0.32657427672E+03  0.00000000000E+00 0.  1.
         14    1    6    6    0    0  0.14286197370E+02  0.12497887176E+02  0.32003924163E+03  0.32060163568E+03  0.00000000000E+00 0. -1.
         -5    1    3    3    0  503 -0.37483958624E+02  0.80399701277E+02 -0.11044895086E+03  0.14173997272E+03  0.47000000000E+01 0.  1.
         11    1    4    4    0    0 -0.15367157707E+02 -0.98261114497E-01 -0.38627806433E+02  0.41572426210E+02  0.00000000000E+00 0. -1.
        -12    1    4    4    0    0  0.29080818318E+02  0.88190804869E+01  0.31820822847E+02  0.44000397059E+02  0.00000000000E+00 0.  1.
</event>
<event>
12    1  0.8451514E-002  0.1912176E+03  0.7818608E-02  0.1157441E+00
         21   -1    0    0  503  502  0.00000000000E+00  0.00000000000E+00  0.55611924130E+02  0.55611924130E+02  0.00000000000E+00 0. -1.
         21   -1    0    0  501  503 -0.00000000000E+00 -0.00000000000E+00 -0.69398649474E+03  0.69398649474E+03  0.00000000000E+00 0.  1.
          6    2    1    2  501    0  0.82261285050E+02  0.48042581415E+01 -0.40619473875E+03  0.44881337617E+03  0.17218966556E+03 0.  0.
         24    2    3    3    0    0  0.11315561990E+03  0.34170391449E+02 -0.35183712280E+03  0.37957704089E+03  0.79483073827E+02 0.  0.
         -6    2    1    2    0  502 -0.82261285050E+02 -0.48042581415E+01 -0.23217983186E+03  0.30078504270E+03  0.17255192748E+03 0.  0.
        -24    2    5    5    0    0 -0.53510786044E+02  0.30284488081E+02 -0.50750348096E+02  0.11371137036E+03  0.81080968641E+02 0.  0.
          5    1    3    3  501    0 -0.30894334847E+02 -0.29366133307E+02 -0.54357615951E+02  0.69236335279E+02  0.47000000000E+01 0. -1.
        -13    1    4    4    0    0  0.75172939067E+02  0.20622973782E+02 -0.31650261641E+03  0.32596040252E+03  0.00000000000E+00 0.  1.
         14    1    4    4    0    0  0.37982680830E+02  0.13547417667E+02 -0.35334506388E+02  0.53616638371E+02  0.00000000000E+00 0. -1.
         -5    1    5    5    0  502 -0.28750499006E+02 -0.35088746223E+02 -0.18142948377E+03  0.18707367234E+03  0.47000000000E+01 0.  1.
         13    1    6    6    0    0  0.69682948401E+01  0.39628929120E+02 -0.15726739460E+02  0.43201151491E+02  0.00000000000E+00 0. -1.
        -14    1    6    6    0    0 -0.60479080884E+02 -0.93444410382E+01 -0.35023608636E+02  0.70510218868E+02  0.00000000000E+00 0.  1.
</event>
<event>
12    1  0.8451514E-002  0.2022408E+03  0.7818608E-02  0.1148260E+00
         21   -1    0    0  503  502  0.00000000000E+00  0.00000000000E+00  0.19889404268E+03  0.19889404268E+03  0.00000000000E+00 0.  1.
         21   -1    0    0  501  503 -0.00000000000E+00 -0.00000000000E+00 -0.45842940806E+03  0.45842940806E+03  0.00000000000E+00 0. -1.
          6    2    1    2  501    0 -0.94439355833E+02 -0.41581506253E+02 -0.37447944639E+03  0.42470037398E+03  0.17171994147E+03 0.  0.
         24    2    3    3    0    0 -0.61385090043E+02  0.30045102139E+02 -0.27593149742E+03  0.29838036859E+03  0.90674228131E+02 0.  0.
         -6    2    1    2    0  502  0.94439355833E+02  0.41581506253E+02  0.11494408100E+03  0.23262307676E+03  0.17393544921E+03 0.  0.
        -24    2    5    5    0    0  0.58953738358E+02  0.13231331716E+02 -0.10026559848E+02  0.99571535924E+02  0.78506989871E+02 0.  0.
          5    1    3    3  501    0 -0.33054265790E+02 -0.71626608392E+02 -0.98547948961E+02  0.12632000539E+03  0.47000000000E+01 0. -1.
        -11    1    4    4    0    0  0.17253641638E+02  0.26920142138E+02 -0.11300524130E+03  0.11744175903E+03  0.00000000000E+00 0.  1.
         12    1    4    4    0    0 -0.78638731681E+02  0.31249600011E+01 -0.16292625613E+03  0.18093860956E+03  0.00000000000E+00 0. -1.
         -5    1    5    5    0  502  0.35485617475E+02  0.28350174536E+02  0.12497064085E+03  0.13305154084E+03  0.47000000000E+01 0.  1.
         13    1    6    6    0    0  0.62168848078E+02 -0.17481411219E+02 -0.19171192021E+02  0.67365421494E+02  0.00000000000E+00 0. -1.
        -14    1    6    6    0    0 -0.32151097205E+01  0.30712742935E+02  0.91446321726E+01  0.32206114430E+02  0.00000000000E+00 0.  1.
</event>
<event>
12    1  0.8451514E-002  0.1996244E+03  0.7818608E-02  0.1150159E+00
         21   -1    0    0  501  502  0.00000000000E+00  0.00000000000E+00  0.14444969638E+03  0.14444969638E+03  0.00000000000E+00 0.  1.
         21   -1    0    0  502  503 -0.00000000000E+00 -0.00000000000E+00 -0.39842118729E+03  0.39842118729E+03  0.00000000000E+00 0.  1.
         -6    2    1    2    0  503  0.99414592707E+02 -0.97254807624E+01 -0.27804389837E+03  0.34228397573E+03  0.17283536791E+03 0.  0.
        -24    2    3    3    0    0  0.64915067749E+02 -0.72375418833E+02 -0.20388399140E+03  0.23914807624E+03  0.78555414487E+02 0.  0.
          6    2    1    2  501    0 -0.99414592707E+02  0.97254807624E+01  0.24072407449E+02  0.20058690794E+03  0.17227240237E+03 0.  0.
         24    2    5    5    0    0 -0.16138900288E+02 -0.14849864331E+02 -0.40823392469E+02  0.92086477615E+02  0.79576299322E+02 0.  0.
          5    1    5    5  501    0 -0.83275692419E+02  0.24575345093E+02  0.64895799917E+02  0.10850043033E+03  0.47000000000E+01 0. -1.
        -11    1    6    6    0    0 -0.36354543115E+02  0.55152954382E+01  0.59140264718E+01  0.37243079867E+02  0.00000000000E+00 0.  1.
         12    1    6    6    0    0  0.20215642827E+02 -0.20365159769E+02 -0.46737418941E+02  0.54843397748E+02  0.00000000000E+00 0. -1.
         -5    1    3    3    0  503  0.34499524958E+02  0.62649938071E+02 -0.74159906964E+02  0.10313589949E+03  0.47000000000E+01 0.  1.
         11    1    4    4    0    0 -0.14313770479E+02 -0.33216967084E+02 -0.68674974517E+02  0.77617672295E+02  0.00000000000E+00 0. -1.
        -12    1    4    4    0    0  0.79228838228E+02 -0.39158451749E+02 -0.13520901688E+03  0.16153040394E+03  0.00000000000E+00 0.  1.
</event>
<event>
12    1  0.8451514E-002  0.1948923E+03  0.7818608E-02  0.1154234E+00
         21   -1    0    0  501  502  0.00000000000E+00  0.00000000000E+00  0.68045965882E+02  0.68045965882E+02  0.00000000000E+00 0.  1.
         21   -1    0    0  502  503 -0.00000000000E+00 -0.00000000000E+00 -0.89023508238E+03  0.89023508238E+03  0.00000000000E+00 0.  1.
         -6    2    1    2    0  503  0.16263969748E+00  0.89270038105E+02 -0.70402411601E+03  0.73036440886E+03  0.17266455236E+03 0.  0.
        -24    2    3    3    0    0  0.64056680822E+02  0.45579805695E+02 -0.50098992769E+03  0.51302537295E+03  0.77610235172E+02 0.  0.
          6    2    1    2  501    0 -0.16263969748E+00 -0.89270038105E+02 -0.11816500048E+03  0.22791663940E+03  0.17324508946E+03 0.  0.
         24    2    5    5    0    0  0.52704807072E+02 -0.32644932505E+02 -0.21464821784E+02  0.10392315541E+03  0.80596497128E+02 0.  0.
          5    1    5    5  501    0 -0.52867446769E+02 -0.56625105601E+02 -0.96700178698E+02  0.12399348399E+03  0.47000000000E+01 0. -1.
        -13    1    6    6    0    0  0.74246362565E+02 -0.28737593266E+02 -0.19325235262E+02  0.81925797761E+02  0.00000000000E+00 0.  1.
         14    1    6    6    0    0 -0.21541555493E+02 -0.39073392389E+01 -0.21395865217E+01  0.21997357648E+02  0.00000000000E+00 0. -1.
         -5    1    3    3    0  503 -0.63894041124E+02  0.43690232410E+02 -0.20303418833E+03  0.21733903591E+03  0.47000000000E+01 0.  1.
         11    1    4    4    0    0  0.33699158490E+02  0.47692917493E+02 -0.15394889383E+03  0.16465269379E+03  0.00000000000E+00 0. -1.
        -12    1    4    4    0    0  0.30357522332E+02 -0.21131117978E+01 -0.34704103385E+03  0.34837267916E+03  0.00000000000E+00 0.  1.
</event>
<event>
12    1  0.8451514E-002  0.1922036E+03  0.7818608E-02  0.1156614E+00
         21   -1    0    0  503  502  0.00000000000E+00  0.00000000000E+00  0.17102089374E+03  0.17102089374E+03  0.00000000000E+00 0.  1.
         21   -1    0    0  501  503 -0.00000000000E+00 -0.00000000000E+00 -0.22741399309E+03  0.22741399309E+03  0.00000000000E+00 0.  1.
          6    2    1    2  501    0 -0.57309396734E+02  0.59768987762E+02 -0.73990315996E+02  0.20542745834E+03  0.17282700868E+03 0.  0.
         24    2    3    3    0    0  0.14480680430E+02  0.57503187900E+02 -0.86566509793E+02  0.13235763093E+03  0.80675120842E+02 0.  0.
         -6    2    1    2    0  502  0.57309396734E+02 -0.59768987762E+02  0.17597216644E+02  0.19300742848E+03  0.17345174131E+03 0.  0.
        -24    2    5    5    0    0  0.86664919204E+02 -0.35460603959E+02 -0.35495049538E+02  0.12748244888E+03  0.78889882605E+02 0.  0.
          5    1    3    3  501    0 -0.71790077163E+02  0.22657998619E+01  0.12576193798E+02  0.73069827416E+02  0.47000000000E+01 0. -1.
        -13    1    4    4    0    0 -0.14989154595E+02  0.21094919778E+02  0.77810341668E+01  0.27022488572E+02  0.00000000000E+00 0.  1.
         14    1    4    4    0    0  0.29469835025E+02  0.36408268122E+02 -0.94347543960E+02  0.10533514236E+03  0.00000000000E+00 0. -1.
         -5    1    5    5    0  502 -0.29355522470E+02 -0.24308383803E+02  0.53092266183E+02  0.65524979596E+02  0.47000000000E+01 0.  1.
         11    1    6    6    0    0  0.22417886173E+02  0.19053209575E+02 -0.31539488972E+02  0.43131494064E+02  0.00000000000E+00 0. -1.
        -12    1    6    6    0    0  0.64247033031E+02 -0.54513813534E+02 -0.39555605662E+01  0.84350954818E+02  0.00000000000E+00 0.  1.
</event>
<event>
12    1  0.8451514E-002  0.1912546E+03  0.7818608E-02  0.1158715E+00
         21   -1    0    0  501  502  0.00000000000E+00  0.00000000000E+00  0.48861982316E+03  0.48861982316E+03  0.00000000000E+00 0. -1.
         21   -1    0    0  502  503 -0.00000000000E+00 -0.00000000000E+00 -0.85317400188E+02  0.85317400188E+02  0.00000000000E+00 0. -1.
         -6    2    1    2    0  503 -0.27327617746E+02  0.54382796500E+02  0.87692764226E+02  0.20490091788E+03  0.17490019441E+03 0.  0.
        -24    2    3    3    0    0  0.29090303956E+02  0.75781717652E+02  0.23612406408E+02  0.11675741005E+03  0.80533425048E+02 0.  0.
          6    2    1    2  501    0  0.27327617746E+02 -0.54382796500E+02  0.31560965875E+03  0.36903630547E+03  0.18131202611E+03 0.  0.
         24    2    5    5    0    0  0.60781076428E+02 -0.50563695144E+02  0.10433977313E+03  0.15504851609E+03  0.83079645921E+02 0.  0.
          5    1    5    5  501    0 -0.33453458681E+02 -0.38191013561E+01  0.21126988562E+03  0.21398778938E+03  0.47000000000E+01 0. -1.
        -13    1    6    6    0    0  0.31574106396E+02 -0.61650469262E+02  0.10255814983E+03  0.12375733777E+03  0.00000000000E+00 0.  1.
         14    1    6    6    0    0  0.29206970032E+02  0.11086774117E+02  0.17816232908E+01  0.31291178314E+02  0.00000000000E+00 0. -1.
         -5    1    3    3    0  503 -0.56417921702E+02 -0.21398921151E+02  0.64080357818E+02  0.88143507837E+02  0.47000000000E+01 0.  1.
         11    1    4    4    0    0  0.57221960822E+01 -0.11519353667E+02 -0.13872108707E+02  0.18917569529E+02  0.00000000000E+00 0. -1.
        -12    1    4    4    0    0  0.23368107874E+02  0.87301071319E+02  0.37484515115E+02  0.97839840518E+02  0.00000000000E+00 0.  1.
</event>
<event>
12    1  0.8451514E-002  0.2221007E+03  0.7818608E-02  0.1132433E+00
         21   -1    0    0  501  502  0.00000000000E+00  0.00000000000E+00  0.16679330168E+03  0.16679330168E+03  0.00000000000E+00 0. -1.
         21   -1    0    0  502  503 -0.00000000000E+00 -0.00000000000E+00 -0.29686990368E+03  0.29686990368E+03  0.00000000000E+00 0.  1.
         -6    2    1    2    0  503  0.13995390864E+03 -0.12716759450E+00 -0.83625149425E+02  0.23732235304E+03  0.17245759166E+03 0.  0.
        -24    2    3    3    0    0  0.73206338016E+02  0.25556855355E+01  0.22978327558E+02  0.11143022783E+03  0.80765046170E+02 0.  0.
          6    2    1    2  501    0 -0.13995390864E+03  0.12716759450E+00 -0.46451452568E+02  0.22634085231E+03  0.17171293272E+03 0.  0.
         24    2    5    5    0    0 -0.12620075620E+03 -0.56105235587E+02 -0.52374925560E+02  0.16795926359E+03  0.79954693871E+02 0.  0.
          5    1    5    5  501    0 -0.13753152443E+02  0.56232403182E+02  0.59234729917E+01  0.58381588725E+02  0.47000000000E+01 0. -1.
        -13    1    6    6    0    0 -0.18589075691E+02  0.95139044942E+01 -0.34959632090E+02  0.40721542083E+02  0.00000000000E+00 0.  1.
         14    1    6    6    0    0 -0.10761168051E+03 -0.65619140081E+02 -0.17415293470E+02  0.12723772151E+03  0.00000000000E+00 0. -1.
         -5    1    3    3    0  503  0.66747570629E+02 -0.26828531300E+01 -0.10660347698E+03  0.12589212521E+03  0.47000000000E+01 0.  1.
         13    1    4    4    0    0 -0.79182177324E+01  0.21658318833E+02  0.15428617429E+02  0.27745687638E+02  0.00000000000E+00 0. -1.
        -14    1    4    4    0    0  0.81124555748E+02 -0.19102633298E+02  0.75497101283E+01  0.83684540193E+02  0.00000000000E+00 0.  1.
</event>
<event>
12    1  0.8451514E-002  0.2357829E+03  0.7818608E-02  0.1125908E+00
         21   -1    0    0  501  502  0.00000000000E+00  0.00000000000E+00  0.79045449790E+02  0.79045449790E+02  0.00000000000E+00 0. -1.
         21   -1    0    0  502  503 -0.00000000000E+00 -0.00000000000E+00 -0.65019442068E+03  0.65019442068E+03  0.00000000000E+00 0. -1.
         -6    2    1    2    0  503  0.40072103334E+02 -0.13020775774E+03 -0.28581594282E+03  0.35909323468E+03  0.16940296450E+03 0.  0.
        -24    2    3    3    0    0  0.20723871882E+02 -0.17274105317E+02 -0.19784219565E+03  0.21456007550E+03  0.78527816990E+02 0.  0.
          6    2    1    2  501    0 -0.40072103334E+02  0.13020775774E+03 -0.28533302806E+03  0.37014663579E+03  0.19244157929E+03 0.  0.
         24    2    5    5    0    0 -0.63047913240E+02  0.16462136962E+03 -0.22178511285E+03  0.29416892819E+03  0.79192722717E+02 0.  0.
          5    1    5    5  501    0  0.22975809906E+02 -0.34413611882E+02 -0.63547915218E+02  0.75977707600E+02  0.47000000000E+01 0. -1.
        -11    1    6    6    0    0  0.26193956357E+01 -0.58055888427E+01  0.59959657320E+00  0.63973128231E+01  0.00000000000E+00 0.  1.
         12    1    6    6    0    0 -0.65667308875E+02  0.17042695846E+03 -0.22238470942E+03  0.28777161536E+03  0.00000000000E+00 0. -1.
         -5    1    3    3    0  503  0.19348231452E+02 -0.11293365242E+03 -0.87973747175E+02  0.14453315918E+03  0.47000000000E+01 0.  1.
         11    1    4    4    0    0 -0.13764422805E+02 -0.39320287367E+02 -0.11081989031E+03  0.11839169068E+03  0.00000000000E+00 0. -1.
        -12    1    4    4    0    0  0.34488294686E+02  0.22046182050E+02 -0.87022305341E+02  0.96168384826E+02  0.00000000000E+00 0.  1.
</event>
<event>
12    1  0.8451514E-002  0.1822172E+03  0.7818608E-02  0.1169910E+00
         21   -1    0    0  501  502  0.00000000000E+00  0.00000000000E+00  0.11838044277E+03  0.11838044277E+03  0.00000000000E+00 0. -1.
         21   -1    0    0  502  503 -0.00000000000E+00 -0.00000000000E+00 -0.26719730646E+03  0.26719730646E+03  0.00000000000E+00 0. -1.
         -6    2    1    2    0  503 -0.25181701960E+02 -0.50660336857E+02 -0.36861786238E+02  0.18590828768E+03  0.17321233299E+03 0.  0.
        -24    2    3    3    0    0  0.51148548383E+02 -0.28294305601E+02 -0.42529480596E+02  0.10602863300E+03  0.77566568607E+02 0.  0.
          6    2    1    2  501    0  0.25181701960E+02  0.50660336857E+02 -0.11195507745E+03  0.19966946156E+03  0.15534917659E+03 0.  0.
         24    2    5    5    0    0  0.43538792368E+02 -0.81852226059E+01 -0.21397201554E+02  0.90021837216E+02  0.75388769929E+02 0.  0.
          5    1    5    5  501    0 -0.18357090408E+02  0.58845559463E+02 -0.90557875896E+02  0.10964762434E+03  0.47000000000E+01 0. -1.
        -11    1    6    6    0    0 -0.10143187096E+02 -0.17621414311E+02 -0.28549481047E+02  0.35049555701E+02  0.00000000000E+00 0.  1.
         12    1    6    6    0    0  0.53681979463E+02  0.94361917055E+01  0.71522794933E+01  0.54972281515E+02  0.00000000000E+00 0. -1.
         -5    1    3    3    0  503 -0.76330250343E+02 -0.22366031256E+02  0.56676943582E+01  0.79879654675E+02  0.47000000000E+01 0.  1.
         13    1    4    4    0    0 -0.18199770467E+02 -0.83322641167E+00 -0.22202940188E+02  0.28721010851E+02  0.00000000000E+00 0. -1.
        -14    1    4    4    0    0  0.69348318851E+02 -0.27461079189E+02 -0.20326540408E+02  0.77307622151E+02  0.00000000000E+00 0.  1.
</event>
<event>
12    1  0.8451514E-002  0.2907920E+03  0.7818608E-02  0.1089942E+00
         21   -1    0    0  501  502  0.00000000000E+00  0.00000000000E+00  0.67792150971E+03  0.67792150971E+03  0.00000000000E+00 0. -1.
         21   -1    0    0  502  503 -0.00000000000E+00 -0.00000000000E+00 -0.16294654336E+03  0.16294654336E+03  0.00000000000E+00 0.  1.
         -6    2    1    2    0  503 -0.21265953373E+03  0.99747936679E+02  0.53825680114E+02  0.29569044189E+03  0.17135315995E+03 0.  0.
        -24    2    3    3    0    0 -0.12436162315E+03  0.35407767468E+02  0.91806473963E+02  0.17992857819E+03  0.85007889491E+02 0.  0.
          6    2    1    2  501    0  0.21265953373E+03 -0.99747936679E+02  0.46114928623E+03  0.54517761118E+03  0.17142413884E+03 0.  0.
         24    2    5    5    0    0  0.36617009071E+02 -0.65650365284E+02  0.20454225306E+03  0.23209156176E+03  0.79863533227E+02 0.  0.
          5    1    5    5  501    0  0.17604252466E+03 -0.34097571394E+02  0.25660703317E+03  0.31308604941E+03  0.47000000000E+01 0. -1.
        -13    1    6    6    0    0  0.53640966591E+02 -0.23558492451E+02  0.77313179199E+02  0.97003523344E+02  0.00000000000E+00 0.  1.
         14    1    6    6    0    0 -0.17023957520E+02 -0.42091872833E+02  0.12722907386E+03  0.13508803842E+03  0.00000000000E+00 0. -1.
         -5    1    3    3    0  503 -0.88297910579E+02  0.64340169210E+02 -0.37980793850E+02  0.11576186370E+03  0.47000000000E+01 0.  1.
         11    1    4    4    0    0 -0.11580475686E+03  0.58399403215E+02  0.71612764783E+02  0.14815404175E+03  0.00000000000E+00 0. -1.
        -12    1    4    4    0    0 -0.85568662905E+01 -0.22991635747E+02  0.20193709180E+02  0.31774536432E+02  0.00000000000E+00 0.  1.
</event>
<event>
12    1  0.8451514E-002  0.2163234E+03  0.7818608E-02  0.1136983E+00
         21   -1    0    0  501  502  0.00000000000E+00  0.00000000000E+00  0.23369420995E+03  0.23369420995E+03  0.00000000000E+00 0. -1.
         21   -1    0    0  502  503 -0.00000000000E+00 -0.00000000000E+00 -0.23245207510E+03  0.23245207510E+03  0.00000000000E+00 0.  1.
         -6    2    1    2    0  503  0.40285253882E+02  0.12236002378E+03 -0.88254227893E+02  0.23204071272E+03  0.17163684487E+03 0.  0.
        -24    2    3    3    0    0  0.28873734287E+02  0.11044609293E+03  0.20641091552E+01  0.14010782124E+03  0.81202888195E+02 0.  0.
          6    2    1    2  501    0 -0.40285253882E+02 -0.12236002378E+03  0.89496362743E+02  0.23410557233E+03  0.17378418499E+03 0.  0.
         24    2    5    5    0    0 -0.38175931621E+02 -0.13843262394E+03  0.15143981070E+02  0.15786159305E+03  0.63796154043E+02 0.  0.
          5    1    5    5  501    0 -0.21093222611E+01  0.16072600162E+02  0.74352381673E+02  0.76243979283E+02  0.47000000000E+01 0. -1.
        -11    1    6    6    0    0  0.12920917307E+02 -0.39004992032E+02 -0.12036073314E+02  0.42815961607E+02  0.00000000000E+00 0.  1.
         12    1    6    6    0    0 -0.51096848928E+02 -0.99427631910E+02  0.27180054384E+02  0.11504563144E+03  0.00000000000E+00 0. -1.
         -5    1    3    3    0  503  0.11411519595E+02  0.11913930848E+02 -0.90318337048E+02  0.91932891475E+02  0.47000000000E+01 0.  1.
         13    1    4    4    0    0 -0.11541073812E+02  0.31436665885E+02  0.32128214898E+02  0.46407785330E+02  0.00000000000E+00 0. -1.
        -14    1    4    4    0    0  0.40414808099E+02  0.79009427046E+02 -0.30064105743E+02  0.93700035912E+02  0.00000000000E+00 0.  1.
</event>
<event>
12    1  0.8451514E-002  0.2081102E+03  0.7818608E-02  0.1143153E+00
         21   -1    0    0  501  502  0.00000000000E+00  0.00000000000E+00  0.99111530577E+02  0.99111530577E+02  0.00000000000E+00 0.  1.
         21   -1    0    0  502  503 -0.00000000000E+00 -0.00000000000E+00 -0.60783770912E+03  0.60783770912E+03  0.00000000000E+00 0.  1.
         -6    2    1    2    0  503  0.11891371927E+03  0.22268355457E+02 -0.44241423475E+03  0.48891736877E+03  0.16933247205E+03 0.  0.
        -24    2    3    3    0    0  0.62629736478E+02  0.82462996359E+02 -0.29159895629E+03  0.31699116446E+03  0.68780937591E+02 0.  0.
          6    2    1    2  501    0 -0.11891371927E+03 -0.22268355457E+02 -0.66311943794E+02  0.21803187093E+03  0.16883207801E+03 0.  0.
         24    2    5    5    0    0 -0.12368196714E+03  0.26561906587E+02 -0.22095534135E+02  0.15181773677E+03  0.80979310277E+02 0.  0.
          5    1    5    5  501    0  0.47682478671E+01 -0.48830262044E+02 -0.44216409659E+02  0.66214134157E+02  0.47000000000E+01 0. -1.
        -13    1    6    6    0    0 -0.87257530877E+02 -0.10140009566E+02  0.13729864672E+02  0.88911223547E+02  0.00000000000E+00 0.  1.
         14    1    6    6    0    0 -0.36424436260E+02  0.36701916154E+02 -0.35825398807E+02  0.62906513223E+02  0.00000000000E+00 0. -1.
         -5    1    3    3    0  503  0.56283982792E+02 -0.60194640903E+02 -0.15081527846E+03  0.17192620431E+03  0.47000000000E+01 0.  1.
         11    1    4    4    0    0  0.24963494145E+02  0.16853844710E+02 -0.22876880055E+02  0.37823005731E+02  0.00000000000E+00 0. -1.
        -12    1    4    4    0    0  0.37666242332E+02  0.65609151649E+02 -0.26872207624E+03  0.27916815873E+03  0.00000000000E+00 0.  1.
</event>
<event>
12    1  0.8451514E-002  0.2162509E+03  0.7818608E-02  0.1136777E+00
         21   -1    0    0  501  502  0.00000000000E+00  0.00000000000E+00  0.76290987885E+03  0.76290987885E+03  0.00000000000E+00 0.  1.
         21   -1    0    0  502  503 -0.00000000000E+00 -0.00000000000E+00 -0.20209937251E+03  0.20209937251E+03  0.00000000000E+00 0.  1.
         -6    2    1    2    0  503  0.92776852947E+02 -0.91637424464E+02 -0.12254617560E+03  0.24825209599E+03  0.17206561541E+03 0.  0.
        -24    2    3    3    0    0  0.60984798747E+02 -0.12126833566E+03 -0.53953924276E+02  0.16691506537E+03  0.80774118328E+02 0.  0.
          6    2    1    2  501    0 -0.92776852947E+02  0.91637424464E+02  0.68335668194E+03  0.71675715537E+03  0.17250942875E+03 0.  0.
         24    2    5    5    0    0 -0.67744733169E+01  0.69313449020E+02  0.26690625619E+03  0.29090763231E+03  0.92401586764E+02 0.  0.
          5    1    5    5  501    0 -0.86002379631E+02  0.22323975444E+02  0.41645042575E+03  0.42584952306E+03  0.47000000000E+01 0. -1.
        -13    1    6    6    0    0 -0.19092155074E+02  0.65283985019E+02  0.26927507057E+03  0.27773291616E+03  0.00000000000E+00 0.  1.
         14    1    6    6    0    0  0.12317681758E+02  0.40294640008E+01 -0.23688143823E+01  0.13174716148E+02  0.00000000000E+00 0. -1.
         -5    1    3    3    0  503  0.31792054200E+02  0.29630911196E+02 -0.68592251321E+02  0.81337030619E+02  0.47000000000E+01 0.  1.
         13    1    4    4    0    0  0.59350530282E+02 -0.30964048502E+02 -0.15277714842E+02  0.68663427785E+02  0.00000000000E+00 0. -1.
        -14    1    4    4    0    0  0.16342684654E+01 -0.90304287158E+02 -0.38676209435E+02  0.98251637589E+02  0.00000000000E+00 0.  1.
</event>
<event>
12    1  0.8451514E-002  0.1772956E+03  0.7818608E-02  0.1170478E+00
         21   -1    0    0  503  502  0.00000000000E+00  0.00000000000E+00  0.13544755736E+03  0.13544755736E+03  0.00000000000E+00 0. -1.
         21   -1    0    0  501  503 -0.00000000000E+00 -0.00000000000E+00 -0.32086068142E+03  0.32086068142E+03  0.00000000000E+00 0. -1.
          6    2    1    2  501    0 -0.30802098413E+02  0.31436854395E+02 -0.21286165522E+03  0.27702671558E+03  0.17174595134E+03 0.  0.
         24    2    3    3    0    0 -0.13007596003E+02  0.82416436606E+01 -0.13795036384E+02  0.75769986870E+02  0.72894894454E+02 0.  0.
         -6    2    1    2    0  502  0.30802098413E+02 -0.31436854395E+02  0.27448531150E+02  0.17928152320E+03  0.17161409504E+03 0.  0.
        -24    2    5    5    0    0 -0.41621343978E+02 -0.49027497963E+02  0.17296974373E+02  0.10391754073E+03  0.79772414512E+02 0.  0.
          5    1    3    3  501    0 -0.17794502411E+02  0.23195210734E+02 -0.19906661883E+03  0.20125672871E+03  0.47000000000E+01 0. -1.
        -13    1    4    4    0    0  0.34020164115E+01  0.79970127681E+01  0.28821197575E+02  0.30102946011E+02  0.00000000000E+00 0.  1.
         14    1    4    4    0    0 -0.16409612414E+02  0.24463089246E+00 -0.42616233960E+02  0.45667040858E+02  0.00000000000E+00 0. -1.
         -5    1    5    5    0  502  0.72423442392E+02  0.17590643569E+02  0.10151556777E+02  0.75363982472E+02  0.47000000000E+01 0.  1.
         13    1    6    6    0    0 -0.40111005476E+02 -0.33368974422E+02  0.47052877289E+02  0.70259194953E+02  0.00000000000E+00 0. -1.
        -14    1    6    6    0    0 -0.15103385020E+01 -0.15658523541E+02 -0.29755902916E+02  0.33658345773E+02  0.00000000000E+00 0.  1.
</event>
<event>
12    1  0.8451514E-002  0.2460295E+03  0.7818608E-02  0.1115974E+00
         21   -1    0    0  503  502  0.00000000000E+00  0.00000000000E+00  0.86319660407E+03  0.86319660407E+03  0.00000000000E+00 0.  1.
         21   -1    0    0  501  503 -0.00000000000E+00 -0.00000000000E+00 -0.85913565546E+02  0.85913565546E+02  0.00000000000E+00 0.  1.
          6    2    1    2  501    0 -0.86756370597E+02 -0.15141257584E+03  0.18314716154E+03  0.30604877804E+03  0.17225137386E+03 0.  0.
         24    2    3    3    0    0 -0.10563840342E+03 -0.15368299425E+03  0.11095917212E+03  0.23124983567E+03  0.79916291327E+02 0.  0.
         -6    2    1    2    0  502  0.86756370597E+02  0.15141257584E+03  0.59413587699E+03  0.64306139158E+03  0.17343032334E+03 0.  0.
        -24    2    5    5    0    0  0.80172602381E+02  0.65403881053E+02  0.19673138132E+03  0.23637568399E+03  0.80404687394E+02 0.  0.
          5    1    3    3  501    0  0.18882032828E+02  0.22704184095E+01  0.72187989419E+02  0.74798942371E+02  0.47000000000E+01 0. -1.
        -13    1    4    4    0    0  0.89425728975E+01 -0.41491321874E+02  0.25972947891E+02  0.49760359956E+02  0.00000000000E+00 0.  1.
         14    1    4    4    0    0 -0.11458097632E+03 -0.11219167238E+03  0.84986224229E+02  0.18148947571E+03  0.00000000000E+00 0. -1.
         -5    1    5    5    0  502  0.65837682158E+01  0.86008694786E+02  0.39740449566E+03  0.40668570759E+03  0.47000000000E+01 0.  1.
         11    1    6    6    0    0  0.88706877191E+02  0.72874525662E+02  0.19276272402E+03  0.22435925281E+03  0.00000000000E+00 0. -1.
        -12    1    6    6    0    0 -0.85342748101E+01 -0.74706446089E+01  0.39686573018E+01  0.12016431175E+02  0.00000000000E+00 0.  1.
</event>
<event>
12    1  0.8451514E-002  0.2512349E+03  0.7818608E-02  0.1112802E+00
         21   -1    0    0  503  502  0.00000000000E+00  0.00000000000E+00  0.40436927969E+03  0.40436927969E+03  0.00000000000E+00 0.  1.
         21   -1    0    0  501  503 -0.00000000000E+00 -0.00000000000E+00 -0.15506195682E+03  0.15506195682E+03  0.00000000000E+00 0. -1.
          6    2    1    2  501    0  0.14588489740E+03 -0.10978684110E+03  0.11909774675E+03  0.27645859680E+03  0.17002802327E+03 0.  0.
         24    2    3    3    0    0  0.10120914114E+02 -0.66314252595E+02  0.68501868578E+02  0.12511872104E+03  0.80387656734E+02 0.  0.
         -6    2    1    2    0  502 -0.14588489740E+03  0.10978684110E+03  0.13020957612E+03  0.28297263971E+03  0.17257875692E+03 0.  0.
        -24    2    5    5    0    0 -0.15016932980E+03  0.67019944489E+02  0.46619423381E+02  0.18886223942E+03  0.80331029319E+02 0.  0.
          5    1    3    3  501    0  0.13576398329E+03 -0.43472588510E+02  0.50595878172E+02  0.15133987577E+03  0.47000000000E+01 0. -1.
        -11    1    4    4    0    0  0.97374472315E+00 -0.84311978504E+02  0.52181385699E+02  0.99158231688E+02  0.00000000000E+00 0.  1.
         12    1    4    4    0    0  0.91471693906E+01  0.17997725909E+02  0.16320482879E+02  0.25960489347E+02  0.00000000000E+00 0. -1.
         -5    1    5    5    0  502  0.42844324001E+01  0.42766896616E+02  0.83590152735E+02  0.94110400283E+02  0.47000000000E+01 0.  1.
         13    1    6    6    0    0 -0.88449180042E+02  0.17354462584E+02  0.60330676928E+02  0.10846301397E+03  0.00000000000E+00 0. -1.
        -14    1    6    6    0    0 -0.61720149758E+02  0.49665481905E+02 -0.13711253547E+02  0.80399225449E+02  0.00000000000E+00 0.  1.
</event>
<event>
12    1  0.8451514E-002  0.2595060E+03  0.7818608E-02  0.1107559E+00
         21   -1    0    0  503  502  0.00000000000E+00  0.00000000000E+00  0.18053871411E+03  0.18053871411E+03  0.00000000000E+00 0.  1.
         21   -1    0    0  501  503 -0.00000000000E+00 -0.00000000000E+00 -0.39247545958E+03  0.39247545958E+03  0.00000000000E+00 0. -1.
          6    2    1    2  501    0  0.46200177946E+02  0.18837341910E+03 -0.40499589975E+02  0.26264723703E+03  0.17240751974E+03 0.  0.
         24    2    3    3    0    0  0.73708909910E+02  0.20112393980E+03 -0.40608474361E+02  0.23196486476E+03  0.79213683985E+02 0.  0.
         -6    2    1    2    0  502 -0.46200177946E+02 -0.18837341910E+03 -0.17143715549E+03  0.31036693666E+03  0.17122481018E+03 0.  0.
        -24    2    5    5    0    0 -0.65130782094E+02 -0.10611668162E+03 -0.45414529761E+02  0.15861605254E+03  0.87142433501E+02 0.  0.
          5    1    3    3  501    0 -0.27508731963E+02 -0.12750520700E+02  0.10888438588E+00  0.30682372271E+02  0.47000000000E+01 0. -1.
        -11    1    4    4    0    0  0.69544180048E+02  0.86087101382E+02 -0.37370053726E+02  0.11680711844E+03  0.00000000000E+00 0.  1.
         12    1    4    4    0    0  0.41647298617E+01  0.11503683842E+03 -0.32384206348E+01  0.11515774632E+03  0.00000000000E+00 0. -1.
         -5    1    5    5    0  502  0.18930604148E+02 -0.82256737485E+02 -0.12602262573E+03  0.15175088412E+03  0.47000000000E+01 0.  1.
         11    1    6    6    0    0 -0.39659209133E+02 -0.18638524230E+02 -0.51114183754E+02  0.67326868599E+02  0.00000000000E+00 0. -1.
        -12    1    6    6    0    0 -0.25471572961E+02 -0.87478157389E+02  0.56996539926E+01  0.91289183943E+02  0.00000000000E+00 0.  1.
</event>
<event>
12    1  0.8451514E-002  0.1747359E+03  0.7818608E-02  0.1174138E+00
         21   -1    0    0  501  502  0.00000000000E+00  0.00000000000E+00  0.13980692355E+03  0.13980692355E+03  0.00000000000E+00 0.  1.
         21   -1    0    0  502  503 -0.00000000000E+00 -0.00000000000E+00 -0.42277128782E+03  0.42277128782E+03  0.00000000000E+00 0. -1.
         -6    2    1    2    0  503 -0.72211178289E+00 -0.25702575881E+02 -0.34061471687E+03  0.38281981969E+03  0.17283369216E+03 0.  0.
        -24    2    3    3    0    0 -0.44488000183E+02  0.15981397959E+02 -0.95834315260E+02  0.13064420296E+03  0.75160525167E+02 0.  0.
          6    2    1    2  501    0  0.72211178289E+00  0.25702575881E+02  0.57650352602E+02  0.17975839169E+03  0.16831034542E+03 0.  0.
         24    2    5    5    0    0 -0.10000549384E+02 -0.31866187562E+02  0.78559245626E+02  0.11740127666E+03  0.80598013565E+02 0.  0.
          5    1    5    5  501    0  0.10722661166E+02  0.57568763443E+02 -0.20908893024E+02  0.62357115026E+02  0.47000000000E+01 0. -1.
        -11    1    6    6    0    0  0.17572002317E+02 -0.45067402681E+02  0.22065862763E+02  0.53167173607E+02  0.00000000000E+00 0.  1.
         12    1    6    6    0    0 -0.27572551701E+02  0.13201215119E+02  0.56493382863E+02  0.64234103054E+02  0.00000000000E+00 0. -1.
         -5    1    3    3    0  503  0.43765888400E+02 -0.41683973840E+02 -0.24478040161E+03  0.25217561673E+03  0.47000000000E+01 0.  1.
         13    1    4    4    0    0 -0.42692160364E+02  0.31761780205E+02 -0.10081776208E+03  0.11399847538E+03  0.00000000000E+00 0. -1.
        -14    1    4    4    0    0 -0.17958398195E+01 -0.15780382246E+02  0.49834468151E+01  0.16645727579E+02  0.00000000000E+00 0.  1.
</event>
<event>
12    1  0.8451514E-002  0.1969670E+03  0.7818608E-02  0.1152864E+00
         21   -1    0    0  501  502  0.00000000000E+00  0.00000000000E+00  0.12609994076E+04  0.12609994076E+04  0.00000000000E+00 0.  1.
         21   -1    0    0  502  503 -0.00000000000E+00 -0.00000000000E+00 -0.42188456043E+02  0.42188456043E+02  0.00000000000E+00 0.  1.
         -6    2    1    2    0  503 -0.28294233973E+02  0.92832385771E+02  0.26184778174E+03  0.32616457492E+03  0.16852493468E+03 0.  0.
        -24    2    3    3    0    0  0.13176001654E+02  0.10506190137E+03  0.13067774038E+03  0.18797263867E+03  0.83937065234E+02 0.  0.
          6    2    1    2  501    0  0.28294233973E+02 -0.92832385771E+02  0.95696316982E+03  0.97702328872E+03  0.17139889962E+03 0.  0.
         24    2    5    5    0    0 -0.48882248578E+02 -0.73941732076E+02  0.59444803142E+03  0.60587320880E+03  0.76531229682E+02 0.  0.
          5    1    5    5  501    0  0.77176482550E+02 -0.18890653695E+02  0.36251513840E+03  0.37115007992E+03  0.47000000000E+01 0. -1.
        -13    1    6    6    0    0 -0.32367030659E+02 -0.69910501754E+02  0.57459306686E+03  0.57973467673E+03  0.00000000000E+00 0.  1.
         14    1    6    6    0    0 -0.16515217918E+02 -0.40312303216E+01  0.19854964562E+02  0.26138532066E+02  0.00000000000E+00 0. -1.
         -5    1    3    3    0  503 -0.41470235627E+02 -0.12229515594E+02  0.13117004136E+03  0.13819193625E+03  0.47000000000E+01 0.  1.
         11    1    4    4    0    0 -0.26568950706E+02  0.42741874136E+02  0.91227814045E+02  0.10418872781E+03  0.00000000000E+00 0. -1.
        -12    1    4    4    0    0  0.39744952361E+02  0.62320027229E+02  0.39449926333E+02  0.83783910864E+02  0.00000000000E+00 0.  1.
</event>
<event>
12    1  0.8451514E-002  0.2657385E+03  0.7818608E-02  0.1103898E+00
         21   -1    0    0  501  502  0.00000000000E+00  0.00000000000E+00  0.65647637760E+03  0.65647637760E+03  0.00000000000E+00 0.  1.
         21   -1    0    0  502  503 -0.00000000000E+00 -0.00000000000E+00 -0.30896862336E+03  0.30896862336E+03  0.00000000000E+00 0.  1.
         -6    2    1    2    0  503 -0.15476178496E+03  0.12929813683E+03 -0.21651157700E+03  0.34195904354E+03  0.17143367875E+03 0.  0.
        -24    2    3    3    0    0 -0.80447341709E+02  0.42994823949E+01 -0.13467968432E+03  0.17502837306E+03  0.77498733344E+02 0.  0.
          6    2    1    2  501    0  0.15476178496E+03 -0.12929813683E+03  0.56401933124E+03  0.62348595743E+03  0.17305408064E+03 0.  0.
         24    2    5    5    0    0  0.17014794190E+03 -0.72275383678E+02  0.43366478214E+03  0.48029822516E+03  0.91908588281E+02 0.  0.
          5    1    5    5  501    0 -0.15386156940E+02 -0.57022753154E+02  0.13035454909E+03  0.14318773227E+03  0.47000000000E+01 0. -1.
        -11    1    6    6    0    0  0.13807411260E+03 -0.86217271191E+02  0.29126062411E+03  0.33366244856E+03  0.00000000000E+00 0.  1.
         12    1    6    6    0    0  0.32073829300E+02  0.13941887513E+02  0.14240415803E+03  0.14663577660E+03  0.00000000000E+00 0. -1.
         -5    1    3    3    0  503 -0.74314443254E+02  0.12499865444E+03 -0.81831892679E+02  0.16693067048E+03  0.47000000000E+01 0.  1.
         11    1    4    4    0    0  0.11977111717E+02  0.14106770571E+02 -0.17560239566E+02  0.25511060241E+02  0.00000000000E+00 0. -1.
        -12    1    4    4    0    0 -0.92424453426E+02 -0.98072881762E+01 -0.11711944475E+03  0.14951731281E+03  0.00000000000E+00 0.  1.
</event>
<event>
12    1  0.8451514E-002  0.1813655E+03  0.7818608E-02  0.1166720E+00
         21   -1    0    0  503  502  0.00000000000E+00  0.00000000000E+00  0.57684417132E+02  0.57684417132E+02  0.00000000000E+00 0.  1.
         21   -1    0    0  501  503 -0.00000000000E+00 -0.00000000000E+00 -0.59264013614E+03  0.59264013614E+03  0.00000000000E+00 0.  1.
          6    2    1    2  501    0 -0.95782433667E+01  0.47203479700E+02 -0.33416619279E+03  0.37975133225E+03  0.17385085188E+03 0.  0.
         24    2    3    3    0    0 -0.12299049404E+02  0.32665830166E+02 -0.34811162834E+03  0.35888721923E+03  0.80000045387E+02 0.  0.
         -6    2    1    2    0  502  0.95782433667E+01 -0.47203479700E+02 -0.20078952622E+03  0.27057322102E+03  0.17485286058E+03 0.  0.
        -24    2    5    5    0    0 -0.71365559322E+01 -0.10402665972E+02 -0.21325054105E+03  0.22801677266E+03  0.79728975077E+02 0.  0.
          5    1    3    3  501    0  0.27208060374E+01  0.14537649534E+02  0.13945435552E+02  0.20864113022E+02  0.47000000000E+01 0. -1.
        -11    1    4    4    0    0  0.78860758253E+01 -0.14286789627E+02 -0.15957518283E+02  0.22824218267E+02  0.00000000000E+00 0.  1.
         12    1    4    4    0    0 -0.20185125229E+02  0.46952619792E+02 -0.33215411006E+03  0.33606300096E+03  0.00000000000E+00 0. -1.
         -5    1    5    5    0  502  0.16714799299E+02 -0.36800813727E+02  0.12461014830E+02  0.42556448362E+02  0.47000000000E+01 0.  1.
         13    1    6    6    0    0  0.81185249816E+01 -0.43231974133E+02 -0.12985780190E+03  0.13710566272E+03  0.00000000000E+00 0. -1.
        -14    1    6    6    0    0 -0.15255080914E+02  0.32829308160E+02 -0.83392739147E+02  0.90911109939E+02  0.00000000000E+00 0.  1.
</event>
<event>
12    1  0.8451514E-002  0.1783634E+03  0.7818608E-02  0.1170711E+00
         21   -1    0    0  503  502  0.00000000000E+00  0.00000000000E+00  0.10876081973E+04  0.10876081973E+04  0.00000000000E+00 0.  1.
         21   -1    0    0  501  503 -0.00000000000E+00 -0.00000000000E+00 -0.42369897271E+02  0.42369897271E+02  0.00000000000E+00 0. -1.
          6    2    1    2  501    0  0.24243928717E+02 -0.14835515589E+02  0.20338230719E+03  0.27051409221E+03  0.17608421452E+03 0.  0.
         24    2    3    3    0    0  0.39541679190E+02  0.29612300781E+02  0.20114394118E+03  0.22322001402E+03  0.83233748162E+02 0.  0.
         -6    2    1    2    0  502 -0.24243928717E+02  0.14835515589E+02  0.84185599284E+03  0.85946400237E+03  0.17073077658E+03 0.  0.
        -24    2    5    5    0    0 -0.39050526021E+02  0.40382911881E+02  0.27783476267E+03  0.29465080947E+03  0.80443899825E+02 0.  0.
          5    1    3    3  501    0 -0.15297750473E+02 -0.44447816370E+02  0.22383660049E+01  0.47294078191E+02  0.47000000000E+01 0. -1.
        -13    1    4    4    0    0 -0.72669459402E+01  0.57621711550E+01  0.14870025110E+03  0.14898918013E+03  0.00000000000E+00 0.  1.
         14    1    4    4    0    0  0.46808625130E+02  0.23850129626E+02  0.52443690084E+02  0.74230833885E+02  0.00000000000E+00 0. -1.
         -5    1    5    5    0  502  0.14806597304E+02 -0.25547396292E+02  0.56402123018E+03  0.56481319290E+03  0.47000000000E+01 0.  1.
         11    1    6    6    0    0 -0.26317230106E+02 -0.15997140825E+02  0.43537569359E+02  0.53329401465E+02  0.00000000000E+00 0. -1.
        -12    1    6    6    0    0 -0.12733295915E+02  0.56380052706E+02  0.23429719331E+03  0.24132140800E+03  0.00000000000E+00 0.  1.
</event>
<event>
12    1  0.8451514E-002  0.2042832E+03  0.7818608E-02  0.1146326E+00
         21   -1    0    0  501  502  0.00000000000E+00  0.00000000000E+00  0.20393188090E+03  0.20393188090E+03  0.00000000000E+00 0. -1.
         21   -1    0    0  502  503 -0.00000000000E+00 -0.00000000000E+00 -0.25497916361E+03  0.25497916361E+03  0.00000000000E+00 0.  1.
         -6    2    1    2    0  503 -0.85570166961E+02  0.67172543381E+02 -0.12818720332E+03  0.24054852055E+03  0.17203844798E+03 0.  0.
        -24    2    3    3    0    0  0.66109769919E+01  0.52447477941E+02 -0.10864420842E+03  0.14505920438E+03  0.80275561609E+02 0.  0.
          6    2    1    2  501    0  0.85570166961E+02 -0.67172543381E+02  0.77139920612E+02  0.21836252396E+03  0.17290812722E+03 0.  0.
         24    2    5    5    0    0  0.29102504041E+02  0.31228860151E+02  0.26713941727E+02  0.94119606579E+02  0.79515207428E+02 0.  0.
          5    1    5    5  501    0  0.56467662920E+02 -0.98401403532E+02  0.50425978885E+02  0.12424291738E+03  0.47000000000E+01 0. -1.
        -11    1    6    6    0    0 -0.11325597703E+02 -0.38984288613E+00 -0.21115245425E+02  0.23964029923E+02  0.00000000000E+00 0.  1.
         12    1    6    6    0    0  0.40428101744E+02  0.31618703037E+02  0.47829187152E+02  0.70155576656E+02  0.00000000000E+00 0. -1.
         -5    1    3    3    0  503 -0.92181143953E+02  0.14725065440E+02 -0.19542994903E+02  0.95489316169E+02  0.47000000000E+01 0.  1.
         11    1    4    4    0    0 -0.32346010974E+02  0.45217555158E+02 -0.73028103262E+02  0.91782327201E+02  0.00000000000E+00 0. -1.
        -12    1    4    4    0    0  0.38956987966E+02  0.72299227832E+01 -0.35616105159E+02  0.53276877175E+02  0.00000000000E+00 0.  1.
</event>
<event>
12    1  0.8451514E-002  0.2584122E+03  0.7818608E-02  0.1108126E+00
         21   -1    0    0  501  502  0.00000000000E+00  0.00000000000E+00  0.16480374343E+03  0.16480374343E+03  0.00000000000E+00 0.  1.
         21   -1    0    0  502  503 -0.00000000000E+00 -0.00000000000E+00 -0.41569664473E+03  0.41569664473E+03  0.00000000000E+00 0. -1.
         -6    2    1    2    0  503  0.15601285750E+03  0.11505692283E+03 -0.17212489856E+03  0.31034997708E+03  0.17062244980E+03 0.  0.
        -24    2    3    3    0    0  0.10487090239E+03  0.14729187298E+03 -0.12979488398E+03  0.23640059090E+03  0.79660061854E+02 0.  0.
          6    2    1    2  501    0 -0.15601285750E+03 -0.11505692283E+03 -0.78768002740E+02  0.27015041108E+03  0.17087638560E+03 0.  0.
         24    2    5    5    0    0 -0.14312404979E+03 -0.14940743011E+03 -0.65433108632E+02  0.23083135571E+03  0.78705458980E+02 0.  0.
          5    1    5    5  501    0 -0.12888807707E+02  0.34350507279E+02 -0.13334894109E+02  0.39319055372E+02  0.47000000000E+01 0. -1.
        -11    1    6    6    0    0 -0.29085998658E+02 -0.31929226656E+02  0.18334586548E+02  0.46921507826E+02  0.00000000000E+00 0.  1.
         12    1    6    6    0    0 -0.11403805113E+03 -0.11747820345E+03 -0.83767695180E+02  0.18390984788E+03  0.00000000000E+00 0. -1.
         -5    1    3    3    0  503  0.51141955103E+02 -0.32234950147E+02 -0.42330014579E+02  0.73949386184E+02  0.47000000000E+01 0.  1.
         11    1    4    4    0    0  0.36415809841E+02  0.80881084439E+01 -0.48736823192E+02  0.61374315796E+02  0.00000000000E+00 0. -1.
        -12    1    4    4    0    0  0.68455092553E+02  0.13920376453E+03 -0.81058060791E+02  0.17502627510E+03  0.00000000000E+00 0.  1.
</event>
<event>
12    1  0.8451514E-002  0.2114844E+03  0.7818608E-02  0.1140427E+00
         21   -1    0    0  503  502  0.00000000000E+00  0.00000000000E+00  0.71417192033E+03  0.71417192033E+03  0.00000000000E+00 0.  1.
         21   -1    0    0  501  503 -0.00000000000E+00 -0.00000000000E+00 -0.82214421060E+02  0.82214421060E+02  0.00000000000E+00 0.  1.
          6    2    1    2  501    0 -0.11021669472E+03 -0.52180160410E+02  0.12146876445E+03  0.24388582428E+03  0.17278641617E+03 0.  0.
         24    2    3    3    0    0 -0.82271144760E+02 -0.38501559960E+01  0.29771580265E+01  0.11281678186E+03  0.77041533197E+02 0.  0.
         -6    2    1    2    0  502  0.11021669472E+03  0.52180160410E+02  0.51048873482E+03  0.55250051711E+03  0.17259079956E+03 0.  0.
        -24    2    5    5    0    0  0.55385978004E+02  0.66098730846E+02  0.16442806849E+03  0.20181517542E+03  0.79095679666E+02 0.  0.
          5    1    3    3  501    0 -0.27945549956E+02 -0.48330004414E+02  0.11849160642E+03  0.13106904242E+03  0.47000000000E+01 0. -1.
        -13    1    4    4    0    0 -0.21032987843E+02  0.55516117220E+01 -0.34222593937E+02  0.40551114733E+02  0.00000000000E+00 0.  1.
         14    1    4    4    0    0 -0.61238156917E+02 -0.94017677180E+01  0.37199751963E+02  0.72265667124E+02  0.00000000000E+00 0. -1.
         -5    1    5    5    0  502  0.54830716712E+02 -0.13918570437E+02  0.34606066633E+03  0.35068534169E+03  0.47000000000E+01 0.  1.
         13    1    6    6    0    0  0.27315947072E+02 -0.10364261843E+02  0.18169025730E+02  0.34404830824E+02  0.00000000000E+00 0. -1.
        -14    1    6    6    0    0  0.28070030932E+02  0.76462992690E+02  0.14625904276E+03  0.16741034459E+03  0.00000000000E+00 0.  1.
</event>
<event>
12    1  0.8451514E-002  0.2112267E+03  0.7818608E-02  0.1140715E+00
         21   -1    0    0  503  502  0.00000000000E+00  0.00000000000E+00  0.10933398966E+03  0.10933398966E+03  0.00000000000E+00 0. -1.
         21   -1    0    0  501  503 -0.00000000000E+00 -0.00000000000E+00 -0.43030613850E+03  0.43030613850E+03  0.00000000000E+00 0. -1.
          6    2    1    2  501    0 -0.77842160431E+02  0.93732032858E+02 -0.22358828592E+03  0.30758482910E+03  0.17254451473E+03 0.  0.
         24    2    3    3    0    0 -0.11679021402E+03  0.78544016570E+02 -0.13767715497E+03  0.21192690136E+03  0.78414895836E+02 0.  0.
         -6    2    1    2    0  502  0.77842160431E+02 -0.93732032858E+02 -0.97383862912E+02  0.23205529907E+03  0.17181661487E+03 0.  0.
        -24    2    5    5    0    0  0.55055023307E+02 -0.11678989084E+03 -0.11916434532E+03  0.19271832096E+03  0.79178758788E+02 0.  0.
          5    1    3    3  501    0  0.38948053592E+02  0.15188016288E+02 -0.85911130951E+02  0.95657927736E+02  0.47000000000E+01 0. -1.
        -11    1    4    4    0    0 -0.13702262847E+02  0.54740351262E+01  0.98060931400E+01  0.17716560907E+02  0.00000000000E+00 0.  1.
         12    1    4    4    0    0 -0.10308795118E+03  0.73069981444E+02 -0.14748324811E+03  0.19421034045E+03  0.00000000000E+00 0. -1.
         -5    1    5    5    0  502  0.22787137124E+02  0.23057857981E+02  0.21780482407E+02  0.39336978110E+02  0.47000000000E+01 0.  1.
         11    1    6    6    0    0 -0.28541434221E+01 -0.20575744035E+02 -0.64617676732E+02  0.67874527796E+02  0.00000000000E+00 0. -1.
        -12    1    6    6    0    0  0.57909166729E+02 -0.96214146804E+02 -0.54546668586E+02  0.12484379316E+03  0.00000000000E+00 0.  1.
</event>
<event>
12    1  0.8451514E-002  0.1954359E+03  0.7818608E-02  0.1153711E+00
         21   -1    0    0  501  502  0.00000000000E+00  0.00000000000E+00  0.10596701611E+03  0.10596701611E+03  0.00000000000E+00 0.  1.
         21   -1    0    0  502  503 -0.00000000000E+00 -0.00000000000E+00 -0.36053404229E+03  0.36053404229E+03  0.00000000000E+00 0.  1.
         -6    2    1    2    0  503 -0.10993131396E+01  0.92644569832E+02 -0.13711291217E+03  0.23873655000E+03  0.17207836823E+03 0.  0.
        -24    2    3    3    0    0  0.18116874557E+02  0.36619961385E+02 -0.32583633661E+00  0.89603010056E+02  0.79745536089E+02 0.  0.
          6    2    1    2  501    0  0.10993131396E+01 -0.92644569832E+02 -0.11745411401E+03  0.22776450840E+03  0.17174684154E+03 0.  0.
         24    2    5    5    0    0  0.26022799469E+02 -0.92161338842E+02 -0.19113520636E+02  0.12620479203E+03  0.79946384478E+02 0.  0.
          5    1    5    5  501    0 -0.24923486330E+02 -0.48323099006E+00 -0.98340593377E+02  0.10155971637E+03  0.47000000000E+01 0. -1.
        -11    1    6    6    0    0  0.85777315073E+01 -0.92597293527E+01  0.26960704984E+02  0.29769106112E+02  0.00000000000E+00 0.  1.
         12    1    6    6    0    0  0.17445067962E+02 -0.82901609489E+02 -0.46074225620E+02  0.96435685919E+02  0.00000000000E+00 0. -1.
         -5    1    3    3    0  503 -0.19216187697E+02  0.56024608447E+02 -0.13678707583E+03  0.14913353994E+03  0.47000000000E+01 0.  1.
         13    1    4    4    0    0  0.24064916948E+02  0.30878950663E+02 -0.35878022039E+02  0.53102375533E+02  0.00000000000E+00 0. -1.
        -14    1    4    4    0    0 -0.59480423910E+01  0.57410107225E+01  0.35552185702E+02  0.36500634523E+02  0.00000000000E+00 0.  1.
</event>
<event>
12    1  0.8451514E-002  0.1946006E+03  0.7818608E-02  0.1154553E+00
         21   -1    0    0  501  502  0.00000000000E+00  0.00000000000E+00  0.13361635867E+03  0.13361635867E+03  0.00000000000E+00 0. -1.
         21   -1    0    0  502  503 -0.00000000000E+00 -0.00000000000E+00 -0.30378204934E+03  0.30378204934E+03  0.00000000000E+00 0. -1.
         -6    2    1    2    0  503  0.90047782363E+02  0.12646602689E+02 -0.14314862971E+03  0.24093136155E+03  0.17113693676E+03 0.  0.
        -24    2    3    3    0    0  0.81644291469E+02 -0.22982853790E+02 -0.27252221164E+02  0.11930017993E+03  0.79346376576E+02 0.  0.
          6    2    1    2  501    0 -0.90047782363E+02 -0.12646602689E+02 -0.27017060957E+02  0.19646704646E+03  0.17204894389E+03 0.  0.
         24    2    5    5    0    0 -0.34089661391E+02 -0.35819481435E+02 -0.73154658580E+02  0.12018427300E+03  0.81532295074E+02 0.  0.
          5    1    5    5  501    0 -0.55958120972E+02  0.23172878746E+02  0.46137597623E+02  0.76282773459E+02  0.47000000000E+01 0. -1.
        -11    1    6    6    0    0 -0.49544884969E+02 -0.11682496571E+02 -0.75903023280E+02  0.91391713496E+02  0.00000000000E+00 0.  1.
         12    1    6    6    0    0  0.15455223578E+02 -0.24136984864E+02  0.27483646996E+01  0.28792559502E+02  0.00000000000E+00 0. -1.
         -5    1    3    3    0  503  0.84034908948E+01  0.35629456479E+02 -0.11589640855E+03  0.12163118162E+03  0.47000000000E+01 0.  1.
         13    1    4    4    0    0  0.46719456720E+02  0.19883394119E+02 -0.37428667736E+02  0.63079015262E+02  0.00000000000E+00 0. -1.
        -14    1    4    4    0    0  0.34924834749E+02 -0.42866247910E+02  0.10176446572E+02  0.56221164670E+02  0.00000000000E+00 0.  1.
</event>
<event>
12    1  0.8451514E-002  0.1765274E+03  0.7818608E-02  0.1171355E+00
         21   -1    0    0  503  502  0.00000000000E+00  0.00000000000E+00  0.15593103388E+03  0.15593103388E+03  0.00000000000E+00 0.  1.
         21   -1    0    0  501  503 -0.00000000000E+00 -0.00000000000E+00 -0.26491058963E+03  0.26491058963E+03  0.00000000000E+00 0.  1.
          6    2    1    2  501    0 -0.10963917360E+01  0.34162842612E+02  0.50400915618E+02  0.18300963642E+03  0.17258033734E+03 0.  0.
         24    2    3    3    0    0  0.16298381921E+01 -0.43575400533E+02 -0.23119975304E+01  0.88927714725E+02  0.77468194826E+02 0.  0.
         -6    2    1    2    0  502  0.10963917360E+01 -0.34162842612E+02 -0.15938047136E+03  0.23783198709E+03  0.17318665521E+03 0.  0.
        -24    2    5    5    0    0 -0.40133794639E+02  0.11774406765E+02 -0.15039256827E+03  0.17527775821E+03  0.79718315373E+02 0.  0.
          5    1    3    3  501    0 -0.27262299281E+01  0.77738243145E+02  0.52712913148E+02  0.94081921693E+02  0.47000000000E+01 0. -1.
        -11    1    4    4    0    0  0.52154756731E+01 -0.29146960868E+02  0.36713627199E+02  0.47166057037E+02  0.00000000000E+00 0.  1.
         12    1    4    4    0    0 -0.35856374810E+01 -0.14428439665E+02 -0.39025624729E+02  0.41761657688E+02  0.00000000000E+00 0. -1.
         -5    1    5    5    0  502  0.41230186375E+02 -0.45937249377E+02 -0.89879030939E+01  0.62554228881E+02  0.47000000000E+01 0.  1.
         11    1    6    6    0    0  0.11208414266E+02  0.25458589854E+02 -0.19384952536E+02  0.33904936698E+02  0.00000000000E+00 0. -1.
        -12    1    6    6    0    0 -0.51342208905E+02 -0.13684183089E+02 -0.13100761574E+03  0.14137282151E+03  0.00000000000E+00 0.  1.
</event>
<event>
12    1  0.8451514E-002  0.1867528E+03  0.7818608E-02  0.1163786E+00
         21   -1    0    0  501  502  0.00000000000E+00  0.00000000000E+00  0.38545877673E+03  0.38545877673E+03  0.00000000000E+00 0. -1.
         21   -1    0    0  502  503 -0.00000000000E+00 -0.00000000000E+00 -0.12408892652E+03  0.12408892652E+03  0.00000000000E+00 0. -1.
         -6    2    1    2    0  503 -0.73079028966E+02  0.64713535899E+00 -0.13411797266E+02  0.17731047865E+03  0.16099119937E+03 0.  0.
        -24    2    3    3    0    0 -0.12921814159E+02  0.36137032245E+02 -0.48377705358E+02  0.99060060106E+02  0.77457309221E+02 0.  0.
          6    2    1    2  501    0  0.73079028966E+02 -0.64713535899E+00  0.27478164748E+03  0.33223722459E+03  0.17185940868E+03 0.  0.
         24    2    5    5    0    0  0.28288391149E+02 -0.58250731934E+02  0.22327944214E+03  0.24280041601E+03  0.70035361693E+02 0.  0.
          5    1    5    5  501    0  0.44790637816E+02  0.57603596575E+02  0.51502205341E+02  0.89436808582E+02  0.47000000000E+01 0. -1.
        -11    1    6    6    0    0  0.32715832232E+02 -0.19747354765E+02  0.39425715915E+02  0.54906017651E+02  0.00000000000E+00 0.  1.
         12    1    6    6    0    0 -0.44274410825E+01 -0.38503377169E+02  0.18385372622E+03  0.18789439836E+03  0.00000000000E+00 0. -1.
         -5    1    3    3    0  503 -0.60157214807E+02 -0.35489896886E+02  0.34965908092E+02  0.78250418548E+02  0.47000000000E+01 0.  1.
         11    1    4    4    0    0  0.12354080657E+02 -0.17301153808E+02 -0.30731396247E+02  0.37368060523E+02  0.00000000000E+00 0. -1.
        -12    1    4    4    0    0 -0.25275894816E+02  0.53438186053E+02 -0.17646309111E+02  0.61691999583E+02  0.00000000000E+00 0.  1.
</event>
<event>
12    1  0.8451514E-002  0.1976782E+03  0.7818608E-02  0.1151853E+00
         21   -1    0    0  503  502  0.00000000000E+00  0.00000000000E+00  0.13223620697E+03  0.13223620697E+03  0.00000000000E+00 0.  1.
         21   -1    0    0  501  503 -0.00000000000E+00 -0.00000000000E+00 -0.39235380115E+03  0.39235380115E+03  0.00000000000E+00 0.  1.
          6    2    1    2  501    0 -0.83891323387E+02  0.48249383816E+02 -0.26118883461E+03  0.32756112451E+03  0.17236857540E+03 0.  0.
         24    2    3    3    0    0 -0.35501909362E+02  0.55938419490E+02 -0.25812098801E+03  0.27824420711E+03  0.80024383752E+02 0.  0.
         -6    2    1    2    0  502  0.83891323387E+02 -0.48249383816E+02  0.10712404350E+01  0.19702888361E+03  0.17162015103E+03 0.  0.
        -24    2    5    5    0    0  0.39090624387E+02 -0.75343707805E+02 -0.46378229845E+02  0.12621400344E+03  0.81081953847E+02 0.  0.
          5    1    3    3  501    0 -0.48389414024E+02 -0.76890356740E+01 -0.30678466040E+01  0.49316917402E+02  0.47000000000E+01 0. -1.
        -13    1    4    4    0    0 -0.58721819822E+02  0.31542422375E+02 -0.13441258671E+03  0.15003306302E+03  0.00000000000E+00 0.  1.
         14    1    4    4    0    0  0.23219910459E+02  0.24395997116E+02 -0.12370840129E+03  0.12821114409E+03  0.00000000000E+00 0. -1.
         -5    1    5    5    0  502  0.44800698999E+02  0.27094323989E+02  0.47449470280E+02  0.70814880167E+02  0.47000000000E+01 0.  1.
         13    1    6    6    0    0  0.63752733825E+02 -0.44839404251E+02 -0.34429739876E+02  0.85207923527E+02  0.00000000000E+00 0. -1.
        -14    1    6    6    0    0 -0.24662109438E+02 -0.30504303554E+02 -0.11948489970E+02  0.41006079913E+02  0.00000000000E+00 0.  1.
</event>
<event>
12    1  0.8451514E-002  0.1825456E+03  0.7818608E-02  0.1167231E+00
         21   -1    0    0  503  502  0.00000000000E+00  0.00000000000E+00  0.39289930326E+03  0.39289930326E+03  0.00000000000E+00 0.  1.
         21   -1    0    0  501  503 -0.00000000000E+00 -0.00000000000E+00 -0.35352491780E+03  0.35352491780E+03  0.00000000000E+00 0.  1.
          6    2    1    2  501    0 -0.37543260518E+01  0.30244445722E+02 -0.30770934670E+03  0.35778195141E+03  0.17998350270E+03 0.  0.
         24    2    3    3    0    0 -0.24815508678E+02  0.83637921936E+02 -0.24905250604E+03  0.27558005561E+03  0.79410986845E+02 0.  0.
         -6    2    1    2    0  502  0.37543260518E+01 -0.30244445722E+02  0.34708373216E+03  0.38864226964E+03  0.17218267962E+03 0.  0.
        -24    2    5    5    0    0 -0.12753339018E+02 -0.49057145126E+02  0.35024177212E+03  0.36298132887E+03  0.80727288013E+02 0.  0.
          5    1    3    3  501    0  0.21061182627E+02 -0.53393476214E+02 -0.58656840666E+02  0.82201895798E+02  0.47000000000E+01 0. -1.
        -13    1    4    4    0    0 -0.70639976434E+01 -0.22970604677E+01 -0.11575187271E+03  0.11598996760E+03  0.00000000000E+00 0.  1.
         14    1    4    4    0    0 -0.17751511035E+02  0.85934982403E+02 -0.13330063333E+03  0.15959008801E+03  0.00000000000E+00 0. -1.
         -5    1    5    5    0  502  0.16507665070E+02  0.18812699404E+02 -0.31580399550E+01  0.25660940771E+02  0.47000000000E+01 0.  1.
         11    1    6    6    0    0  0.13580522958E+02 -0.61841080136E+01  0.77524411652E+01  0.16815889503E+02  0.00000000000E+00 0. -1.
        -12    1    6    6    0    0 -0.26333861976E+02 -0.42873037112E+02  0.34248933095E+03  0.34616543937E+03  0.00000000000E+00 0.  1.
</event>
<event>
12    1  0.8451514E-002  0.1892246E+03  0.7818608E-02  0.1159276E+00
         21   -1    0    0  501  502  0.00000000000E+00  0.00000000000E+00  0.30607704855E+03  0.30607704855E+03  0.00000000000E+00 0. -1.
         21   -1    0    0  502  503 -0.00000000000E+00 -0.00000000000E+00 -0.12234446273E+03  0.12234446273E+03  0.00000000000E+00 0. -1.
         -6    2    1    2    0  503 -0.42914014108E+02 -0.65798053434E+02  0.45638298320E+02  0.19416532105E+03  0.17159930414E+03 0.  0.
        -24    2    3    3    0    0 -0.68192854623E+02  0.12226142366E+02 -0.10348672425E+02  0.94749900711E+02  0.63802074300E+02 0.  0.
          6    2    1    2  501    0  0.42914014108E+02  0.65798053434E+02  0.13809428750E+03  0.23425619022E+03  0.17214800021E+03 0.  0.
         24    2    5    5    0    0 -0.32161627227E+02  0.25270313511E+02  0.11479162748E+03  0.14569009293E+03  0.79846893673E+02 0.  0.
          5    1    5    5  501    0  0.75075641335E+02  0.40527739923E+02  0.23302660026E+02  0.88566097291E+02  0.47000000000E+01 0. -1.
        -13    1    6    6    0    0  0.17513667506E+02 -0.92003647414E+01  0.63144407462E+02  0.66170926052E+02  0.00000000000E+00 0.  1.
         14    1    6    6    0    0 -0.49675294734E+02  0.34470678253E+02  0.51647220013E+02  0.79519166880E+02  0.00000000000E+00 0. -1.
         -5    1    3    3    0  503  0.25278840515E+02 -0.78024195800E+02  0.55986970744E+02  0.99415420339E+02  0.47000000000E+01 0.  1.
         13    1    4    4    0    0 -0.33090348321E+02 -0.92897607504E+01 -0.33094416560E+02  0.47712799271E+02  0.00000000000E+00 0. -1.
        -14    1    4    4    0    0 -0.35102506302E+02  0.21515903116E+02  0.22745744136E+02  0.47037101440E+02  0.00000000000E+00 0.  1.
</event>
<event>
12    1  0.8451514E-002  0.2365669E+03  0.7818608E-02  0.1122492E+00
         21   -1    0    0  503  502  0.00000000000E+00  0.00000000000E+00  0.30871446902E+03  0.30871446902E+03  0.00000000000E+00 0.  1.
         21   -1    0    0  501  503 -0.00000000000E+00 -0.00000000000E+00 -0.88920670321E+03  0.88920670321E+03  0.00000000000E+00 0.  1.
          6    2    1    2  501    0 -0.24386738201E+02  0.15886880428E+03 -0.82505037589E+03  0.85766747670E+03  0.17044461819E+03 0.  0.
         24    2    3    3    0    0  0.29314944544E+02  0.14648479658E+03 -0.70715007246E+03  0.72743765706E+03  0.82384211629E+02 0.  0.
         -6    2    1    2    0  502  0.24386738201E+02 -0.15886880428E+03  0.24455814170E+03  0.34025369553E+03  0.17357961481E+03 0.  0.
        -24    2    5    5    0    0  0.50018754752E+02 -0.38481810778E+02  0.58917697799E+02  0.11746569566E+03  0.79650291617E+02 0.  0.
          5    1    3    3  501    0 -0.53701682745E+02  0.12384007696E+02 -0.11790030343E+03  0.13022981965E+03  0.47000000000E+01 0. -1.
        -11    1    4    4    0    0  0.44966059485E+02  0.13308899272E+03 -0.50293245406E+03  0.52218356910E+03  0.00000000000E+00 0.  1.
         12    1    4    4    0    0 -0.15651114942E+02  0.13395803858E+02 -0.20421761840E+03  0.20525408796E+03  0.00000000000E+00 0. -1.
         -5    1    5    5    0  502 -0.25632016551E+02 -0.12038699350E+03  0.18564044390E+03  0.22278799987E+03  0.47000000000E+01 0.  1.
         11    1    6    6    0    0  0.48517306058E+02  0.12560468077E+02  0.23724989851E+02  0.55448800608E+02  0.00000000000E+00 0. -1.
        -12    1    6    6    0    0  0.15014486942E+01 -0.51042278855E+02  0.35192707947E+02  0.62016895049E+02  0.00000000000E+00 0.  1.
</event>
<event>
12    1  0.8451514E-002  0.2176551E+03  0.7818608E-02  0.1135668E+00
         21   -1    0    0  503  502  0.00000000000E+00  0.00000000000E+00  0.93264582152E+02  0.93264582152E+02  0.00000000000E+00 0. -1.
         21   -1    0    0  501  503 -0.00000000000E+00 -0.00000000000E+00 -0.87030882235E+03  0.87030882235E+03  0.00000000000E+00 0.  1.
          6    2    1    2  501    0 -0.12441139028E+03  0.48692479571E+02 -0.69946161969E+03  0.73250460654E+03  0.17166039026E+03 0.  0.
         24    2    3    3    0    0 -0.30990223169E+01  0.44053294498E+02 -0.37330643879E+03  0.38445647095E+03  0.80615036549E+02 0.  0.
         -6    2    1    2    0  502  0.12441139028E+03 -0.48692479571E+02 -0.77582620507E+02  0.23106879796E+03  0.17182716545E+03 0.  0.
        -24    2    5    5    0    0  0.14154056511E+03 -0.55692965839E+02 -0.22886166619E+02  0.17313601358E+03  0.79478705074E+02 0.  0.
          5    1    3    3  501    0 -0.12131236797E+03  0.46391850728E+01 -0.32615518091E+03  0.34804813560E+03  0.47000000000E+01 0. -1.
        -13    1    4    4    0    0 -0.23852550989E+02  0.17088547602E+02 -0.41029654423E+02  0.50441998274E+02  0.00000000000E+00 0.  1.
         14    1    4    4    0    0  0.20753528673E+02  0.26964746897E+02 -0.33227678436E+03  0.33401447267E+03  0.00000000000E+00 0. -1.
         -5    1    5    5    0  502 -0.17129174828E+02  0.70004862679E+01 -0.54696453888E+02  0.57932784381E+02  0.47000000000E+01 0.  1.
         11    1    6    6    0    0  0.12577409034E+03 -0.51681529556E+02 -0.47151714704E+02  0.14392145947E+03  0.00000000000E+00 0. -1.
        -12    1    6    6    0    0  0.15766474771E+02 -0.40114362831E+01  0.24265548084E+02  0.29214554106E+02  0.00000000000E+00 0.  1.
</event>
<event>
12    1  0.8451514E-002  0.1788089E+03  0.7818608E-02  0.1169426E+00
         21   -1    0    0  501  502  0.00000000000E+00  0.00000000000E+00  0.94103423006E+02  0.94103423006E+02  0.00000000000E+00 0.  1.
         21   -1    0    0  502  503 -0.00000000000E+00 -0.00000000000E+00 -0.43394060056E+03  0.43394060056E+03  0.00000000000E+00 0.  1.
         -6    2    1    2    0  503  0.47746950767E+02  0.10882008764E+02 -0.29594093807E+03  0.34576533392E+03  0.17197220094E+03 0.  0.
        -24    2    3    3    0    0  0.21172097131E+02  0.20283847237E+02 -0.57639966131E+02  0.10575687441E+03  0.83680694506E+02 0.  0.
          6    2    1    2  501    0 -0.47746950767E+02 -0.10882008764E+02 -0.43896239483E+02  0.18227868964E+03  0.17000132774E+03 0.  0.
         24    2    5    5    0    0 -0.97257896961E+02 -0.82729268343E+01 -0.40338567837E+02  0.13234985900E+03  0.79760549667E+02 0.  0.
          5    1    5    5  501    0  0.49510946194E+02 -0.26090819299E+01 -0.35576716464E+01  0.49928830640E+02  0.47000000000E+01 0. -1.
        -11    1    6    6    0    0 -0.31070777676E+02  0.75326511135E+01  0.23001037289E+02  0.39385045063E+02  0.00000000000E+00 0.  1.
         12    1    6    6    0    0 -0.66187119284E+02 -0.15805577948E+02 -0.63339605126E+02  0.92964813940E+02  0.00000000000E+00 0. -1.
         -5    1    3    3    0  503  0.26574853636E+02 -0.94018384728E+01 -0.23830097194E+03  0.24000845952E+03  0.47000000000E+01 0.  1.
         13    1    4    4    0    0 -0.16823590952E+02 -0.14427948532E+02  0.68978973706E+01  0.23211632849E+02  0.00000000000E+00 0. -1.
        -14    1    4    4    0    0  0.37995688083E+02  0.34711795769E+02 -0.64537863501E+02  0.82545241557E+02  0.00000000000E+00 0.  1.
</event>
<event>
12    1  0.8451514E-002  0.3515475E+03  0.7818608E-02  0.1062256E+00
         21   -1    0    0  501  502  0.00000000000E+00  0.00000000000E+00  0.69773321601E+03  0.69773321601E+03  0.00000000000E+00 0. -1.
         21   -1    0    0  502  503 -0.00000000000E+00 -0.00000000000E+00 -0.41583274329E+03  0.41583274329E+03  0.00000000000E+00 0.  1.
         -6    2    1    2    0  503 -0.27802771742E+03  0.13041766264E+03 -0.28231674330E+03  0.44879025471E+03  0.16553480235E+03 0.  0.
        -24    2    3    3    0    0 -0.14514490153E+03  0.10388472594E+03 -0.95303799338E+02  0.21779724464E+03  0.80583787953E+02 0.  0.
          6    2    1    2  501    0  0.27802771742E+03 -0.13041766264E+03  0.56421721602E+03  0.66477570460E+03  0.17110666905E+03 0.  0.
         24    2    5    5    0    0  0.11152238026E+03 -0.72829643394E+02  0.37770273234E+03  0.40816286415E+03  0.78715763307E+02 0.  0.
          5    1    5    5  501    0  0.16650533717E+03 -0.57588019250E+02  0.18651448367E+03  0.25661284045E+03  0.47000000000E+01 0. -1.
        -11    1    6    6    0    0 -0.77623236410E+01 -0.22907804589E+02  0.42776550281E+02  0.49141168416E+02  0.00000000000E+00 0.  1.
         12    1    6    6    0    0  0.11928470390E+03 -0.49921838806E+02  0.33492618206E+03  0.35902169573E+03  0.00000000000E+00 0. -1.
         -5    1    3    3    0  503 -0.13288281589E+03  0.26532936701E+02 -0.18701294396E+03  0.23099301006E+03  0.47000000000E+01 0.  1.
         13    1    4    4    0    0 -0.92274424970E+02  0.16633839243E+02 -0.43007747087E+02  0.10315483712E+03  0.00000000000E+00 0. -1.
        -14    1    4    4    0    0 -0.52870476562E+02  0.87250886700E+02 -0.52296052250E+02  0.11464240752E+03  0.00000000000E+00 0.  1.
</event>
<event>
12    1  0.8451514E-002  0.2917797E+03  0.7818608E-02  0.1089459E+00
         21   -1    0    0  501  502  0.00000000000E+00  0.00000000000E+00  0.59147816847E+03  0.59147816847E+03  0.00000000000E+00 0. -1.
         21   -1    0    0  502  503 -0.00000000000E+00 -0.00000000000E+00 -0.19246850939E+03  0.19246850939E+03  0.00000000000E+00 0.  1.
         -6    2    1    2    0  503  0.86185687536E+02 -0.21926568816E+03  0.23282794439E+01  0.29151238471E+03  0.17166430850E+03 0.  0.
        -24    2    3    3    0    0  0.24484426966E+02 -0.11860276604E+03  0.61430216418E+02  0.15939426180E+03  0.83467094903E+02 0.  0.
          6    2    1    2  501    0 -0.86185687536E+02  0.21926568816E+03  0.39668137964E+03  0.49243429315E+03  0.17213367299E+03 0.  0.
         24    2    5    5    0    0 -0.83668327946E+01  0.28219111854E+02  0.12778194645E+03  0.15348951352E+03  0.79777708390E+02 0.  0.
          5    1    5    5  501    0 -0.77818854741E+02  0.19104657631E+03  0.26889943318E+03  0.33894477963E+03  0.47000000000E+01 0. -1.
        -11    1    6    6    0    0 -0.79801607984E+01  0.34018851183E+01 -0.10144337354E+02  0.13347785175E+02  0.00000000000E+00 0.  1.
         12    1    6    6    0    0 -0.38667199623E+00  0.24817226735E+02  0.13792628381E+03  0.14014172834E+03  0.00000000000E+00 0. -1.
         -5    1    3    3    0  503  0.61701260570E+02 -0.10066292213E+03 -0.59101936974E+02  0.13211812291E+03  0.47000000000E+01 0.  1.
         11    1    4    4    0    0  0.31354753776E+01  0.11277463927E+02  0.16668982205E+02  0.20368293159E+02  0.00000000000E+00 0. -1.
        -12    1    4    4    0    0  0.21348951588E+02 -0.12988022996E+03  0.44761234213E+02  0.13902596864E+03  0.00000000000E+00 0.  1.
</event>
<event>
12    1  0.8451514E-002  0.1865274E+03  0.7818608E-02  0.1161986E+00
         21   -1    0    0  503  502  0.00000000000E+00  0.00000000000E+00  0.18406794494E+02  0.18406794494E+02  0.00000000000E+00 0.  1.
         21   -1    0    0  501  503 -0.00000000000E+00 -0.00000000000E+00 -0.21676040697E+04  0.21676040697E+04  0.00000000000E+00 0. -1.
          6    2    1    2  501    0  0.51248289673E+02 -0.49872362943E+02 -0.14801758901E+04  0.14918824151E+04  0.17227546299E+03 0.  0.
         24    2    3    3    0    0  0.26273266490E+02  0.38024079621E+02 -0.74192695916E+03  0.74798517058E+03  0.83006551106E+02 0.  0.
         -6    2    1    2    0  502 -0.51248289673E+02  0.49872362943E+02 -0.66902138514E+03  0.69412844911E+03  0.17061960702E+03 0.  0.
        -24    2    5    5    0    0 -0.14625758928E+02  0.26794720239E+02 -0.62997775459E+03  0.63564526829E+03  0.79000417548E+02 0.  0.
          5    1    3    3  501    0  0.24975023183E+02 -0.87896442564E+02 -0.73824893094E+03  0.74389724454E+03  0.47000000000E+01 0. -1.
        -13    1    4    4    0    0 -0.15199021568E+02 -0.18656369828E+02 -0.15215824660E+03  0.15404935054E+03  0.00000000000E+00 0.  1.
         14    1    4    4    0    0  0.41472288058E+02  0.56680449448E+02 -0.58976871255E+03  0.59393582005E+03  0.00000000000E+00 0. -1.
         -5    1    5    5    0  502 -0.36622530744E+02  0.23077642704E+02 -0.39043630558E+02  0.58483180813E+02  0.47000000000E+01 0.  1.
         11    1    6    6    0    0 -0.20891231774E+02  0.25289406023E+01 -0.57315569368E+03  0.57354188016E+03  0.00000000000E+00 0. -1.
        -12    1    6    6    0    0  0.62654728458E+01  0.24265779636E+02 -0.56822060908E+02  0.62103388130E+02  0.00000000000E+00 0.  1.
</event>
<event>
12    1  0.8451514E-002  0.1931013E+03  0.7818608E-02  0.1156465E+00
         21   -1    0    0  501  502  0.00000000000E+00  0.00000000000E+00  0.22461168148E+03  0.22461168148E+03  0.00000000000E+00 0. -1.
         21   -1    0    0  502  503 -0.00000000000E+00 -0.00000000000E+00 -0.18289169582E+03  0.18289169582E+03  0.00000000000E+00 0. -1.
         -6    2    1    2    0  503 -0.80976559352E+02  0.37205171946E+02 -0.46079451909E+02  0.19852313342E+03  0.17130875818E+03 0.  0.
        -24    2    3    3    0    0 -0.38419378089E+01  0.14744147158E+02 -0.77832889005E+02  0.11200944524E+03  0.79094923036E+02 0.  0.
          6    2    1    2  501    0  0.80976559352E+02 -0.37205171946E+02  0.87799437565E+02  0.20898024388E+03  0.16739944179E+03 0.  0.
         24    2    5    5    0    0 -0.19536163698E+02 -0.10038920831E+02  0.26681905169E+02  0.88157003316E+02  0.81100502752E+02 0.  0.
          5    1    5    5  501    0  0.10051272305E+03 -0.27166251115E+02  0.61117532396E+02  0.12082324057E+03  0.47000000000E+01 0. -1.
        -13    1    6    6    0    0 -0.36527629842E+01  0.31533495957E+02 -0.68007553800E+01  0.32464662610E+02  0.00000000000E+00 0.  1.
         14    1    6    6    0    0 -0.15883400714E+02 -0.41572416788E+02  0.33482660549E+02  0.55692340706E+02  0.00000000000E+00 0. -1.
         -5    1    3    3    0  503 -0.77134621543E+02  0.22461024788E+02  0.31753437096E+02  0.86513688180E+02  0.47000000000E+01 0.  1.
         13    1    4    4    0    0 -0.35015552888E+02  0.29736301806E+02 -0.45613700497E+02  0.64737518196E+02  0.00000000000E+00 0. -1.
        -14    1    4    4    0    0  0.31173615079E+02 -0.14992154649E+02 -0.32219188508E+02  0.47271927041E+02  0.00000000000E+00 0.  1.
</event>
<event>
12    1  0.8451514E-002  0.1951819E+03  0.7818608E-02  0.1154441E+00
         21   -1    0    0  503  502  0.00000000000E+00  0.00000000000E+00  0.10516262447E+03  0.10516262447E+03  0.00000000000E+00 0. -1.
         21   -1    0    0  501  503 -0.00000000000E+00 -0.00000000000E+00 -0.38945333334E+03  0.38945333334E+03  0.00000000000E+00 0.  1.
          6    2    1    2  501    0  0.61258582838E+02  0.66275293412E+02 -0.21217846828E+03  0.28653872094E+03  0.17011674730E+03 0.  0.
         24    2    3    3    0    0 -0.24757278852E+02  0.60166214248E+02 -0.86632783471E+02  0.13415808476E+03  0.79121781710E+02 0.  0.
         -6    2    1    2    0  502 -0.61258582838E+02 -0.66275293412E+02 -0.72112240588E+02  0.20807723686E+03  0.17306337789E+03 0.  0.
        -24    2    5    5    0    0  0.54722963842E+01  0.11013878430E+02  0.16120047327E+01  0.82045571497E+02  0.81102562828E+02 0.  0.
          5    1    3    3  501    0  0.86015861689E+02  0.61090791639E+01 -0.12554568481E+03  0.15238063619E+03  0.47000000000E+01 0. -1.
        -11    1    4    4    0    0 -0.37914960073E+02  0.73117574384E+00 -0.51228056730E+02  0.63736901491E+02  0.00000000000E+00 0.  1.
         12    1    4    4    0    0  0.13157681222E+02  0.59435038504E+02 -0.35404726741E+02  0.70421183267E+02  0.00000000000E+00 0. -1.
         -5    1    5    5    0  502 -0.66730879222E+02 -0.77289171842E+02 -0.73724245321E+02  0.12603166536E+03  0.47000000000E+01 0.  1.
         13    1    6    6    0    0 -0.84626592152E+01 -0.30635496876E+02  0.16321887144E+02  0.35728899644E+02  0.00000000000E+00 0. -1.
        -14    1    6    6    0    0  0.13934955599E+02  0.41649375307E+02 -0.14709882411E+02  0.46316671853E+02  0.00000000000E+00 0.  1.
</event>
<event>
12    1  0.8451514E-002  0.1828333E+03  0.7818608E-02  0.1165216E+00
         21   -1    0    0  501  502  0.00000000000E+00  0.00000000000E+00  0.52138102768E+03  0.52138102768E+03  0.00000000000E+00 0.  1.
         21   -1    0    0  502  503 -0.00000000000E+00 -0.00000000000E+00 -0.99786024360E+02  0.99786024360E+02  0.00000000000E+00 0.  1.
         -6    2    1    2    0  503 -0.53751589545E+02 -0.29202515775E+02  0.24414722977E+02  0.18392547661E+03  0.17172793000E+03 0.  0.
        -24    2    3    3    0    0 -0.12081247693E+02 -0.78818049421E+02  0.33680235703E+02  0.11830491356E+03  0.80643988208E+02 0.  0.
          6    2    1    2  501    0  0.53751589545E+02  0.29202515775E+02  0.39718028034E+03  0.43724157543E+03  0.17229625616E+03 0.  0.
         24    2    5    5    0    0  0.69503073647E+02  0.50805450851E+02  0.39275300454E+03  0.40973726984E+03  0.78853260153E+02 0.  0.
          5    1    5    5  501    0 -0.15751484102E+02 -0.21602935076E+02  0.44272758046E+01  0.27504305597E+02  0.47000000000E+01 0. -1.
        -13    1    6    6    0    0  0.19748029913E+02 -0.74818520489E+01  0.21671594782E+03  0.21774242774E+03  0.00000000000E+00 0.  1.
         14    1    6    6    0    0  0.49755043733E+02  0.58287302900E+02  0.17603705672E+03  0.19199484210E+03  0.00000000000E+00 0. -1.
         -5    1    3    3    0  503 -0.41670341852E+02  0.49615533646E+02 -0.92655127264E+01  0.65620563050E+02  0.47000000000E+01 0.  1.
         11    1    4    4    0    0  0.29181330760E+02 -0.23629967425E+02 -0.71282599675E+01  0.38219595964E+02  0.00000000000E+00 0. -1.
        -12    1    4    4    0    0 -0.41262578453E+02 -0.55188081995E+02  0.40808495670E+02  0.80085317592E+02  0.00000000000E+00 0.  1.
</event>
<event>
12    1  0.8451514E-002  0.1841079E+03  0.7818608E-02  0.1164006E+00
         21   -1    0    0  503  502  0.00000000000E+00  0.00000000000E+00  0.52630734057E+03  0.52630734057E+03  0.00000000000E+00 0.  1.
         21   -1    0    0  501  503 -0.00000000000E+00 -0.00000000000E+00 -0.77025942193E+02  0.77025942193E+02  0.00000000000E+00 0.  1.
          6    2    1    2  501    0 -0.47888497523E+02  0.46772913739E+02  0.10139771549E+03  0.20973604557E+03  0.17095817749E+03 0.  0.
         24    2    3    3    0    0 -0.21481624472E+02  0.82537595634E+02  0.10025459692E+03  0.16501656284E+03  0.99526714629E+02 0.  0.
         -6    2    1    2    0  502  0.47888497523E+02 -0.46772913739E+02  0.34788368288E+03  0.39359723719E+03  0.17150718542E+03 0.  0.
        -24    2    5    5    0    0 -0.37365848040E+02 -0.53162911253E+02  0.19658845550E+03  0.21975399937E+03  0.73636252425E+02 0.  0.
          5    1    3    3  501    0 -0.26406873051E+02 -0.35764681895E+02  0.11431185664E+01  0.44719482728E+02  0.47000000000E+01 0. -1.
        -13    1    4    4    0    0 -0.33762228872E+02 -0.10814708107E+02  0.16939260324E+02  0.39291023786E+02  0.00000000000E+00 0.  1.
         14    1    4    4    0    0  0.12280604399E+02  0.93352303741E+02  0.83315336599E+02  0.12572553906E+03  0.00000000000E+00 0. -1.
         -5    1    5    5    0  502  0.85254345563E+02  0.63899975139E+01  0.15129522739E+03  0.17384323782E+03  0.47000000000E+01 0.  1.
         11    1    6    6    0    0 -0.20057661251E+02 -0.31269031293E+01  0.14295836824E+03  0.14439245945E+03  0.00000000000E+00 0. -1.
        -12    1    6    6    0    0 -0.17308186789E+02 -0.50036008124E+02  0.53630087260E+02  0.75361539916E+02  0.00000000000E+00 0.  1.
</event>
<event>
12    1  0.8451514E-002  0.2042157E+03  0.7818608E-02  0.1146794E+00
         21   -1    0    0  503  502  0.00000000000E+00  0.00000000000E+00  0.21887730701E+04  0.21887730701E+04  0.00000000000E+00 0.  1.
         21   -1    0    0  501  503 -0.00000000000E+00 -0.00000000000E+00 -0.27905537623E+02  0.27905537623E+02  0.00000000000E+00 0. -1.
          6    2    1    2  501    0 -0.97160973475E+02  0.41145799004E+02  0.44244507088E+03  0.48616429378E+03  0.17165327918E+03 0.  0.
         24    2    3    3    0    0 -0.11530528067E+03  0.16159173200E+02  0.42980794811E+03  0.45246957275E+03  0.80233505362E+02 0.  0.
         -6    2    1    2    0  502  0.97160973475E+02 -0.41145799004E+02  0.17184224616E+04  0.17305143139E+04  0.17484508205E+03 0.  0.
        -24    2    5    5    0    0  0.41610951668E+02  0.19762968242E+02  0.47033233030E+03  0.47969588241E+03  0.82301837511E+02 0.  0.
          5    1    3    3  501    0  0.18144307198E+02  0.24986625804E+02  0.12637122774E+02  0.33694721022E+02  0.47000000000E+01 0. -1.
        -13    1    4    4    0    0 -0.83980972550E+02  0.41684692255E+02  0.35799760197E+03  0.37007120982E+03  0.00000000000E+00 0.  1.
         14    1    4    4    0    0 -0.31324308122E+02 -0.25525519055E+02  0.71810346132E+02  0.82398362933E+02  0.00000000000E+00 0. -1.
         -5    1    5    5    0  502  0.55550021806E+02 -0.60908767246E+02  0.12480901313E+04  0.12508184315E+04  0.47000000000E+01 0.  1.
         13    1    6    6    0    0  0.39660948451E+01 -0.30914584273E+02  0.16003281347E+03  0.16303969705E+03  0.00000000000E+00 0. -1.
        -14    1    6    6    0    0  0.37644856823E+02  0.50677552515E+02  0.31029951684E+03  0.31665618536E+03  0.00000000000E+00 0.  1.
</event>
<event>
12    1  0.8451514E-002  0.1783898E+03  0.7818608E-02  0.1169437E+00
         21   -1    0    0  503  502  0.00000000000E+00  0.00000000000E+00  0.11196996193E+04  0.11196996193E+04  0.00000000000E+00 0. -1.
         21   -1    0    0  501  503 -0.00000000000E+00 -0.00000000000E+00 -0.28417423036E+02  0.28417423036E+02  0.00000000000E+00 0. -1.
          6    2    1    2  501    0 -0.43116344177E+02 -0.14505675926E+02  0.52455257502E+03  0.55405623140E+03  0.17249194132E+03 0.  0.
         24    2    3    3    0    0  0.35145780324E+01  0.27192271209E+02  0.44379008583E+03  0.45179269263E+03  0.80095099477E+02 0.  0.
         -6    2    1    2    0  502  0.43116344177E+02  0.14505675926E+02  0.56672962125E+03  0.59406081095E+03  0.17221019055E+03 0.  0.
        -24    2    5    5    0    0  0.72752552514E+02 -0.39879664804E+02  0.40689944798E+03  0.42258531876E+03  0.78280708392E+02 0.  0.
          5    1    3    3  501    0 -0.46630922209E+02 -0.41697947136E+02  0.80762489196E+02  0.10226353877E+03  0.47000000000E+01 0. -1.
        -13    1    4    4    0    0  0.38646524869E+02  0.20723839705E+02  0.16518309238E+03  0.17090490170E+03  0.00000000000E+00 0.  1.
         14    1    4    4    0    0 -0.35131946836E+02  0.64684315046E+01  0.27860699345E+03  0.28088779093E+03  0.00000000000E+00 0. -1.
         -5    1    5    5    0  502 -0.29636208337E+02  0.54385340730E+02  0.15983017328E+03  0.17147549219E+03  0.47000000000E+01 0.  1.
         11    1    6    6    0    0  0.52640684627E+02 -0.16714456123E+02  0.37217448584E+03  0.37625026595E+03  0.00000000000E+00 0. -1.
        -12    1    6    6    0    0  0.20111867887E+02 -0.23165208680E+02  0.34724962140E+02  0.46335052808E+02  0.00000000000E+00 0.  1.
</event>
<event>
12    1  0.8451514E-002  0.1921937E+03  0.7818608E-02  0.1157002E+00
         21   -1    0    0  501  502  0.00000000000E+00  0.00000000000E+00  0.44913491371E+02  0.44913491371E+02  0.00000000000E+00 0.  1.
         21   -1    0    0  502  503 -0.00000000000E+00 -0.00000000000E+00 -0.88324068053E+03  0.88324068053E+03  0.00000000000E+00 0.  1.
         -6    2    1    2    0  503 -0.51960055736E+02  0.67616778771E+02 -0.54793948278E+03  0.57992515054E+03  0.16971631410E+03 0.  0.
        -24    2    3    3    0    0 -0.35452668272E+02  0.19253900813E+02 -0.13385839725E+03  0.16267618744E+03  0.83173716181E+02 0.  0.
          6    2    1    2  501    0  0.51960055736E+02 -0.67616778771E+02 -0.29038770638E+03  0.34822902137E+03  0.17223981869E+03 0.  0.
         24    2    5    5    0    0  0.82672860350E+02 -0.83309071893E+02 -0.15865060399E+03  0.21197088922E+03  0.77372090778E+02 0.  0.
          5    1    5    5  501    0 -0.30712804614E+02  0.15692293122E+02 -0.13173710239E+03  0.13625813215E+03  0.47000000000E+01 0. -1.
        -13    1    6    6    0    0  0.32636781292E+01 -0.30858310327E+02 -0.88385332596E+02  0.93674190305E+02  0.00000000000E+00 0.  1.
         14    1    6    6    0    0  0.79409182221E+02 -0.52450761566E+02 -0.70265271399E+02  0.11829669892E+03  0.00000000000E+00 0. -1.
         -5    1    3    3    0  503 -0.16507387464E+02  0.48362877958E+02 -0.41408108553E+03  0.41724896309E+03  0.47000000000E+01 0.  1.
         11    1    4    4    0    0 -0.53685635421E+02  0.18339000727E+02 -0.13277610378E+03  0.14438822713E+03  0.00000000000E+00 0. -1.
        -12    1    4    4    0    0  0.18232967149E+02  0.91490008534E+00 -0.10822934639E+01  0.18287960312E+02  0.00000000000E+00 0.  1.
</event>
<event>
12    1  0.8451514E-002  0.2055038E+03  0.7818608E-02  0.1148146E+00
         21   -1    0    0  501  502  0.00000000000E+00  0.00000000000E+00  0.56415492965E+03  0.56415492965E+03  0.00000000000E+00 0.  1.
         21   -1    0    0  502  503 -0.00000000000E+00 -0.00000000000E+00 -0.14249644469E+03  0.14249644469E+03  0.00000000000E+00 0. -1.
         -6    2    1    2    0  503  0.81838533548E+02 -0.78946713908E+02 -0.45059223490E+02  0.19669331057E+03  0.15403829261E+03 0.  0.
        -24    2    3    3    0    0  0.47171140277E+02 -0.10932367258E+03 -0.45395500716E+02  0.15035983610E+03  0.79815706260E+02 0.  0.
          6    2    1    2  501    0 -0.81838533548E+02  0.78946713908E+02  0.46671770845E+03  0.50995806377E+03  0.17117732973E+03 0.  0.
         24    2    5    5    0    0  0.24153989661E+02  0.46188168962E+02  0.21260024661E+03  0.23263999430E+03  0.78776518836E+02 0.  0.
          5    1    5    5  501    0 -0.10599252321E+03  0.32758544946E+02  0.25411746184E+03  0.27731806947E+03  0.47000000000E+01 0. -1.
        -13    1    6    6    0    0  0.14612220544E+01  0.41096889377E+02  0.20358525025E+03  0.20769699951E+03  0.00000000000E+00 0.  1.
         14    1    6    6    0    0  0.22692767606E+02  0.50912795852E+01  0.90149963551E+01  0.24942994783E+02  0.00000000000E+00 0. -1.
         -5    1    3    3    0  503  0.34667393270E+02  0.30376958667E+02  0.33627722626E+00  0.46333474469E+02  0.47000000000E+01 0.  1.
         13    1    4    4    0    0  0.34432838369E+02 -0.63376198616E+02 -0.66604545738E+02  0.98174988781E+02  0.00000000000E+00 0. -1.
        -14    1    4    4    0    0  0.12738301908E+02 -0.45947473959E+02  0.21209045022E+02  0.52184847317E+02  0.00000000000E+00 0.  1.
</event>
<event>
12    1  0.8451514E-002  0.2822903E+03  0.7818608E-02  0.1094825E+00
         21   -1    0    0  503  502  0.00000000000E+00  0.00000000000E+00  0.75564065117E+03  0.75564065117E+03  0.00000000000E+00 0. -1.
         21   -1    0    0  501  503 -0.00000000000E+00 -0.00000000000E+00 -0.19467057337E+03  0.19467057337E+03  0.00000000000E+00 0.  1.
          6    2    1    2  501    0  0.11357144577E+03 -0.19441682333E+03 -0.43799083204E+02  0.28290313746E+03  0.16558819706E+03 0.  0.
         24    2    3    3    0    0  0.11625360175E+03 -0.20221656463E+03 -0.10486765090E+02  0.24826456844E+03  0.84373483813E+02 0.  0.
         -6    2    1    2    0  502 -0.11357144577E+03  0.19441682333E+03  0.60476916101E+03  0.66740808709E+03  0.17026873500E+03 0.  0.
        -24    2    5    5    0    0 -0.69668471146E+01  0.10362075812E+03  0.19754494040E+03  0.23675495316E+03  0.79013327334E+02 0.  0.
          5    1    3    3  501    0 -0.26821559852E+01  0.77997413023E+01 -0.33312318114E+02  0.34638569012E+02  0.47000000000E+01 0. -1.
        -11    1    4    4    0    0  0.31157686457E+02 -0.73770990991E+01 -0.15544121944E+02  0.35592734419E+02  0.00000000000E+00 0.  1.
         12    1    4    4    0    0  0.85095915298E+02 -0.19483946553E+03  0.50573568536E+01  0.21267183403E+03  0.00000000000E+00 0. -1.
         -5    1    5    5    0  502 -0.10660459865E+03  0.90796065205E+02  0.40722422061E+03  0.43065313393E+03  0.47000000000E+01 0.  1.
         11    1    6    6    0    0  0.31114563575E+00  0.44651590528E+02  0.16082175449E+03  0.16690565618E+03  0.00000000000E+00 0. -1.
        -12    1    6    6    0    0 -0.72779927504E+01  0.58969167596E+02  0.36723185912E+02  0.69849296983E+02  0.00000000000E+00 0.  1.
</event>
<event>
12    1  0.8451514E-002  0.2464063E+03  0.7818608E-02  0.1115817E+00
         21   -1    0    0  503  502  0.00000000000E+00  0.00000000000E+00  0.61847481151E+02  0.61847481151E+02  0.00000000000E+00 0. -1.
         21   -1    0    0  501  503 -0.00000000000E+00 -0.00000000000E+00 -0.10099778972E+04  0.10099778972E+04  0.00000000000E+00 0.  1.
          6    2    1    2  501    0  0.63507646620E+02  0.16349888581E+03 -0.57067306247E+03  0.62105921000E+03  0.17111893892E+03 0.  0.
         24    2    3    3    0    0  0.71576032202E+01  0.17018768392E+03 -0.44345302889E+03  0.48167809809E+03  0.79675104735E+02 0.  0.
         -6    2    1    2    0  502 -0.63507646620E+02 -0.16349888581E+03 -0.37745735358E+03  0.45076616835E+03  0.17306350834E+03 0.  0.
        -24    2    5    5    0    0 -0.55100506469E+02 -0.15878969909E+02 -0.17265692583E+03  0.19812487168E+03  0.78452809020E+02 0.  0.
          5    1    3    3  501    0  0.56350043400E+02 -0.66887981060E+01 -0.12722003359E+03  0.13938111191E+03  0.47000000000E+01 0. -1.
        -11    1    4    4    0    0 -0.91402250182E+01  0.79137206012E+02 -0.30454003810E+03  0.31478703260E+03  0.00000000000E+00 0.  1.
         12    1    4    4    0    0  0.16297828238E+02  0.91050477905E+02 -0.13891299079E+03  0.16689106550E+03  0.00000000000E+00 0. -1.
         -5    1    5    5    0  502 -0.84071401510E+01 -0.14761991590E+03 -0.20480042775E+03  0.25264129667E+03  0.47000000000E+01 0.  1.
         13    1    6    6    0    0  0.82518147602E+01 -0.49698813329E+01  0.37752031960E+01  0.10346222812E+02  0.00000000000E+00 0. -1.
        -14    1    6    6    0    0 -0.63352321230E+02 -0.10909088576E+02 -0.17643212902E+03  0.18777864887E+03  0.00000000000E+00 0.  1.
</event>
<event>
12    1  0.8451514E-002  0.3070148E+03  0.7818608E-02  0.1081894E+00
         21   -1    0    0  501  502  0.00000000000E+00  0.00000000000E+00  0.62382971954E+03  0.62382971954E+03  0.00000000000E+00 0. -1.
         21   -1    0    0  502  503 -0.00000000000E+00 -0.00000000000E+00 -0.20323617597E+03  0.20323617597E+03  0.00000000000E+00 0.  1.
         -6    2    1    2    0  503  0.25044330026E+03 -0.40174000539E+02 -0.26878174494E+00  0.30612141321E+03  0.17138976172E+03 0.  0.
        -24    2    3    3    0    0  0.78701013470E+02 -0.68493685415E+02  0.37613326668E+00  0.13199524190E+03  0.80853991519E+02 0.  0.
          6    2    1    2  501    0 -0.25044330026E+03  0.40174000539E+02  0.42086232531E+03  0.52094448230E+03  0.17298051859E+03 0.  0.
         24    2    5    5    0    0 -0.18899523305E+03 -0.25333015665E+02  0.35449198276E+03  0.40916726411E+03  0.73432447758E+02 0.  0.
          5    1    5    5  501    0 -0.61448067208E+02  0.65507016204E+02  0.66370342559E+02  0.11177721819E+03  0.47000000000E+01 0. -1.
        -11    1    6    6    0    0 -0.61967021735E+02 -0.21130667837E+02  0.61628921806E+02  0.89914075144E+02  0.00000000000E+00 0.  1.
         12    1    6    6    0    0 -0.12702821131E+03 -0.42023478280E+01  0.29286306095E+03  0.31925318897E+03  0.00000000000E+00 0. -1.
         -5    1    3    3    0  503  0.17174228679E+03  0.28319684876E+02 -0.64491501163E+00  0.17412617132E+03  0.47000000000E+01 0.  1.
         11    1    4    4    0    0 -0.60932965983E+01 -0.14609716260E+02  0.24035969072E+02  0.28780199476E+02  0.00000000000E+00 0. -1.
        -12    1    4    4    0    0  0.84794310069E+02 -0.53883969155E+02 -0.23659835805E+02  0.10321504242E+03  0.00000000000E+00 0.  1.
</event>
<event>
12    1  0.8451514E-002  0.2005774E+03  0.7818608E-02  0.1149644E+00
         21   -1    0    0  503  502  0.00000000000E+00  0.00000000000E+00  0.73762823406E+02  0.73762823406E+02  0.00000000000E+00 0.  1.
         21   -1    0    0  501  503 -0.00000000000E+00 -0.00000000000E+00 -0.55577757000E+03  0.55577757000E+03  0.00000000000E+00 0. -1.
          6    2    1    2  501    0 -0.49305894127E+02 -0.85701110959E+02 -0.29446251564E+03  0.35628562637E+03  0.17451510774E+03 0.  0.
         24    2    3    3    0    0 -0.51339094571E+02 -0.70545309543E+02 -0.89993190414E+02  0.15119143538E+03  0.84544263446E+02 0.  0.
         -6    2    1    2    0  502  0.49305894127E+02  0.85701110959E+02 -0.18755223096E+03  0.27325476703E+03  0.17238496673E+03 0.  0.
        -24    2    5    5    0    0  0.83532495206E+01  0.12000250611E+03 -0.14441695304E+03  0.20443291723E+03  0.80412580315E+02 0.  0.
          5    1    3    3  501    0  0.20332004442E+01 -0.15155801415E+02 -0.20446932523E+03  0.20509419099E+03  0.47000000000E+01 0. -1.
        -13    1    4    4    0    0 -0.60480472647E+02 -0.15049608729E+02 -0.30733539333E+02  0.69490493842E+02  0.00000000000E+00 0.  1.
         14    1    4    4    0    0  0.91413780762E+01 -0.55495700814E+02 -0.59259651081E+02  0.81700941538E+02  0.00000000000E+00 0. -1.
         -5    1    5    5    0  502  0.40952644606E+02 -0.34301395149E+02 -0.43135277922E+02  0.68821849807E+02  0.47000000000E+01 0.  1.
         11    1    6    6    0    0  0.22647866884E+02  0.54498579930E+02 -0.11881578896E+03  0.13266579361E+03  0.00000000000E+00 0. -1.
        -12    1    6    6    0    0 -0.14294617363E+02  0.65503926178E+02 -0.25601164078E+02  0.71767123618E+02  0.00000000000E+00 0.  1.
</event>
<event>
12    1  0.8451514E-002  0.1981803E+03  0.7818608E-02  0.1151330E+00
         21   -1    0    0  501  502  0.00000000000E+00  0.00000000000E+00  0.68655328087E+03  0.68655328087E+03  0.00000000000E+00 0.  1.
         21   -1    0    0  502  503 -0.00000000000E+00 -0.00000000000E+00 -0.11642226587E+03  0.11642226587E+03  0.00000000000E+00 0. -1.
         -6    2    1    2    0  503 -0.92301846862E+02 -0.33432927492E+02 -0.14951779060E+01  0.19796979919E+03  0.17190815646E+03 0.  0.
        -24    2    3    3    0    0 -0.10276945054E+03  0.27979050779E+02 -0.16302077453E+02  0.13376437826E+03  0.79263887840E+02 0.  0.
          6    2    1    2  501    0  0.92301846862E+02  0.33432927492E+02  0.57162619290E+03  0.60500574755E+03  0.17215707534E+03 0.  0.
         24    2    5    5    0    0  0.10227977748E+03  0.70812892286E+02  0.52347740823E+03  0.54306047871E+03  0.73555883596E+02 0.  0.
          5    1    5    5  501    0 -0.99779306141E+01 -0.37379964794E+02  0.48148784666E+02  0.61945268844E+02  0.47000000000E+01 0. -1.
        -13    1    6    6    0    0  0.66439428821E+02  0.10973821213E+02  0.17166886591E+03  0.18440396410E+03  0.00000000000E+00 0.  1.
         14    1    6    6    0    0  0.35840348656E+02  0.59839071072E+02  0.35180854232E+03  0.35865651460E+03  0.00000000000E+00 0. -1.
         -5    1    3    3    0  503  0.10467603681E+02 -0.61411978271E+02  0.14806899547E+02  0.64205420925E+02  0.47000000000E+01 0.  1.
         13    1    4    4    0    0 -0.59239672773E+02  0.38098798676E+02 -0.42204239914E+02  0.82110018619E+02  0.00000000000E+00 0. -1.
        -14    1    4    4    0    0 -0.43529777770E+02 -0.10119747896E+02  0.25902162461E+02  0.51654359645E+02  0.00000000000E+00 0.  1.
</event>
<event>
12    1  0.8451514E-002  0.1839348E+03  0.7818608E-02  0.1166642E+00
         21   -1    0    0  501  502  0.00000000000E+00  0.00000000000E+00  0.39419611866E+02  0.39419611866E+02  0.00000000000E+00 0.  1.
         21   -1    0    0  502  503 -0.00000000000E+00 -0.00000000000E+00 -0.28587144642E+04  0.28587144642E+04  0.00000000000E+00 0.  1.
         -6    2    1    2    0  503  0.27820598277E+02  0.81363835660E+01 -0.26483935281E+04  0.26547731144E+04  0.18163651357E+03 0.  0.
        -24    2    3    3    0    0 -0.28971617483E+02 -0.53387773271E+02 -0.15788474220E+04  0.15819443579E+04  0.78097124135E+02 0.  0.
          6    2    1    2  501    0 -0.27820598277E+02 -0.81363835660E+01 -0.17090132432E+03  0.24336096170E+03  0.17081308089E+03 0.  0.
         24    2    5    5    0    0 -0.24124391292E+01  0.59734353887E+02 -0.10326347184E+03  0.14411893108E+03  0.80826411427E+02 0.  0.
          5    1    5    5  501    0 -0.25408159148E+02 -0.67870737453E+02 -0.67637852479E+02  0.99242030621E+02  0.47000000000E+01 0. -1.
        -11    1    6    6    0    0  0.37212584186E+02  0.13417542698E+02 -0.39187532953E+02  0.55681860716E+02  0.00000000000E+00 0.  1.
         12    1    6    6    0    0 -0.39625023315E+02  0.46316811189E+02 -0.64075938883E+02  0.88437070368E+02  0.00000000000E+00 0. -1.
         -5    1    3    3    0  503  0.56792215760E+02  0.61524156837E+02 -0.10695461061E+04  0.10728287565E+04  0.47000000000E+01 0.  1.
         11    1    4    4    0    0  0.20479789060E+02  0.48128656629E+01 -0.23993564465E+03  0.24085617910E+03  0.00000000000E+00 0. -1.
        -12    1    4    4    0    0 -0.49451406543E+02 -0.58200638934E+02 -0.13389117773E+04  0.13410881788E+04  0.00000000000E+00 0.  1.
</event>
<event>
12    1  0.8451514E-002  0.2968212E+03  0.7818608E-02  0.1087036E+00
         21   -1    0    0  501  502  0.00000000000E+00  0.00000000000E+00  0.25794102706E+03  0.25794102706E+03  0.00000000000E+00 0.  1.
         21   -1    0    0  502  503 -0.00000000000E+00 -0.00000000000E+00 -0.47097438558E+03  0.47097438558E+03  0.00000000000E+00 0. -1.
         -6    2    1    2    0  503 -0.41622591072E+02  0.23856948450E+03 -0.29866114283E+03  0.41998997813E+03  0.16895343876E+03 0.  0.
        -24    2    3    3    0    0 -0.90015215030E+02  0.14550912088E+03 -0.21138644047E+03  0.28345778046E+03  0.79927735411E+02 0.  0.
          6    2    1    2  501    0  0.41622591072E+02 -0.23856948450E+03  0.85627784314E+02  0.30892543451E+03  0.17162449598E+03 0.  0.
         24    2    5    5    0    0 -0.43948714579E+02 -0.10001297798E+03  0.39925332052E+02  0.13971799380E+03  0.77414471354E+02 0.  0.
          5    1    5    5  501    0  0.85571305650E+02 -0.13855650651E+03  0.45702452262E+02  0.16920744071E+03  0.47000000000E+01 0. -1.
        -13    1    6    6    0    0 -0.37923450358E+02 -0.11280551807E+03  0.40077860439E+02  0.12557670123E+03  0.00000000000E+00 0.  1.
         14    1    6    6    0    0 -0.60252642202E+01  0.12792540087E+02 -0.15252838686E+00  0.14141292575E+02  0.00000000000E+00 0. -1.
         -5    1    3    3    0  503  0.48392623958E+02  0.93060363613E+02 -0.87274702361E+02  0.13653219767E+03  0.47000000000E+01 0.  1.
         11    1    4    4    0    0 -0.64313399043E+02  0.11849582719E+03 -0.10549053870E+03  0.17118915887E+03  0.00000000000E+00 0. -1.
        -12    1    4    4    0    0 -0.25701815987E+02  0.27013293691E+02 -0.10589590177E+03  0.11226862159E+03  0.00000000000E+00 0.  1.
</event>
<event>
12    1  0.8451514E-002  0.1939310E+03  0.7818608E-02  0.1155234E+00
         21   -1    0    0  501  502  0.00000000000E+00  0.00000000000E+00  0.20955059142E+03  0.20955059142E+03  0.00000000000E+00 0. -1.
         21   -1    0    0  502  503 -0.00000000000E+00 -0.00000000000E+00 -0.25130581233E+03  0.25130581233E+03  0.00000000000E+00 0. -1.
         -6    2    1    2    0  503  0.29779144487E+02  0.82870073131E+02 -0.14508888243E+03  0.24219826136E+03  0.17278590086E+03 0.  0.
        -24    2    3    3    0    0 -0.96751953012E+01 -0.21265432053E+02 -0.67295759360E+02  0.10627656197E+03  0.78867993459E+02 0.  0.
          6    2    1    2  501    0 -0.29779144487E+02 -0.82870073131E+02  0.10333366151E+03  0.21865814239E+03  0.17140388316E+03 0.  0.
         24    2    5    5    0    0  0.17832665336E+02  0.10993284807E+02  0.18681854165E+02  0.83509213845E+02  0.78650625287E+02 0.  0.
          5    1    5    5  501    0 -0.47611809823E+02 -0.93863357938E+02  0.84651807350E+02  0.13514892854E+03  0.47000000000E+01 0. -1.
        -13    1    6    6    0    0 -0.10050349185E+02 -0.24578385177E+02 -0.11733580736E+02  0.29030732914E+02  0.00000000000E+00 0.  1.
         14    1    6    6    0    0  0.27883014521E+02  0.35571669984E+02  0.30415434901E+02  0.54478480930E+02  0.00000000000E+00 0. -1.
         -5    1    3    3    0  503  0.39454339788E+02  0.10413550518E+03 -0.77793123066E+02  0.13592169939E+03  0.47000000000E+01 0.  1.
         13    1    4    4    0    0  0.42126393905E+01  0.21844731992E+02 -0.55024384713E+02  0.59351676973E+02  0.00000000000E+00 0. -1.
        -14    1    4    4    0    0 -0.13887834692E+02 -0.43110164046E+02 -0.12271374647E+02  0.46924884999E+02  0.00000000000E+00 0.  1.
</event>
<event>
12    1  0.8451514E-002  0.1810401E+03  0.7818608E-02  0.1170503E+00
         21   -1    0    0  503  502  0.00000000000E+00  0.00000000000E+00  0.40903510621E+02  0.40903510621E+02  0.00000000000E+00 0. -1.
         21   -1    0    0  501  503 -0.00000000000E+00 -0.00000000000E+00 -0.12459732177E+04  0.12459732177E+04  0.00000000000E+00 0. -1.
          6    2    1    2  501    0  0.56009377546E+02 -0.32736745881E+02 -0.10285307998E+04  0.10443424368E+04  0.16901708318E+03 0.  0.
         24    2    3    3    0    0  0.64117881777E+01  0.21665453098E+02 -0.27722817070E+03  0.28942704385E+03  0.80012825204E+02 0.  0.
         -6    2    1    2    0  502 -0.56009377546E+02  0.32736745881E+02 -0.17653890729E+03  0.24253429146E+03  0.15312789375E+03 0.  0.
        -24    2    5    5    0    0 -0.17257872505E+02 -0.30071186729E+02 -0.12646329223E+03  0.15322486998E+03  0.79264027550E+02 0.  0.
          5    1    3    3  501    0  0.49597589368E+02 -0.54402198979E+02 -0.75130262907E+03  0.75491539299E+03  0.47000000000E+01 0. -1.
        -11    1    4    4    0    0  0.40198841901E+02 -0.41521002310E+01 -0.12489985264E+03  0.13127513099E+03  0.00000000000E+00 0.  1.
         12    1    4    4    0    0 -0.33787053723E+02  0.25817553329E+02 -0.15232831806E+03  0.15815191286E+03  0.00000000000E+00 0. -1.
         -5    1    5    5    0  502 -0.38751505041E+02  0.62807932610E+02 -0.50075615051E+02  0.89309421476E+02  0.47000000000E+01 0.  1.
         11    1    6    6    0    0 -0.44653934572E+02 -0.13235769189E+02 -0.41503208308E+02  0.62383297112E+02  0.00000000000E+00 0. -1.
        -12    1    6    6    0    0  0.27396062067E+02 -0.16835417540E+02 -0.84960083927E+02  0.90841572870E+02  0.00000000000E+00 0.  1.
</event>
<event>
12    1  0.8451514E-002  0.2454099E+03  0.7818608E-02  0.1117844E+00
         21   -1    0    0  501  502  0.00000000000E+00  0.00000000000E+00  0.46356860856E+03  0.46356860856E+03  0.00000000000E+00 0.  1.
         21   -1    0    0  502  503 -0.00000000000E+00 -0.00000000000E+00 -0.13723943600E+03  0.13723943600E+03  0.00000000000E+00 0. -1.
         -6    2    1    2    0  503 -0.17576771858E+03 -0.46318026625E+01  0.75858439748E+02  0.25686669314E+03  0.17120236761E+03 0.  0.
        -24    2    3    3    0    0 -0.16951515760E+03 -0.12355464183E+02  0.82875075530E+01  0.18840743267E+03  0.80874172351E+02 0.  0.
          6    2    1    2  501    0  0.17576771858E+03  0.46318026625E+01  0.25047073281E+03  0.34394135142E+03  0.15698509716E+03 0.  0.
         24    2    5    5    0    0  0.14765811102E+03  0.45876065491E+02  0.14366062810E+03  0.22595098011E+03  0.80671793156E+02 0.  0.
          5    1    5    5  501    0  0.28109607561E+02 -0.41244262828E+02  0.10681010471E+03  0.11799037131E+03  0.47000000000E+01 0. -1.
        -13    1    6    6    0    0  0.56686211036E+01  0.17387505274E+02  0.50613471187E+02  0.53816187811E+02  0.00000000000E+00 0.  1.
         14    1    6    6    0    0  0.14198948991E+03  0.28488560217E+02  0.93047156910E+02  0.17213479229E+03  0.00000000000E+00 0. -1.
         -5    1    3    3    0  503 -0.62525609767E+01  0.77236615209E+01  0.67570932195E+02  0.68459260468E+02  0.47000000000E+01 0.  1.
         13    1    4    4    0    0 -0.11676352391E+03 -0.45772297803E+02  0.38481959314E-03  0.12541460745E+03  0.00000000000E+00 0. -1.
        -14    1    4    4    0    0 -0.52751633689E+02  0.33416833620E+02  0.82871227335E+01  0.62992825220E+02  0.00000000000E+00 0.  1.
</event>
<event>
12    1  0.8451514E-002  0.1890797E+03  0.7818608E-02  0.1160448E+00
         21   -1    0    0  503  502  0.00000000000E+00  0.00000000000E+00  0.29924518116E+03  0.29924518116E+03  0.00000000000E+00 0.  1.
         21   -1    0    0  501  503 -0.00000000000E+00 -0.00000000000E+00 -0.17835790124E+03  0.17835790124E+03  0.00000000000E+00 0. -1.
          6    2    1    2  501    0  0.71182307622E+02  0.32643107789E+02 -0.79850331946E+02  0.20524914184E+03  0.17210067202E+03 0.  0.
         24    2    3    3    0    0 -0.29908267361E+02  0.50735433167E+01 -0.28040058204E+02  0.88262904610E+02  0.77999039531E+02 0.  0.
         -6    2    1    2    0  502 -0.71182307622E+02 -0.32643107789E+02  0.20073761187E+03  0.27235394056E+03  0.16657907046E+03 0.  0.
        -24    2    5    5    0    0 -0.67663746099E+02 -0.55270631015E+02  0.21464397108E+03  0.24515353783E+03  0.79968728899E+02 0.  0.
          5    1    3    3  501    0  0.10109057498E+03  0.27569564472E+02 -0.51810273742E+02  0.11698623723E+03  0.47000000000E+01 0. -1.
        -11    1    4    4    0    0  0.24338574588E+02  0.11348018379E+02  0.48101207027E-01  0.26854162579E+02  0.00000000000E+00 0.  1.
         12    1    4    4    0    0 -0.54246841948E+02 -0.62744750625E+01 -0.28088159411E+02  0.61408742031E+02  0.00000000000E+00 0. -1.
         -5    1    5    5    0  502 -0.35185615233E+01  0.22627523226E+02 -0.13906359205E+02  0.27200402733E+02  0.47000000000E+01 0.  1.
         11    1    6    6    0    0 -0.44698524215E+02 -0.39716616975E+02  0.49294890390E+02  0.77494218813E+02  0.00000000000E+00 0. -1.
        -12    1    6    6    0    0 -0.22965221883E+02 -0.15554014040E+02  0.16534908069E+03  0.16765931902E+03  0.00000000000E+00 0.  1.
</event>
<event>
12    1  0.8451514E-002  0.2099230E+03  0.7818608E-02  0.1141918E+00
         21   -1    0    0  501  502  0.00000000000E+00  0.00000000000E+00  0.16349896924E+03  0.16349896924E+03  0.00000000000E+00 0. -1.
         21   -1    0    0  502  503 -0.00000000000E+00 -0.00000000000E+00 -0.30773409587E+03  0.30773409587E+03  0.00000000000E+00 0. -1.
         -6    2    1    2    0  503  0.23266847755E+02  0.11758093276E+03 -0.15736948559E+03  0.26236013173E+03  0.17233995988E+03 0.  0.
        -24    2    3    3    0    0 -0.40247131592E+02  0.10878555645E+03 -0.77112049797E+02  0.15952662446E+03  0.77771118002E+02 0.  0.
          6    2    1    2  501    0 -0.23266847755E+02 -0.11758093276E+03  0.13134358963E+02  0.20887293337E+03  0.17055429914E+03 0.  0.
         24    2    5    5    0    0 -0.57297919391E+02 -0.13672992406E+03  0.83552675156E+01  0.16925314766E+03  0.81232344533E+02 0.  0.
          5    1    5    5  501    0  0.34031071635E+02  0.19148991297E+02  0.47790914475E+01  0.39619785706E+02  0.47000000000E+01 0. -1.
        -11    1    6    6    0    0 -0.67716709393E+02 -0.57863123554E+02  0.10389213756E+02  0.89675133459E+02  0.00000000000E+00 0.  1.
         12    1    6    6    0    0  0.10418790002E+02 -0.78866800507E+02 -0.20339462401E+01  0.79578014204E+02  0.00000000000E+00 0. -1.
         -5    1    3    3    0  503  0.63513979348E+02  0.87953763197E+01 -0.80257435797E+02  0.10283350727E+03  0.47000000000E+01 0.  1.
         13    1    4    4    0    0  0.68689234436E+01  0.85804415575E+02 -0.37855710223E+02  0.94035284005E+02  0.00000000000E+00 0. -1.
        -14    1    4    4    0    0 -0.47116055036E+02  0.22981140870E+02 -0.39256339575E+02  0.65491340455E+02  0.00000000000E+00 0.  1.
</event>
<event>
12    1  0.8451514E-002  0.2491371E+03  0.7818608E-02  0.1114368E+00
         21   -1    0    0  503  502  0.00000000000E+00  0.00000000000E+00  0.50948761623E+03  0.50948761623E+03  0.00000000000E+00 0. -1.
         21   -1    0    0  501  503 -0.00000000000E+00 -0.00000000000E+00 -0.15060791704E+03  0.15060791704E+03  0.00000000000E+00 0.  1.
          6    2    1    2  501    0  0.57632187025E+02  0.16671845779E+03  0.32203359524E+02  0.25120977582E+03  0.17593402727E+03 0.  0.
         24    2    3    3    0    0  0.46455798041E+02  0.11252527133E+03  0.89182814334E+02  0.17164495068E+03  0.81782252725E+02 0.  0.
         -6    2    1    2    0  502 -0.57632187025E+02 -0.16671845779E+03  0.32667633966E+03  0.40888575745E+03  0.17132897771E+03 0.  0.
        -24    2    5    5    0    0  0.27146495572E+02 -0.55619099494E+02  0.17621839570E+03  0.20348328585E+03  0.80759570263E+02 0.  0.
          5    1    3    3  501    0  0.11176388983E+02  0.54193186464E+02 -0.56979454810E+02  0.79564825145E+02  0.47000000000E+01 0. -1.
        -11    1    4    4    0    0  0.44292359261E+02  0.61976321024E+02  0.88255187344E+01  0.76686160665E+02  0.00000000000E+00 0.  1.
         12    1    4    4    0    0  0.21634387802E+01  0.50548950305E+02  0.80357295600E+02  0.94958790011E+02  0.00000000000E+00 0. -1.
         -5    1    5    5    0  502 -0.84778682597E+02 -0.11109935830E+03  0.15045794397E+03  0.20540247160E+03  0.47000000000E+01 0.  1.
         11    1    6    6    0    0 -0.16698418364E+02 -0.41897331157E+02  0.13287980476E+03  0.14032557160E+03  0.00000000000E+00 0. -1.
        -12    1    6    6    0    0  0.43844913936E+02 -0.13721768337E+02  0.43338590939E+02  0.63157714247E+02  0.00000000000E+00 0.  1.
</event>
<event>
12    1  0.8451514E-002  0.1819604E+03  0.7818608E-02  0.1166118E+00
         21   -1    0    0  503  502  0.00000000000E+00  0.00000000000E+00  0.17212568844E+04  0.17212568844E+04  0.00000000000E+00 0. -1.
         21   -1    0    0  501  503 -0.00000000000E+00 -0.00000000000E+00 -0.19405989956E+02  0.19405989956E+02  0.00000000000E+00 0. -1.
          6    2    1    2  501    0 -0.58903297416E+02 -0.27923702112E+01  0.75249180426E+03  0.77417923597E+03  0.17213999577E+03 0.  0.
         24    2    3    3    0    0 -0.35289227662E+02  0.55484820544E+02  0.60057475928E+03  0.60969600336E+03  0.81946812818E+02 0.  0.
         -6    2    1    2    0  502  0.58903297416E+02  0.27923702112E+01  0.94935909023E+03  0.96648363843E+03  0.17126162846E+03 0.  0.
        -24    2    5    5    0    0 -0.83403480742E+01 -0.21011656494E+02  0.24360888968E+03  0.25712211204E+03  0.79091328584E+02 0.  0.
          5    1    3    3  501    0 -0.23614069754E+02 -0.58277190755E+02  0.15191704498E+03  0.16448323261E+03  0.47000000000E+01 0. -1.
        -13    1    4    4    0    0 -0.30994590644E+02 -0.37295362483E+01  0.37970172777E+03  0.38098290797E+03  0.00000000000E+00 0.  1.
         14    1    4    4    0    0 -0.42946370172E+01  0.59214356792E+02  0.22087303150E+03  0.22871309539E+03  0.00000000000E+00 0. -1.
         -5    1    5    5    0  502  0.67243645490E+02  0.23804026705E+02  0.70575020055E+03  0.70936152639E+03  0.47000000000E+01 0.  1.
         13    1    6    6    0    0 -0.29844782780E+02  0.16682225727E+02  0.66508514186E+02  0.74782285159E+02  0.00000000000E+00 0. -1.
        -14    1    6    6    0    0  0.21504434706E+02 -0.37693882221E+02  0.17710037549E+03  0.18233982689E+03  0.00000000000E+00 0.  1.
</event>
<event>
12    1  0.8451514E-002  0.2186993E+03  0.7818608E-02  0.1135519E+00
         21   -1    0    0  501  502  0.00000000000E+00  0.00000000000E+00  0.24303667792E+03  0.24303667792E+03  0.00000000000E+00 0.  1.
         21   -1    0    0  502  503 -0.00000000000E+00 -0.00000000000E+00 -0.86302652942E+03  0.86302652942E+03  0.00000000000E+00 0.  1.
         -6    2    1    2    0  503 -0.13515944702E+03 -0.10021204154E+02 -0.79647445592E+03  0.82503613946E+03  0.16716629995E+03 0.  0.
        -24    2    3    3    0    0 -0.18540193587E+02  0.15999509165E+02 -0.47100026599E+03  0.47829031598E+03  0.79502532841E+02 0.  0.
          6    2    1    2  501    0  0.13515944702E+03  0.10021204154E+02  0.17648460442E+03  0.28102706788E+03  0.17164176833E+03 0.  0.
         24    2    5    5    0    0  0.12608557239E+03  0.44802109719E+02  0.74709962704E+02  0.17298904546E+03  0.80242325012E+02 0.  0.
          5    1    5    5  501    0  0.90738746289E+01 -0.34780905565E+02  0.10177464171E+03  0.10803802242E+03  0.47000000000E+01 0. -1.
        -13    1    6    6    0    0  0.11982012218E+03  0.20981079214E+02  0.82701461893E+02  0.14709384475E+03  0.00000000000E+00 0.  1.
         14    1    6    6    0    0  0.62654502066E+01  0.23821030506E+02 -0.79914991885E+01  0.25895200712E+02  0.00000000000E+00 0. -1.
         -5    1    3    3    0  503 -0.11661925343E+03 -0.26020713319E+02 -0.32547418993E+03  0.34674582348E+03  0.47000000000E+01 0.  1.
         11    1    4    4    0    0 -0.63667490797E+01 -0.24329162098E+02 -0.58921544979E+02  0.64063968695E+02  0.00000000000E+00 0. -1.
        -12    1    4    4    0    0 -0.12173444508E+02  0.40328671263E+02 -0.41207872101E+03  0.41422634729E+03  0.00000000000E+00 0.  1.
</event>
<event>
12    1  0.8451514E-002  0.1908405E+03  0.7818608E-02  0.1158656E+00
         21   -1    0    0  503  502  0.00000000000E+00  0.00000000000E+00  0.24030318621E+03  0.24030318621E+03  0.00000000000E+00 0. -1.
         21   -1    0    0  501  503 -0.00000000000E+00 -0.00000000000E+00 -0.19353507562E+03  0.19353507562E+03  0.00000000000E+00 0. -1.
          6    2    1    2  501    0 -0.78676289671E+02  0.95132975503E+00 -0.81738361939E+02  0.20376432804E+03  0.16925684029E+03 0.  0.
         24    2    3    3    0    0 -0.98185065630E+02 -0.44057802703E+02 -0.78430508713E+02  0.15437357752E+03  0.78092635035E+02 0.  0.
         -6    2    1    2    0  502  0.78676289671E+02 -0.95132975503E+00  0.12850647252E+03  0.23007393379E+03  0.17386557435E+03 0.  0.
        -24    2    5    5    0    0  0.93911857384E+02 -0.46388858853E+02  0.12652210440E+03  0.18187933564E+03  0.78108172724E+02 0.  0.
          5    1    3    3  501    0  0.19508775959E+02  0.45009132458E+02 -0.33078532259E+01  0.49390750521E+02  0.47000000000E+01 0. -1.
        -11    1    4    4    0    0 -0.77264580009E+02 -0.33350808033E+02 -0.13385320891E+02  0.85213018582E+02  0.00000000000E+00 0.  1.
         12    1    4    4    0    0 -0.20920485621E+02 -0.10706994670E+02 -0.65045187822E+02  0.69160558936E+02  0.00000000000E+00 0. -1.
         -5    1    5    5    0  502 -0.15235567713E+02  0.45437529098E+02  0.19843681178E+01  0.48194598151E+02  0.47000000000E+01 0.  1.
         11    1    6    6    0    0  0.11412138177E+02 -0.25493583991E+02  0.80328757781E+02  0.85046275927E+02  0.00000000000E+00 0. -1.
        -12    1    6    6    0    0  0.82499719206E+02 -0.20895274863E+02  0.46193346624E+02  0.96833059711E+02  0.00000000000E+00 0.  1.
</event>
<event>
12    1  0.8451514E-002  0.3269586E+03  0.7818608E-02  0.1072614E+00
         21   -1    0    0  501  502  0.00000000000E+00  0.00000000000E+00  0.13189086100E+03  0.13189086100E+03  0.00000000000E+00 0. -1.
         21   -1    0    0  502  503 -0.00000000000E+00 -0.00000000000E+00 -0.80787835280E+03  0.80787835280E+03  0.00000000000E+00 0.  1.
         -6    2    1    2    0  503  0.35939722020E+02  0.27587004773E+03 -0.33288115093E+03  0.46582416550E+03  0.16966539323E+03 0.  0.
        -24    2    3    3    0    0 -0.26047749868E+02  0.23583378109E+03 -0.27557815856E+03  0.37227699957E+03  0.79691814870E+02 0.  0.
          6    2    1    2  501    0 -0.35939722020E+02 -0.27587004773E+03 -0.34310634087E+03  0.47394504830E+03  0.17177310853E+03 0.  0.
         24    2    5    5    0    0 -0.71684397154E+01 -0.27234507113E+03 -0.25842486870E+03  0.38431662717E+03  0.81808513392E+02 0.  0.
          5    1    5    5  501    0 -0.28771282305E+02 -0.35249766029E+01 -0.84681472174E+02  0.89628421135E+02  0.47000000000E+01 0. -1.
        -11    1    6    6    0    0  0.30447713627E+02 -0.81197842420E+02 -0.55192333952E+02  0.10279273615E+03  0.00000000000E+00 0.  1.
         12    1    6    6    0    0 -0.37616153342E+02 -0.19114722871E+03 -0.20323253474E+03  0.28152389102E+03  0.00000000000E+00 0. -1.
         -5    1    3    3    0  503  0.61987471889E+02  0.40036266638E+02 -0.57302992378E+02  0.93547165927E+02  0.47000000000E+01 0.  1.
         11    1    4    4    0    0  0.27550043770E+02  0.73651113002E+02 -0.72979141089E+02  0.10728208794E+03  0.00000000000E+00 0. -1.
        -12    1    4    4    0    0 -0.53597793638E+02  0.16218266809E+03 -0.20259901747E+03  0.26499491163E+03  0.00000000000E+00 0.  1.
</event>
<event>
12    1  0.8451514E-002  0.2194386E+03  0.7818608E-02  0.1135075E+00
         21   -1    0    0  503  502  0.00000000000E+00  0.00000000000E+00  0.16526622494E+03  0.16526622494E+03  0.00000000000E+00 0.  1.
         21   -1    0    0  501  503 -0.00000000000E+00 -0.00000000000E+00 -0.29008944283E+03  0.29008944283E+03  0.00000000000E+00 0.  1.
          6    2    1    2  501    0 -0.66775515107E+02  0.12022994888E+03 -0.35844019236E+02  0.22234679455E+03  0.17099442477E+03 0.  0.
         24    2    3    3    0    0 -0.64500501165E+02  0.15191980917E+03 -0.14020767174E+02  0.18351681562E+03  0.79005674695E+02 0.  0.
         -6    2    1    2    0  502  0.66775515107E+02 -0.12022994888E+03 -0.88979198653E+02  0.23300887322E+03  0.16571550073E+03 0.  0.
        -24    2    5    5    0    0  0.86449296678E+02 -0.28448799311E+02 -0.54304969364E+02  0.13283288171E+03  0.80079521027E+02 0.  0.
          5    1    3    3  501    0 -0.22750139418E+01 -0.31689860283E+02 -0.21823252062E+02  0.38829978930E+02  0.47000000000E+01 0. -1.
        -11    1    4    4    0    0 -0.74484755272E+01  0.76464135201E+02  0.25570136685E+02  0.80969597071E+02  0.00000000000E+00 0.  1.
         12    1    4    4    0    0 -0.57052025638E+02  0.75455673964E+02 -0.39590903860E+02  0.10254721854E+03  0.00000000000E+00 0. -1.
         -5    1    5    5    0  502 -0.19673781572E+02 -0.91781149571E+02 -0.34674229289E+02  0.10017599151E+03  0.47000000000E+01 0.  1.
         11    1    6    6    0    0  0.19423872390E+01 -0.23056333699E+02  0.11265591553E+02  0.25734819697E+02  0.00000000000E+00 0. -1.
        -12    1    6    6    0    0  0.84506909439E+02 -0.53924656129E+01 -0.65570560917E+02  0.10709806201E+03  0.00000000000E+00 0.  1.
</event>
<event>
12    1  0.8451514E-002  0.2173692E+03  0.7818608E-02  0.1135982E+00
         21   -1    0    0  501  502  0.00000000000E+00  0.00000000000E+00  0.71770052112E+03  0.71770052112E+03  0.00000000000E+00 0. -1.
         21   -1    0    0  502  503 -0.00000000000E+00 -0.00000000000E+00 -0.14337483781E+03  0.14337483781E+03  0.00000000000E+00 0. -1.
         -6    2    1    2    0  503  0.88269845149E+02 -0.10281559790E+03 -0.30051462615E+02  0.21879731505E+03  0.16913474490E+03 0.  0.
        -24    2    3    3    0    0  0.92680094828E+02 -0.10484754903E+03  0.23119287285E+02  0.16519882839E+03  0.84696770543E+02 0.  0.
          6    2    1    2  501    0 -0.88269845149E+02  0.10281559790E+03  0.60437714592E+03  0.64227804388E+03  0.16996099083E+03 0.  0.
         24    2    5    5    0    0 -0.51279509383E+02  0.11698569540E+02  0.44405197226E+03  0.45413754025E+03  0.79324061806E+02 0.  0.
          5    1    5    5  501    0 -0.36990335766E+02  0.91117028364E+02  0.16032517366E+03  0.18814050364E+03  0.47000000000E+01 0. -1.
        -11    1    6    6    0    0 -0.48253361390E+01 -0.46430948766E+01 -0.64025620792E+00  0.67269701128E+01  0.00000000000E+00 0.  1.
         12    1    6    6    0    0 -0.46454173244E+02  0.16341664416E+02  0.44469222847E+03  0.44741057013E+03  0.00000000000E+00 0. -1.
         -5    1    3    3    0  503 -0.44102496791E+01  0.20319511285E+01 -0.53170749900E+02  0.53598486663E+02  0.47000000000E+01 0.  1.
         13    1    4    4    0    0  0.63422064531E+02 -0.21027535641E+02  0.35331347738E+02  0.75583196926E+02  0.00000000000E+00 0. -1.
        -14    1    4    4    0    0  0.29258030297E+02 -0.83820013391E+02 -0.12212060453E+02  0.89615631461E+02  0.00000000000E+00 0.  1.
</event>
<event>
12    1  0.8451514E-002  0.3280038E+03  0.7818608E-02  0.1072041E+00
         21   -1    0    0  503  502  0.00000000000E+00  0.00000000000E+00  0.12168121169E+04  0.12168121169E+04  0.00000000000E+00 0. -1.
         21   -1    0    0  501  503 -0.00000000000E+00 -0.00000000000E+00 -0.91459942477E+02  0.91459942477E+02  0.00000000000E+00 0. -1.
          6    2    1    2  501    0 -0.25237882374E+03  0.11988134258E+03  0.44267712893E+03  0.55095330387E+03  0.17181354893E+03 0.  0.
         24    2    3    3    0    0 -0.13208311589E+03  0.22171786896E+02  0.30880856986E+03  0.34610922730E+03  0.80568770417E+02 0.  0.
         -6    2    1    2    0  502  0.25237882374E+03 -0.11988134258E+03  0.68267504546E+03  0.75731875548E+03  0.17152222225E+03 0.  0.
        -24    2    5    5    0    0  0.14063601802E+03 -0.61341357558E+02  0.53943628918E+03  0.56639255042E+03  0.79169181962E+02 0.  0.
          5    1    3    3  501    0 -0.12029570785E+03  0.97709555681E+02  0.13386855908E+03  0.20484407658E+03  0.47000000000E+01 0. -1.
        -13    1    4    4    0    0 -0.20031261197E+02  0.20166181444E+02  0.16070907236E+02  0.32652723601E+02  0.00000000000E+00 0.  1.
         14    1    4    4    0    0 -0.11205185469E+03  0.20056054517E+01  0.29273766262E+03  0.31345650370E+03  0.00000000000E+00 0. -1.
         -5    1    5    5    0  502  0.11174280572E+03 -0.58539985019E+02  0.14323875628E+03  0.19092620506E+03  0.47000000000E+01 0.  1.
         11    1    6    6    0    0  0.69683934963E+02 -0.62347272594E+02  0.21782031492E+03  0.23704160559E+03  0.00000000000E+00 0. -1.
        -12    1    6    6    0    0  0.70952083058E+02  0.10059150363E+01  0.32161597427E+03  0.32935094483E+03  0.00000000000E+00 0.  1.
</event>
<event>
12    1  0.8451514E-002  0.2555903E+03  0.7818608E-02  0.1109852E+00
         21   -1    0    0  501  502  0.00000000000E+00  0.00000000000E+00  0.18724432132E+03  0.18724432132E+03  0.00000000000E+00 0.  1.
         21   -1    0    0  502  503 -0.00000000000E+00 -0.00000000000E+00 -0.74624821793E+03  0.74624821793E+03  0.00000000000E+00 0. -1.
         -6    2    1    2    0  503 -0.14045313777E+03 -0.12628690218E+03 -0.62025533041E+03  0.67085251075E+03  0.17219451414E+03 0.  0.
        -24    2    3    3    0    0 -0.88259704882E+02 -0.49375152131E+02 -0.18575509817E+03  0.22649666962E+03  0.81043838112E+02 0.  0.
          6    2    1    2  501    0  0.14045313777E+03  0.12628690218E+03  0.61251433797E+02  0.26264002850E+03  0.17190864103E+03 0.  0.
         24    2    5    5    0    0  0.37875541278E+02  0.12606256436E+03  0.47723812657E+02  0.15906734792E+03  0.75488622464E+02 0.  0.
          5    1    5    5  501    0  0.10257759649E+03  0.22433782198E+00  0.13527621141E+02  0.10357268058E+03  0.47000000000E+01 0. -1.
        -13    1    6    6    0    0  0.42907908928E+02  0.58757122810E+02  0.54967901398E+02  0.91186393248E+02  0.00000000000E+00 0.  1.
         14    1    6    6    0    0 -0.50323676494E+01  0.67305441548E+02 -0.72440887408E+01  0.67880954677E+02  0.00000000000E+00 0. -1.
         -5    1    3    3    0  503 -0.52193432883E+02 -0.76911750050E+02 -0.43450023224E+03  0.44435584113E+03  0.47000000000E+01 0.  1.
         13    1    4    4    0    0 -0.14052917411E+02 -0.28459087388E+02 -0.12317065395E+03  0.12719439507E+03  0.00000000000E+00 0. -1.
        -14    1    4    4    0    0 -0.74206787471E+02 -0.20916064743E+02 -0.62584444221E+02  0.99302274544E+02  0.00000000000E+00 0.  1.
</event>
<event>
12    1  0.8451514E-002  0.1774900E+03  0.7818608E-02  0.1170560E+00
         21   -1    0    0  501  502  0.00000000000E+00  0.00000000000E+00  0.10260037226E+03  0.10260037226E+03  0.00000000000E+00 0. -1.
         21   -1    0    0  502  503 -0.00000000000E+00 -0.00000000000E+00 -0.98690159719E+03  0.98690159719E+03  0.00000000000E+00 0. -1.
         -6    2    1    2    0  503  0.40434748938E+02 -0.17835681333E+02 -0.89451851348E+03  0.91171814192E+03  0.17062684105E+03 0.  0.
        -24    2    3    3    0    0  0.74337032089E+02 -0.44388138725E+02 -0.44621298655E+03  0.46132461036E+03  0.78854711671E+02 0.  0.
          6    2    1    2  501    0 -0.40434748938E+02  0.17835681333E+02  0.10217288548E+02  0.17778382753E+03  0.17190001715E+03 0.  0.
         24    2    5    5    0    0  0.30064816049E+02 -0.16646019063E+02 -0.19406347984E+02  0.93767006795E+02  0.85056816932E+02 0.  0.
          5    1    5    5  501    0 -0.70499564987E+02  0.34481700396E+02  0.29623636532E+02  0.84016820737E+02  0.47000000000E+01 0. -1.
        -11    1    6    6    0    0  0.49738539622E+02  0.19605886030E+01  0.13087701511E+02  0.51468963097E+02  0.00000000000E+00 0.  1.
         12    1    6    6    0    0 -0.19673723574E+02 -0.18606607666E+02 -0.32494049495E+02  0.42298043698E+02  0.00000000000E+00 0. -1.
         -5    1    3    3    0  503 -0.33902283151E+02  0.26552457392E+02 -0.44830552693E+03  0.45039353156E+03  0.47000000000E+01 0.  1.
         13    1    4    4    0    0  0.28363872437E+01 -0.32781109357E+02 -0.25021967814E+03  0.25237379728E+03  0.00000000000E+00 0. -1.
        -14    1    4    4    0    0  0.71500644845E+02 -0.11607029368E+02 -0.19599330841E+03  0.20895081308E+03  0.00000000000E+00 0.  1.
</event>
<event>
12    1  0.8451514E-002  0.1836241E+03  0.7818608E-02  0.1164651E+00
         21   -1    0    0  501  502  0.00000000000E+00  0.00000000000E+00  0.37789203105E+02  0.37789203105E+02  0.00000000000E+00 0.  1.
         21   -1    0    0  502  503 -0.00000000000E+00 -0.00000000000E+00 -0.11130658423E+04  0.11130658423E+04  0.00000000000E+00 0.  1.
         -6    2    1    2    0  503  0.20710785361E+02 -0.60361862071E+02 -0.79605539778E+03  0.81666598620E+03  0.17078245126E+03 0.  0.
        -24    2    3    3    0    0 -0.20969298576E+02 -0.53612803259E+02 -0.24121606485E+03  0.26020255114E+03  0.78779017019E+02 0.  0.
          6    2    1    2  501    0 -0.20710785361E+02  0.60361862071E+02 -0.27922124142E+03  0.33418905921E+03  0.17217820598E+03 0.  0.
         24    2    5    5    0    0  0.18530636693E-01  0.74955935902E+02 -0.28734014707E+03  0.30715763007E+03  0.78505139465E+02 0.  0.
          5    1    5    5  501    0 -0.20729315998E+02 -0.14594073831E+02  0.81189056445E+01  0.27031429144E+02  0.47000000000E+01 0. -1.
        -13    1    6    6    0    0  0.36956356943E+02  0.27414831362E+02 -0.93954924180E+02  0.10461774742E+03  0.00000000000E+00 0.  1.
         14    1    6    6    0    0 -0.36937826306E+02  0.47541104540E+02 -0.19338522289E+03  0.20253988265E+03  0.00000000000E+00 0. -1.
         -5    1    3    3    0  503  0.41680083937E+02 -0.67490588121E+01 -0.55483933293E+03  0.55646343506E+03  0.47000000000E+01 0.  1.
         13    1    4    4    0    0  0.17171675523E+02 -0.55489494711E+02 -0.16558794426E+03  0.17548024888E+03  0.00000000000E+00 0. -1.
        -14    1    4    4    0    0 -0.38140974099E+02  0.18766914527E+01 -0.75628120589E+02  0.84722302258E+02  0.00000000000E+00 0.  1.
</event>
<event>
12    1  0.8451514E-002  0.1827472E+03  0.7818608E-02  0.1165931E+00
         21   -1    0    0  501  502  0.00000000000E+00  0.00000000000E+00  0.11898222843E+04  0.11898222843E+04  0.00000000000E+00 0.  1.
         21   -1    0    0  502  503 -0.00000000000E+00 -0.00000000000E+00 -0.28116286895E+02  0.28116286895E+02  0.00000000000E+00 0.  1.
         -6    2    1    2    0  503 -0.56236381403E+02  0.25917155619E+02  0.49198379059E+03  0.52373084839E+03  0.16855776991E+03 0.  0.
        -24    2    3    3    0    0 -0.57357503222E+02 -0.42682024671E+02  0.31808893603E+03  0.33673187809E+03  0.84238637742E+02 0.  0.
          6    2    1    2  501    0  0.56236381403E+02 -0.25917155619E+02  0.66972220682E+03  0.69420772281E+03  0.17193690284E+03 0.  0.
         24    2    5    5    0    0  0.36520669169E+02  0.51025666990E+02  0.33679994792E+03  0.35190927449E+03  0.80427324831E+02 0.  0.
          5    1    5    5  501    0  0.19715712234E+02 -0.76942822609E+02  0.33292225889E+03  0.34229844833E+03  0.47000000000E+01 0. -1.
        -11    1    6    6    0    0 -0.14202263736E+02  0.43344630675E+02  0.10464354346E+03  0.11415223384E+03  0.00000000000E+00 0.  1.
         12    1    6    6    0    0  0.50722932904E+02  0.76810363144E+01  0.23215640447E+03  0.23775704065E+03  0.00000000000E+00 0. -1.
         -5    1    3    3    0  503  0.11211218194E+01  0.68599180290E+02  0.17389485456E+03  0.18699897030E+03  0.47000000000E+01 0.  1.
         11    1    4    4    0    0  0.13236603690E+02 -0.37720534999E+01  0.71408214581E+01  0.15505721394E+02  0.00000000000E+00 0. -1.
        -12    1    4    4    0    0 -0.70594106912E+02 -0.38909971171E+02  0.31094811457E+03  0.32122615669E+03  0.00000000000E+00 0.  1.
</event>
<event>
12    1  0.8451514E-002  0.1862876E+03  0.7818608E-02  0.1162160E+00
         21   -1    0    0  501  502  0.00000000000E+00  0.00000000000E+00  0.45535408622E+03  0.45535408622E+03  0.00000000000E+00 0.  1.
         21   -1    0    0  502  503 -0.00000000000E+00 -0.00000000000E+00 -0.96165545997E+02  0.96165545997E+02  0.00000000000E+00 0.  1.
         -6    2    1    2    0  503 -0.60649550820E+02  0.31334141694E+02  0.51789714110E+02  0.19207963428E+03  0.17190757682E+03 0.  0.
        -24    2    3    3    0    0 -0.29807193852E+02  0.40004113781E+02  0.97798627216E+02  0.13581837332E+03  0.79957870916E+02 0.  0.
          6    2    1    2  501    0  0.60649550820E+02 -0.31334141694E+02  0.30739882611E+03  0.35943999793E+03  0.17332881287E+03 0.  0.
         24    2    5    5    0    0  0.38976935475E+02  0.51120346974E+01  0.30320446976E+03  0.31657149371E+03  0.82092787426E+02 0.  0.
          5    1    5    5  501    0  0.21672615346E+02 -0.36446176391E+02  0.41943563495E+01  0.42868504227E+02  0.47000000000E+01 0. -1.
        -13    1    6    6    0    0  0.33456366306E+02 -0.13656954037E+02  0.29158789211E+03  0.29381854888E+03  0.00000000000E+00 0.  1.
         14    1    6    6    0    0  0.55205691685E+01  0.18768988734E+02  0.11616577650E+02  0.22752944828E+02  0.00000000000E+00 0. -1.
         -5    1    3    3    0  503 -0.30842356969E+02 -0.86699720875E+01 -0.46008913107E+02  0.56261260959E+02  0.47000000000E+01 0.  1.
         13    1    4    4    0    0  0.23626890859E+02 -0.27395884641E+01  0.13881909361E+02  0.27539838855E+02  0.00000000000E+00 0. -1.
        -14    1    4    4    0    0 -0.53434084711E+02  0.42743702245E+02  0.83916717855E+02  0.10827853447E+03  0.00000000000E+00 0.  1.
</event>
<event>
12    1  0.8451514E-002  0.2103160E+03  0.7818608E-02  0.1145725E+00
         21   -1    0    0  501  502  0.00000000000E+00  0.00000000000E+00  0.58833928740E+03  0.58833928740E+03  0.00000000000E+00 0. -1.
         21   -1    0    0  502  503 -0.00000000000E+00 -0.00000000000E+00 -0.72749400668E+02  0.72749400668E+02  0.00000000000E+00 0. -1.
         -6    2    1    2    0  503  0.74843385923E+02 -0.34633115892E+02  0.15927260301E+03  0.24733172219E+03  0.17030629348E+03 0.  0.
        -24    2    3    3    0    0  0.38650275766E+02  0.44087630389E+02  0.10642962631E+03  0.14573759193E+03  0.80465007136E+02 0.  0.
          6    2    1    2  501    0 -0.74843385923E+02  0.34633115892E+02  0.35631728372E+03  0.41375696588E+03  0.19347308599E+03 0.  0.
         24    2    5    5    0    0 -0.10162133367E+03 -0.40998098183E+02  0.23219616514E+03  0.26588783081E+03  0.69090809476E+02 0.  0.
          5    1    5    5  501    0  0.26777947751E+02  0.75631214075E+02  0.12412111858E+03  0.14786913507E+03  0.47000000000E+01 0. -1.
        -11    1    6    6    0    0 -0.41317153603E+01 -0.22439805193E+02  0.15603411764E+02  0.27642040221E+02  0.00000000000E+00 0.  1.
         12    1    6    6    0    0 -0.97489618314E+02 -0.18558292991E+02  0.21659275338E+03  0.23824579059E+03  0.00000000000E+00 0. -1.
         -5    1    3    3    0  503  0.36193110157E+02 -0.78720746281E+02  0.52842976702E+02  0.10159413027E+03  0.47000000000E+01 0.  1.
         11    1    4    4    0    0  0.29945609893E+02  0.58823842068E+02  0.40095424938E+02  0.77230997977E+02  0.00000000000E+00 0. -1.
        -12    1    4    4    0    0  0.87046658736E+01 -0.14736211679E+02  0.66334201374E+02  0.68506593949E+02  0.00000000000E+00 0.  1.
</event>
<event>
12    1  0.8451514E-002  0.1753845E+03  0.7818608E-02  0.1172347E+00
         21   -1    0    0  501  502  0.00000000000E+00  0.00000000000E+00  0.39313777287E+02  0.39313777287E+02  0.00000000000E+00 0.  1.
         21   -1    0    0  502  503 -0.00000000000E+00 -0.00000000000E+00 -0.83523619989E+03  0.83523619989E+03  0.00000000000E+00 0.  1.
         -6    2    1    2    0  503  0.30633722238E+02  0.20989903192E+02 -0.28798138503E+03  0.33718248774E+03  0.17140522437E+03 0.  0.
        -24    2    3    3    0    0  0.61672129969E+02  0.65099473890E+02 -0.21469032656E+03  0.24606330078E+03  0.80086319396E+02 0.  0.
          6    2    1    2  501    0 -0.30633722238E+02 -0.20989903192E+02 -0.50794103757E+03  0.53736748943E+03  0.17140805138E+03 0.  0.
         24    2    5    5    0    0 -0.47043590817E+02 -0.63143108050E+02 -0.22636648109E+03  0.25214389763E+03  0.78323750027E+02 0.  0.
          5    1    5    5  501    0  0.16409868579E+02  0.42153204858E+02 -0.28157455648E+03  0.28522359180E+03  0.47000000000E+01 0. -1.
        -11    1    6    6    0    0 -0.44691166970E+01  0.25480348131E+01 -0.11982680137E+03  0.11993718277E+03  0.00000000000E+00 0.  1.
         12    1    6    6    0    0 -0.42574474120E+02 -0.65691142863E+02 -0.10653967973E+03  0.13220671486E+03  0.00000000000E+00 0. -1.
         -5    1    3    3    0  503 -0.31038407731E+02 -0.44109570697E+02 -0.73291058472E+02  0.91119186967E+02  0.47000000000E+01 0.  1.
         13    1    4    4    0    0 -0.16722178945E+02  0.42113999086E+01 -0.58597849278E+02  0.61082526944E+02  0.00000000000E+00 0. -1.
        -14    1    4    4    0    0  0.78394308914E+02  0.60888073981E+02 -0.15609247728E+03  0.18498077383E+03  0.00000000000E+00 0.  1.
</event>
<event>
12    1  0.8451514E-002  0.2100264E+03  0.7818608E-02  0.1142476E+00
         21   -1    0    0  503  502  0.00000000000E+00  0.00000000000E+00  0.55870851380E+03  0.55870851380E+03  0.00000000000E+00 0. -1.
         21   -1    0    0  501  503 -0.00000000000E+00 -0.00000000000E+00 -0.28581625577E+03  0.28581625577E+03  0.00000000000E+00 0. -1.
          6    2    1    2  501    0 -0.45568266034E+02 -0.10470569446E+03 -0.22387782861E+03  0.30697294624E+03  0.17627069598E+03 0.  0.
         24    2    3    3    0    0 -0.83227259206E+02 -0.21555193438E+02 -0.13735169282E+03  0.18111164258E+03  0.80898309727E+02 0.  0.
         -6    2    1    2    0  502  0.45568266034E+02  0.10470569446E+03  0.49677008664E+03  0.53755182332E+03  0.17070938597E+03 0.  0.
        -24    2    5    5    0    0  0.29988386107E+02  0.11207969372E+03  0.22320142661E+03  0.26340038657E+03  0.78100741086E+02 0.  0.
          5    1    3    3  501    0  0.37658993172E+02 -0.83150501017E+02 -0.86526135790E+02  0.12586130367E+03  0.47000000000E+01 0. -1.
        -11    1    4    4    0    0 -0.52081124797E+02  0.64808036420E+01 -0.19427931999E+02  0.55963281870E+02  0.00000000000E+00 0.  1.
         12    1    4    4    0    0 -0.31146134410E+02 -0.28035997080E+02 -0.11792376082E+03  0.12514836071E+03  0.00000000000E+00 0. -1.
         -5    1    5    5    0  502  0.15579879928E+02 -0.73739992676E+01  0.27356866003E+03  0.27415143675E+03  0.47000000000E+01 0.  1.
         11    1    6    6    0    0  0.18118129275E+02  0.11135346962E+03  0.22468240194E+03  0.25141607655E+03  0.00000000000E+00 0. -1.
        -12    1    6    6    0    0  0.11870256831E+02  0.72622410645E+00 -0.14809753357E+01  0.11984310019E+02  0.00000000000E+00 0.  1.
</event>
<event>
12    1  0.8451514E-002  0.2166176E+03  0.7818608E-02  0.1136512E+00
         21   -1    0    0  503  502  0.00000000000E+00  0.00000000000E+00  0.22043721385E+02  0.22043721385E+02  0.00000000000E+00 0.  1.
         21   -1    0    0  501  503 -0.00000000000E+00 -0.00000000000E+00 -0.21565415226E+04  0.21565415226E+04  0.00000000000E+00 0.  1.
          6    2    1    2  501    0 -0.46572488476E+02  0.12104182124E+03 -0.12012534130E+04  0.12206280978E+04  0.17350236797E+03 0.  0.
         24    2    3    3    0    0 -0.15265987958E+02  0.15228209197E+03 -0.97593182018E+03  0.99095885369E+03  0.78317597984E+02 0.  0.
         -6    2    1    2    0  502  0.46572488476E+02 -0.12104182124E+03 -0.93324438821E+03  0.95795714619E+03  0.17296440861E+03 0.  0.
        -24    2    5    5    0    0 -0.19261914586E+02 -0.86152050877E+02 -0.76177967739E+03  0.77094457507E+03  0.79082638542E+02 0.  0.
          5    1    3    3  501    0 -0.31306500518E+02 -0.31240270736E+02 -0.22532159283E+03  0.22966924410E+03  0.47000000000E+01 0. -1.
        -11    1    4    4    0    0 -0.46733957191E+02  0.86844885522E+02 -0.60529607460E+03  0.61327761644E+03  0.00000000000E+00 0.  1.
         12    1    4    4    0    0  0.31467969234E+02  0.65437206451E+02 -0.37063574558E+03  0.37768123725E+03  0.00000000000E+00 0. -1.
         -5    1    5    5    0  502  0.65834403062E+02 -0.34889770360E+02 -0.17146471082E+03  0.18701257112E+03  0.47000000000E+01 0.  1.
         13    1    6    6    0    0 -0.41233353951E+02 -0.31026885516E+02 -0.49292123238E+03  0.49561496995E+03  0.00000000000E+00 0. -1.
        -14    1    6    6    0    0  0.21971439365E+02 -0.55125165362E+02 -0.26885844501E+03  0.27532960512E+03  0.00000000000E+00 0.  1.
</event>
<event>
12    1  0.8451514E-002  0.1855252E+03  0.7818608E-02  0.1162692E+00
         21   -1    0    0  503  502  0.00000000000E+00  0.00000000000E+00  0.52085394277E+03  0.52085394277E+03  0.00000000000E+00 0.  1.
         21   -1    0    0  501  503 -0.00000000000E+00 -0.00000000000E+00 -0.19344620051E+03  0.19344620051E+03  0.00000000000E+00 0.  1.
          6    2    1    2  501    0  0.60664296657E+02 -0.31879592695E+02 -0.12623539215E+03  0.22439915396E+03  0.17240400443E+03 0.  0.
         24    2    3    3    0    0  0.89605867283E+02 -0.94654295627E+01 -0.13962375175E+03  0.18513915660E+03  0.81626646676E+02 0.  0.
         -6    2    1    2    0  502 -0.60664296657E+02  0.31879592695E+02  0.45364313442E+03  0.48990098932E+03  0.17179761528E+03 0.  0.
        -24    2    5    5    0    0 -0.80464640059E+02  0.76566641963E+02  0.35517926484E+03  0.37987276756E+03  0.76249592808E+02 0.  0.
          5    1    3    3  501    0 -0.28941570626E+02 -0.22414163132E+02  0.13388359598E+02  0.39259997350E+02  0.47000000000E+01 0. -1.
        -13    1    4    4    0    0  0.46719711634E+02  0.35233165816E+00 -0.13259517184E+03  0.14058568629E+03  0.00000000000E+00 0.  1.
         14    1    4    4    0    0  0.42886155649E+02 -0.98177612209E+01 -0.70285799043E+01  0.44553470316E+02  0.00000000000E+00 0. -1.
         -5    1    5    5    0  502  0.19800343402E+02 -0.44687049269E+02  0.98463869579E+02  0.11002822176E+03  0.47000000000E+01 0.  1.
         13    1    6    6    0    0 -0.61943392851E+02  0.66832921777E+02  0.16453239397E+03  0.18808118464E+03  0.00000000000E+00 0. -1.
        -14    1    6    6    0    0 -0.18521247208E+02  0.97337201859E+01  0.19064687087E+03  0.19179158293E+03  0.00000000000E+00 0.  1.
</event>
<event>
12    1  0.8451514E-002  0.2222189E+03  0.7818608E-02  0.1132268E+00
         21   -1    0    0  501  502  0.00000000000E+00  0.00000000000E+00  0.42465166602E+03  0.42465166602E+03  0.00000000000E+00 0.  1.
         21   -1    0    0  502  503 -0.00000000000E+00 -0.00000000000E+00 -0.11694522935E+03  0.11694522935E+03  0.00000000000E+00 0.  1.
         -6    2    1    2    0  503  0.13762512309E+03 -0.32543044909E+02  0.13236171206E+03  0.25865203542E+03  0.17141040905E+03 0.  0.
        -24    2    3    3    0    0  0.87288459740E+01  0.20976070222E+02  0.56556604227E+02  0.99758831315E+02  0.78974595090E+02 0.  0.
          6    2    1    2  501    0 -0.13762512309E+03  0.32543044909E+02  0.17534472461E+03  0.28294485995E+03  0.17120834397E+03 0.  0.
         24    2    5    5    0    0 -0.14947876234E+03 -0.14367458439E+02  0.15244267967E+03  0.22920755679E+03  0.82140180503E+02 0.  0.
          5    1    5    5  501    0  0.11853639252E+02  0.46910503348E+02  0.22902044934E+02  0.53737303152E+02  0.47000000000E+01 0. -1.
        -13    1    6    6    0    0 -0.10590743698E+03  0.39726448006E+01  0.51689622495E+02  0.11791515673E+03  0.00000000000E+00 0.  1.
         14    1    6    6    0    0 -0.43571325364E+02 -0.18340103240E+02  0.10075305718E+03  0.11129240006E+03  0.00000000000E+00 0. -1.
         -5    1    3    3    0  503  0.12889627711E+03 -0.53519115131E+02  0.75805107829E+02  0.15889320411E+03  0.47000000000E+01 0.  1.
         11    1    4    4    0    0 -0.28587279742E+02  0.63292036509E+01  0.51650188337E+02  0.59371991184E+02  0.00000000000E+00 0. -1.
        -12    1    4    4    0    0  0.37316125716E+02  0.14646866571E+02  0.49064158897E+01  0.40386840130E+02  0.00000000000E+00 0.  1.
</event>
<event>
12    1  0.8451514E-002  0.2806763E+03  0.7818608E-02  0.1095399E+00
         21   -1    0    0  501  502  0.00000000000E+00  0.00000000000E+00  0.15814606126E+03  0.15814606126E+03  0.00000000000E+00 0.  1.
         21   -1    0    0  502  503 -0.00000000000E+00 -0.00000000000E+00 -0.51833337445E+03  0.51833337445E+03  0.00000000000E+00 0. -1.
         -6    2    1    2    0  503  0.69915121608E+02  0.21068956265E+03 -0.24835417292E+03  0.37434397687E+03  0.17080808463E+03 0.  0.
        -24    2    3    3    0    0  0.21859357998E+02  0.79376860165E+02 -0.19155043402E+03  0.22334352322E+03  0.80076482990E+02 0.  0.
          6    2    1    2  501    0 -0.69915121608E+02 -0.21068956265E+03 -0.11183314027E+03  0.30213545884E+03  0.17175845884E+03 0.  0.
         24    2    5    5    0    0 -0.40761606232E+02 -0.22805370194E+03 -0.10794430526E+03  0.26765859950E+03  0.79493102469E+02 0.  0.
          5    1    5    5  501    0 -0.29153515376E+02  0.17364139284E+02 -0.38888350084E+01  0.34476859334E+02  0.47000000000E+01 0. -1.
        -11    1    6    6    0    0 -0.59560498732E+02 -0.18532610012E+03 -0.67925695645E+02  0.20617254066E+03  0.00000000000E+00 0.  1.
         12    1    6    6    0    0  0.18798892500E+02 -0.42727601822E+02 -0.40018609613E+02  0.61486058843E+02  0.00000000000E+00 0. -1.
         -5    1    3    3    0  503  0.48055763610E+02  0.13131270249E+03 -0.56803738896E+02  0.15100045365E+03  0.47000000000E+01 0.  1.
         13    1    4    4    0    0  0.49618058977E+02  0.30459677223E+02 -0.88282562878E+02  0.10575232679E+03  0.00000000000E+00 0. -1.
        -14    1    4    4    0    0 -0.27758700979E+02  0.48917182941E+02 -0.10326787115E+03  0.11759119643E+03  0.00000000000E+00 0.  1.
</event>
<event>
12    1  0.8451514E-002  0.2384362E+03  0.7818608E-02  0.1120907E+00
         21   -1    0    0  503  502  0.00000000000E+00  0.00000000000E+00  0.15575740422E+03  0.15575740422E+03  0.00000000000E+00 0. -1.
         21   -1    0    0  501  503 -0.00000000000E+00 -0.00000000000E+00 -0.37348407564E+03  0.37348407564E+03  0.00000000000E+00 0. -1.
          6    2    1    2  501    0  0.15407275685E+03 -0.58658826495E+02 -0.15026901864E+03  0.28183792065E+03  0.17225725884E+03 0.  0.
         24    2    3    3    0    0  0.16812479299E+01 -0.56274227538E+01 -0.52743972589E+02  0.93241191141E+02  0.76664845917E+02 0.  0.
         -6    2    1    2    0  502 -0.15407275685E+03  0.58658826495E+02 -0.67457652769E+02  0.24740355921E+03  0.17169366286E+03 0.  0.
        -24    2    5    5    0    0 -0.47193711828E+02  0.16891086627E+02  0.26796684053E+02  0.98831541768E+02  0.80852063229E+02 0.  0.
          5    1    3    3  501    0  0.15239150892E+03 -0.53031403742E+02 -0.97525046056E+02  0.18859672951E+03  0.47000000000E+01 0. -1.
        -13    1    4    4    0    0  0.23280143202E+02 -0.21916282243E+02  0.21477205418E+01  0.32045299162E+02  0.00000000000E+00 0.  1.
         14    1    4    4    0    0 -0.21598895272E+02  0.16288859489E+02 -0.54891693130E+02  0.61195891979E+02  0.00000000000E+00 0. -1.
         -5    1    5    5    0  502 -0.10687904502E+03  0.41767739868E+02 -0.94254336823E+02  0.14857201744E+03  0.47000000000E+01 0.  1.
         11    1    6    6    0    0 -0.15968407756E+02  0.41249026898E+02 -0.93544094819E+01  0.45210366544E+02  0.00000000000E+00 0. -1.
        -12    1    6    6    0    0 -0.31225304072E+02 -0.24357940271E+02  0.36151093535E+02  0.53621175224E+02  0.00000000000E+00 0.  1.
</event>
<event>
12    1  0.8451514E-002  0.2223215E+03  0.7818608E-02  0.1132301E+00
         21   -1    0    0  501  502  0.00000000000E+00  0.00000000000E+00  0.10614906164E+03  0.10614906164E+03  0.00000000000E+00 0.  1.
         21   -1    0    0  502  503 -0.00000000000E+00 -0.00000000000E+00 -0.54441495126E+03  0.54441495126E+03  0.00000000000E+00 0.  1.
         -6    2    1    2    0  503  0.31463055900E+02 -0.13668740903E+03 -0.93869113481E+02  0.24064210960E+03  0.17153379485E+03 0.  0.
        -24    2    3    3    0    0  0.38634711543E+02 -0.66910724766E+01 -0.47461492513E+02  0.10234446882E+03  0.81758092199E+02 0.  0.
          6    2    1    2  501    0 -0.31463055900E+02  0.13668740903E+03 -0.34439677613E+03  0.40992190330E+03  0.17249190045E+03 0.  0.
         24    2    5    5    0    0 -0.38067032862E+02  0.16433698110E+03 -0.32613414899E+03  0.37580849101E+03  0.80079937742E+02 0.  0.
          5    1    5    5  501    0  0.66039769624E+01 -0.27649572078E+02 -0.18262627149E+02  0.34113412292E+02  0.47000000000E+01 0. -1.
        -13    1    6    6    0    0 -0.56030491477E+02  0.68481512811E+02 -0.17172073278E+03  0.19317645725E+03  0.00000000000E+00 0.  1.
         14    1    6    6    0    0  0.17963458615E+02  0.95855468294E+02 -0.15441341621E+03  0.18263203375E+03  0.00000000000E+00 0. -1.
         -5    1    3    3    0  503 -0.71716556427E+01 -0.12999633655E+03 -0.46407620968E+02  0.13829764078E+03  0.47000000000E+01 0.  1.
         11    1    4    4    0    0  0.32564895424E+02 -0.21915903126E+02  0.11696161086E+02  0.40958264221E+02  0.00000000000E+00 0. -1.
        -12    1    4    4    0    0  0.60698161184E+01  0.15224830650E+02 -0.59157653599E+02  0.61386204601E+02  0.00000000000E+00 0.  1.
</event>
<event>
12    1  0.8451514E-002  0.1845805E+03  0.7818608E-02  0.1163828E+00
         21   -1    0    0  501  502  0.00000000000E+00  0.00000000000E+00  0.30767040198E+03  0.30767040198E+03  0.00000000000E+00 0.  1.
         21   -1    0    0  502  503 -0.00000000000E+00 -0.00000000000E+00 -0.14000581721E+03  0.14000581721E+03  0.00000000000E+00 0.  1.
         -6    2    1    2    0  503 -0.62797936624E+02  0.21590604522E+02  0.18758646910E+03  0.26202374552E+03  0.17046414514E+03 0.  0.
        -24    2    3    3    0    0 -0.31622852000E+02 -0.48294720476E+02  0.66152042422E+02  0.11841227476E+03  0.79454322109E+02 0.  0.
          6    2    1    2  501    0  0.62797936624E+02 -0.21590604522E+02 -0.19921884329E+02  0.18565247367E+03  0.17222144018E+03 0.  0.
         24    2    5    5    0    0  0.80851947271E+02 -0.60395817733E+01 -0.66645603199E+02  0.13299340499E+03  0.81682895521E+02 0.  0.
          5    1    5    5  501    0 -0.18054010647E+02 -0.15551022748E+02  0.46723718870E+02  0.52659068678E+02  0.47000000000E+01 0. -1.
        -13    1    6    6    0    0  0.47284959136E+02 -0.14399979483E+02  0.86051205730E+01  0.50172451302E+02  0.00000000000E+00 0.  1.
         14    1    6    6    0    0  0.33566988135E+02  0.83603977094E+01 -0.75250723772E+02  0.82820953692E+02  0.00000000000E+00 0. -1.
         -5    1    3    3    0  503 -0.31175084624E+02  0.69885324998E+02  0.12143442668E+03  0.14361147076E+03  0.47000000000E+01 0.  1.
         13    1    4    4    0    0  0.24973091745E+02 -0.13828764823E+02  0.35071932985E+02  0.45220908119E+02  0.00000000000E+00 0. -1.
        -14    1    4    4    0    0 -0.56595943745E+02 -0.34465955653E+02  0.31080109437E+02  0.73191366636E+02  0.00000000000E+00 0.  1.
</event>
<event>
12    1  0.8451514E-002  0.1989621E+03  0.7818608E-02  0.1150809E+00
         21   -1    0    0  501  502  0.00000000000E+00  0.00000000000E+00  0.12096035758E+03  0.12096035758E+03  0.00000000000E+00 0. -1.
         21   -1    0    0  502  503 -0.00000000000E+00 -0.00000000000E+00 -0.45380968333E+03  0.45380968333E+03  0.00000000000E+00 0. -1.
         -6    2    1    2    0  503 -0.80705066557E+02  0.61732287263E+02 -0.31879373459E+03  0.37531210085E+03  0.17001630737E+03 0.  0.
        -24    2    3    3    0    0 -0.78665073203E+02  0.18736397755E+02 -0.31162909977E+03  0.33142326310E+03  0.78672976031E+02 0.  0.
          6    2    1    2  501    0  0.80705066557E+02 -0.61732287263E+02 -0.14055591155E+02  0.19945794006E+03  0.17106059497E+03 0.  0.
         24    2    5    5    0    0  0.28222271720E+02 -0.19870900365E+02 -0.71134045061E+02  0.11121475694E+03  0.78213301251E+02 0.  0.
          5    1    5    5  501    0  0.52482794836E+02 -0.41861386898E+02  0.57078453906E+02  0.88243183120E+02  0.47000000000E+01 0. -1.
        -13    1    6    6    0    0 -0.11177417257E+02  0.22205090047E+02 -0.89456322416E+01  0.26420163072E+02  0.00000000000E+00 0.  1.
         14    1    6    6    0    0  0.39399688977E+02 -0.42075990412E+02 -0.62188412819E+02  0.84794593870E+02  0.00000000000E+00 0. -1.
         -5    1    3    3    0  503 -0.20399933536E+01  0.42995889508E+02 -0.71646348265E+01  0.43888837757E+02  0.47000000000E+01 0.  1.
         13    1    4    4    0    0 -0.65603449205E+02 -0.35743983748E+01 -0.10987834285E+03  0.12802280695E+03  0.00000000000E+00 0. -1.
        -14    1    4    4    0    0 -0.13061623998E+02  0.22310796130E+02 -0.20175075691E+03  0.20340045615E+03  0.00000000000E+00 0.  1.
</event>
<event>
12    1  0.8451514E-002  0.6451036E+03  0.7818608E-02  0.9816018E-01
         21   -1    0    0  501  502  0.00000000000E+00  0.00000000000E+00  0.89260876384E+03  0.89260876384E+03  0.00000000000E+00 0. -1.
         21   -1    0    0  502  503 -0.00000000000E+00 -0.00000000000E+00 -0.49570975477E+03  0.49570975477E+03  0.00000000000E+00 0.  1.
         -6    2    1    2    0  503  0.29628657410E+03  0.54656652557E+03  0.29132614285E+02  0.64576110991E+03  0.17215690805E+03 0.  0.
        -24    2    3    3    0    0  0.21332518396E+03  0.48526548101E+03  0.57107047247E+02  0.53877947963E+03  0.77665253813E+02 0.  0.
          6    2    1    2  501    0 -0.29628657410E+03 -0.54656652557E+03  0.36776639478E+03  0.74255740870E+03  0.17210079379E+03 0.  0.
         24    2    5    5    0    0 -0.25093132556E+03 -0.52338418494E+03  0.36716655835E+03  0.69140108660E+03  0.79540214930E+02 0.  0.
          5    1    5    5  501    0 -0.45355248539E+02 -0.23182340631E+02  0.59983643219E+00  0.51156322101E+02  0.47000000000E+01 0. -1.
        -11    1    6    6    0    0 -0.13567220986E+03 -0.29542776407E+03  0.15904412557E+03  0.36191096445E+03  0.00000000000E+00 0.  1.
         12    1    6    6    0    0 -0.11525911570E+03 -0.22795642087E+03  0.20812243278E+03  0.32949012215E+03  0.00000000000E+00 0. -1.
         -5    1    3    3    0  503  0.82961390137E+02  0.61301044560E+02 -0.27974432962E+02  0.10698163028E+03  0.47000000000E+01 0.  1.
         13    1    4    4    0    0  0.84940864356E+02  0.22387230579E+03 -0.11016490343E+02  0.23969798247E+03  0.00000000000E+00 0. -1.
        -14    1    4    4    0    0  0.12838431960E+03  0.26139317522E+03  0.68123537590E+02  0.29908149716E+03  0.00000000000E+00 0.  1.
</event>
<event>
12    1  0.8451514E-002  0.2246873E+03  0.7818608E-02  0.1130493E+00
         21   -1    0    0  501  502  0.00000000000E+00  0.00000000000E+00  0.12261949409E+03  0.12261949409E+03  0.00000000000E+00 0. -1.
         21   -1    0    0  502  503 -0.00000000000E+00 -0.00000000000E+00 -0.47252026436E+03  0.47252026436E+03  0.00000000000E+00 0. -1.
         -6    2    1    2    0  503 -0.11623620144E+03 -0.86884427412E+02 -0.28209087671E+03  0.36044303463E+03  0.17112615299E+03 0.  0.
        -24    2    3    3    0    0 -0.11382880803E+03 -0.78084929433E+02 -0.30035997772E+03  0.33948887611E+03  0.77345504338E+02 0.  0.
          6    2    1    2  501    0  0.11623620144E+03  0.86884427412E+02 -0.67809893554E+02  0.23469672382E+03  0.17153603778E+03 0.  0.
         24    2    5    5    0    0  0.10634023007E+03  0.38819608423E+01 -0.71223518848E+02  0.15090482360E+03  0.79850873490E+02 0.  0.
          5    1    5    5  501    0  0.98959713730E+01  0.83002466570E+02  0.34136252941E+01  0.83791900228E+02  0.47000000000E+01 0. -1.
        -13    1    6    6    0    0  0.11654682155E+03  0.12753165870E+02 -0.71599656489E+02  0.13737654699E+03  0.00000000000E+00 0.  1.
         14    1    6    6    0    0 -0.10206591486E+02 -0.88712050273E+01  0.37613764079E+00  0.13528276606E+02  0.00000000000E+00 0. -1.
         -5    1    3    3    0  503 -0.24073934139E+01 -0.87994979794E+01  0.18269101009E+02  0.20954158523E+02  0.47000000000E+01 0.  1.
         11    1    4    4    0    0 -0.59472345355E+02 -0.53054966393E+02 -0.87404448387E+02  0.11828493953E+03  0.00000000000E+00 0. -1.
        -12    1    4    4    0    0 -0.54356462671E+02 -0.25029963040E+02 -0.21295552933E+03  0.22120393658E+03  0.00000000000E+00 0.  1.
</event>
<event>
12    1  0.8451514E-002  0.2571935E+03  0.7818608E-02  0.1109087E+00
         21   -1    0    0  503  502  0.00000000000E+00  0.00000000000E+00  0.19851863737E+04  0.19851863737E+04  0.00000000000E+00 0. -1.
         21   -1    0    0  501  503 -0.00000000000E+00 -0.00000000000E+00 -0.60661862746E+02  0.60661862746E+02  0.00000000000E+00 0.  1.
          6    2    1    2  501    0 -0.57116421017E+02  0.18304823565E+03  0.27456719483E+03  0.37621220772E+03  0.17140460505E+03 0.  0.
         24    2    3    3    0    0  0.25949500136E+02  0.69353245679E+02  0.15969373009E+03  0.19443074303E+03  0.82571043120E+02 0.  0.
         -6    2    1    2    0  502  0.57116421017E+02 -0.18304823565E+03  0.16499573161E+04  0.16696360288E+04  0.16898633461E+03 0.  0.
        -24    2    5    5    0    0  0.10373412212E+03 -0.14452436480E+03  0.12775315017E+04  0.12923027862E+04  0.79446165643E+02 0.  0.
          5    1    3    3  501    0 -0.83065921153E+02  0.11369498997E+03  0.11487346474E+03  0.18178146468E+03  0.47000000000E+01 0. -1.
        -11    1    4    4    0    0 -0.19815335299E+02 -0.66512410820E+01  0.43289061246E+02  0.48071086367E+02  0.00000000000E+00 0.  1.
         12    1    4    4    0    0  0.45764835434E+02  0.76004486761E+02  0.11640466885E+03  0.14635965667E+03  0.00000000000E+00 0. -1.
         -5    1    5    5    0  502 -0.46617701100E+02 -0.38523870854E+02  0.37242581443E+03  0.37733324255E+03  0.47000000000E+01 0.  1.
         13    1    6    6    0    0  0.75648943041E+02 -0.64039922618E+02  0.89026762118E+03  0.89576800099E+03  0.00000000000E+00 0. -1.
        -14    1    6    6    0    0  0.28085179076E+02 -0.80484442178E+02  0.38726388054E+03  0.39653478522E+03  0.00000000000E+00 0.  1.
</event>
<event>
12    1  0.8451514E-002  0.1768883E+03  0.7818608E-02  0.1171737E+00
         21   -1    0    0  503  502  0.00000000000E+00  0.00000000000E+00  0.80435284489E+02  0.80435284489E+02  0.00000000000E+00 0.  1.
         21   -1    0    0  501  503 -0.00000000000E+00 -0.00000000000E+00 -0.50955814021E+03  0.50955814021E+03  0.00000000000E+00 0. -1.
          6    2    1    2  501    0 -0.50512075733E+00  0.41205076389E+02 -0.36096739981E+03  0.40042908054E+03  0.16836826111E+03 0.  0.
         24    2    3    3    0    0  0.27682065828E+02  0.18046444630E+02 -0.82347461306E+02  0.11939171675E+03  0.79883081519E+02 0.  0.
         -6    2    1    2    0  502  0.50512075733E+00 -0.41205076389E+02 -0.68155455916E+02  0.18956434417E+03  0.17202139675E+03 0.  0.
        -24    2    5    5    0    0 -0.43367777378E+02  0.24224149145E+02 -0.20141034949E+02  0.97188539079E+02  0.81070199968E+02 0.  0.
          5    1    3    3  501    0 -0.28187186585E+02  0.23158631759E+02 -0.27861993850E+03  0.28103736379E+03  0.47000000000E+01 0. -1.
        -13    1    4    4    0    0  0.53116379247E+02  0.17340645806E+01 -0.36458905007E+02  0.64448494774E+02  0.00000000000E+00 0.  1.
         14    1    4    4    0    0 -0.25434313420E+02  0.16312380049E+02 -0.45888556299E+02  0.54943221977E+02  0.00000000000E+00 0. -1.
         -5    1    5    5    0  502  0.43872898136E+02 -0.65429225534E+02 -0.48014420966E+02  0.92375805088E+02  0.47000000000E+01 0.  1.
         11    1    6    6    0    0 -0.31605081146E+02  0.28104065418E+02 -0.49628627577E+02  0.65205216989E+02  0.00000000000E+00 0. -1.
        -12    1    6    6    0    0 -0.11762696232E+02 -0.38799162731E+01  0.29487592628E+02  0.31983322090E+02  0.00000000000E+00 0.  1.
</event>
<event>
12    1  0.8451514E-002  0.2042987E+03  0.7818608E-02  0.1146881E+00
         21   -1    0    0  503  502  0.00000000000E+00  0.00000000000E+00  0.85301566748E+02  0.85301566748E+02  0.00000000000E+00 0. -1.
         21   -1    0    0  501  503 -0.00000000000E+00 -0.00000000000E+00 -0.75119054974E+03  0.75119054974E+03  0.00000000000E+00 0. -1.
          6    2    1    2  501    0 -0.77021259005E+02  0.78046155871E+02 -0.58193865722E+03  0.61561741507E+03  0.16825196634E+03 0.  0.
         24    2    3    3    0    0 -0.14040924532E+02  0.26838030654E+02 -0.12494491313E+03  0.15144700804E+03  0.80047095363E+02 0.  0.
         -6    2    1    2    0  502  0.77021259005E+02 -0.78046155871E+02 -0.83950325767E+02  0.22087470142E+03  0.17237894229E+03 0.  0.
        -24    2    5    5    0    0  0.11376785636E+03 -0.90109210989E+02 -0.61858876017E+02  0.17608684739E+03  0.78212928827E+02 0.  0.
          5    1    3    3  501    0 -0.62980334474E+02  0.51208125217E+02 -0.45699374409E+03  0.46417040703E+03  0.47000000000E+01 0. -1.
        -11    1    4    4    0    0 -0.76725785528E+01 -0.21703586699E+02 -0.85592831167E+02  0.88634343707E+02  0.00000000000E+00 0.  1.
         12    1    4    4    0    0 -0.63683459788E+01  0.48541617353E+02 -0.39352081962E+02  0.62812664332E+02  0.00000000000E+00 0. -1.
         -5    1    5    5    0  502 -0.36746597359E+02  0.12063055118E+02 -0.22091449750E+02  0.44787854026E+02  0.47000000000E+01 0.  1.
         13    1    6    6    0    0  0.72450678553E+02 -0.23718777062E+02  0.23495111415E+00  0.76234745426E+02  0.00000000000E+00 0. -1.
        -14    1    6    6    0    0  0.41317177811E+02 -0.66390433927E+02 -0.62093827132E+02  0.99852101967E+02  0.00000000000E+00 0.  1.
</event>
<event>
12    1  0.8451514E-002  0.3422187E+03  0.7818608E-02  0.1066089E+00
         21   -1    0    0  503  502  0.00000000000E+00  0.00000000000E+00  0.25733881783E+03  0.25733881783E+03  0.00000000000E+00 0. -1.
         21   -1    0    0  501  503 -0.00000000000E+00 -0.00000000000E+00 -0.98984032132E+03  0.98984032132E+03  0.00000000000E+00 0.  1.
          6    2    1    2  501    0 -0.21321484447E+03  0.20386246165E+03 -0.82638704811E+03  0.89444351514E+03  0.17347384623E+03 0.  0.
         24    2    3    3    0    0 -0.17517331262E+03  0.22570879360E+03 -0.69200716095E+03  0.75300637561E+03  0.80712712452E+02 0.  0.
         -6    2    1    2    0  502  0.21321484447E+03 -0.20386246165E+03  0.93885544617E+02  0.35273562401E+03  0.16907824160E+03 0.  0.
        -24    2    5    5    0    0  0.21778548822E+03 -0.21451574193E+03  0.10796754727E+03  0.33390012658E+03  0.79904823690E+02 0.  0.
          5    1    3    3  501    0 -0.38041531852E+02 -0.21846331942E+02 -0.13437988716E+03  0.14143713953E+03  0.47000000000E+01 0. -1.
        -13    1    4    4    0    0 -0.15053453864E+03  0.15205963816E+03 -0.56473435009E+03  0.60391031375E+03  0.00000000000E+00 0.  1.
         14    1    4    4    0    0 -0.24638773984E+02  0.73649155440E+02 -0.12727281086E+03  0.14909606186E+03  0.00000000000E+00 0. -1.
         -5    1    5    5    0  502 -0.45706437454E+01  0.10653280278E+02 -0.14082002653E+02  0.18835497436E+02  0.47000000000E+01 0.  1.
         13    1    6    6    0    0  0.16729313986E+03 -0.20405762734E+03  0.83036731885E+02  0.27662539428E+03  0.00000000000E+00 0. -1.
        -14    1    6    6    0    0  0.50492348360E+02 -0.10458114593E+02  0.24930815385E+02  0.57274732295E+02  0.00000000000E+00 0.  1.
</event>
<event>
12    1  0.8451514E-002  0.1979035E+03  0.7818608E-02  0.1151615E+00
         21   -1    0    0  503  502  0.00000000000E+00  0.00000000000E+00  0.46875384822E+03  0.46875384822E+03  0.00000000000E+00 0. -1.
         21   -1    0    0  501  503 -0.00000000000E+00 -0.00000000000E+00 -0.83826347856E+02  0.83826347856E+02  0.00000000000E+00 0.  1.
          6    2    1    2  501    0 -0.84690775969E+02  0.46353436485E+02  0.21273617755E+03  0.29025285996E+03  0.17224654674E+03 0.  0.
         24    2    3    3    0    0 -0.29212950726E+02  0.88948610965E+02  0.16481134794E+03  0.20533515111E+03  0.78958799305E+02 0.  0.
         -6    2    1    2    0  502  0.84690775969E+02 -0.46353436485E+02  0.17219132282E+03  0.26232733613E+03  0.17275592904E+03 0.  0.
        -24    2    5    5    0    0  0.11869639961E+03 -0.55753897508E+02  0.10156749713E+03  0.18324152285E+03  0.77872760683E+02 0.  0.
          5    1    3    3  501    0 -0.55477825243E+02 -0.42595174480E+02  0.47924829612E+02  0.84917708848E+02  0.47000000000E+01 0. -1.
        -11    1    4    4    0    0 -0.44171059657E+02  0.54172161407E+02  0.54274526304E+02  0.88495365914E+02  0.00000000000E+00 0.  1.
         12    1    4    4    0    0  0.14958108931E+02  0.34776449557E+02  0.11053682164E+03  0.11683978519E+03  0.00000000000E+00 0. -1.
         -5    1    5    5    0  502 -0.34005623638E+02  0.94004610237E+01  0.70623825688E+02  0.79085813274E+02  0.47000000000E+01 0.  1.
         13    1    6    6    0    0  0.10347628798E+02  0.53628629604E+01  0.45183360729E+02  0.46662295354E+02  0.00000000000E+00 0. -1.
        -14    1    6    6    0    0  0.10834877081E+03 -0.61116760469E+02  0.56384136399E+02  0.13657922750E+03  0.00000000000E+00 0.  1.
</event>
<event>
12    1  0.8451514E-002  0.1817341E+03  0.7818608E-02  0.1166155E+00
         21   -1    0    0  503  502  0.00000000000E+00  0.00000000000E+00  0.61119361604E+02  0.61119361604E+02  0.00000000000E+00 0. -1.
         21   -1    0    0  501  503 -0.00000000000E+00 -0.00000000000E+00 -0.61267942737E+03  0.61267942737E+03  0.00000000000E+00 0. -1.
          6    2    1    2  501    0 -0.27116578067E+02 -0.53121527418E+02 -0.39165801327E+03  0.43173278810E+03  0.17158087154E+03 0.  0.
         24    2    3    3    0    0 -0.26073549437E+01 -0.99729524729E+02 -0.25585654826E+03  0.28600312286E+03  0.79890153308E+02 0.  0.
         -6    2    1    2    0  502  0.27116578067E+02  0.53121527418E+02 -0.15990205250E+03  0.24206600088E+03  0.17166850878E+03 0.  0.
        -24    2    5    5    0    0  0.65229969885E+02  0.41600907610E+02 -0.16795537989E+03  0.20117221897E+03  0.79219111115E+02 0.  0.
          5    1    3    3  501    0 -0.24509223123E+02  0.46607997311E+02 -0.13580146501E+03  0.14572966524E+03  0.47000000000E+01 0. -1.
        -11    1    4    4    0    0  0.12171182950E+01 -0.90295194188E+02 -0.12212955314E+03  0.15188920706E+03  0.00000000000E+00 0.  1.
         12    1    4    4    0    0 -0.38244732387E+01 -0.94343305418E+01 -0.13372699512E+03  0.13411391580E+03  0.00000000000E+00 0. -1.
         -5    1    5    5    0  502 -0.38113391818E+02  0.11520619808E+02  0.80533273934E+01  0.40893781908E+02  0.47000000000E+01 0.  1.
         13    1    6    6    0    0  0.55231264319E+02 -0.45329080767E+01 -0.52070863801E+02  0.76042190072E+02  0.00000000000E+00 0. -1.
        -14    1    6    6    0    0  0.99987055658E+01  0.46133815686E+02 -0.11588451609E+03  0.12513002890E+03  0.00000000000E+00 0.  1.
</event>
<event>
12    1  0.8451514E-002  0.2069628E+03  0.7818608E-02  0.1144054E+00
         21   -1    0    0  503  502  0.00000000000E+00  0.00000000000E+00  0.11982178355E+03  0.11982178355E+03  0.00000000000E+00 0.  1.
         21   -1    0    0  501  503 -0.00000000000E+00 -0.00000000000E+00 -0.37574794303E+03  0.37574794303E+03  0.00000000000E+00 0. -1.
          6    2    1    2  501    0  0.81101734777E+02  0.78362993301E+02 -0.18345765978E+03  0.27656880068E+03  0.17353771486E+03 0.  0.
         24    2    3    3    0    0  0.50216473775E+02 -0.98736392498E+01 -0.36797994427E+02  0.10258388722E+03  0.80933173258E+02 0.  0.
         -6    2    1    2    0  502 -0.81101734777E+02 -0.78362993301E+02 -0.72468499696E+02  0.21900092590E+03  0.17318046077E+03 0.  0.
        -24    2    5    5    0    0 -0.22691616148E+02 -0.75241291537E+01  0.22516606322E+02  0.86811111626E+02  0.80359502105E+02 0.  0.
          5    1    3    3  501    0  0.30885261002E+02  0.88236632551E+02 -0.14665966535E+03  0.17398491346E+03  0.47000000000E+01 0. -1.
        -13    1    4    4    0    0  0.44125873021E+02 -0.37930805051E+02 -0.44038719357E+02  0.72974293037E+02  0.00000000000E+00 0.  1.
         14    1    4    4    0    0  0.60906007543E+01  0.28057165802E+02  0.72407249297E+01  0.29609594186E+02  0.00000000000E+00 0. -1.
         -5    1    5    5    0  502 -0.58410118629E+02 -0.70838864148E+02 -0.94985106019E+02  0.13218981427E+03  0.47000000000E+01 0.  1.
         13    1    6    6    0    0 -0.36411875744E+02  0.18515207354E+02 -0.10902411933E+02  0.42278838495E+02  0.00000000000E+00 0. -1.
        -14    1    6    6    0    0  0.13720259595E+02 -0.26039336508E+02  0.33419018255E+02  0.44532273131E+02  0.00000000000E+00 0.  1.
</event>
<event>
12    1  0.8451514E-002  0.1770699E+03  0.7818608E-02  0.1170921E+00
         21   -1    0    0  501  502  0.00000000000E+00  0.00000000000E+00  0.67570197152E+02  0.67570197152E+02  0.00000000000E+00 0.  1.
         21   -1    0    0  502  503 -0.00000000000E+00 -0.00000000000E+00 -0.11377907887E+04  0.11377907887E+04  0.00000000000E+00 0.  1.
         -6    2    1    2    0  503 -0.45114652451E+02  0.18706030747E+01 -0.99917940841E+03  0.10145715558E+04  0.17016791913E+03 0.  0.
        -24    2    3    3    0    0 -0.54295471054E+02 -0.58681175472E+02 -0.70409356698E+03  0.71316062517E+03  0.80366956481E+02 0.  0.
          6    2    1    2  501    0  0.45114652451E+02 -0.18706030747E+01 -0.71041183190E+02  0.19078943007E+03  0.17121602114E+03 0.  0.
         24    2    5    5    0    0 -0.13354225762E+02 -0.55395383587E+02 -0.42374446309E+02  0.10636559663E+03  0.79190040906E+02 0.  0.
          5    1    5    5  501    0  0.58468878213E+02  0.53524780512E+02 -0.28666736881E+02  0.84423833435E+02  0.47000000000E+01 0. -1.
        -11    1    6    6    0    0  0.18048040994E+02  0.12816222516E+02 -0.60437158771E+01  0.22945889499E+02  0.00000000000E+00 0.  1.
         12    1    6    6    0    0 -0.31402266756E+02 -0.68211606103E+02 -0.36330730432E+02  0.83419707134E+02  0.00000000000E+00 0. -1.
         -5    1    3    3    0  503  0.91808186027E+01  0.60551778547E+02 -0.29508584143E+03  0.30141093067E+03  0.47000000000E+01 0.  1.
         11    1    4    4    0    0 -0.64671208283E+02 -0.61736089666E+02 -0.44776673715E+03  0.45660569515E+03  0.00000000000E+00 0. -1.
        -12    1    4    4    0    0  0.10375737229E+02  0.30549141940E+01 -0.25632682983E+03  0.25655493001E+03  0.00000000000E+00 0.  1.
</event>
<event>
12    1  0.8451514E-002  0.3366624E+03  0.7818608E-02  0.1068259E+00
         21   -1    0    0  503  502  0.00000000000E+00  0.00000000000E+00  0.18988863987E+03  0.18988863987E+03  0.00000000000E+00 0. -1.
         21   -1    0    0  501  503 -0.00000000000E+00 -0.00000000000E+00 -0.11326374566E+04  0.11326374566E+04  0.00000000000E+00 0.  1.
          6    2    1    2  501    0  0.25302669899E+03  0.14027349123E+03 -0.92628151832E+03  0.98546119363E+03  0.17157258007E+03 0.  0.
         24    2    3    3    0    0  0.12825685374E+03  0.36544931942E+02 -0.31446436205E+03  0.35247663537E+03  0.86986153489E+02 0.  0.
         -6    2    1    2    0  502 -0.25302669899E+03 -0.14027349123E+03 -0.16467298414E+02  0.33706490285E+03  0.17216972461E+03 0.  0.
        -24    2    5    5    0    0 -0.19838327307E+03 -0.14306955369E+03  0.36236594741E+02  0.26094977744E+03  0.83407885258E+02 0.  0.
          5    1    3    3  501    0  0.12476984525E+03  0.10372855929E+03 -0.61181715626E+03  0.63298455826E+03  0.47000000000E+01 0. -1.
        -13    1    4    4    0    0  0.11223397460E+01  0.14114795107E+02 -0.10834180555E+03  0.10926314071E+03  0.00000000000E+00 0.  1.
         14    1    4    4    0    0  0.12713451400E+03  0.22430136835E+02 -0.20612255651E+03  0.24321349467E+03  0.00000000000E+00 0. -1.
         -5    1    5    5    0  502 -0.54643425920E+02  0.27960624644E+01 -0.52703893156E+02  0.76115125404E+02  0.47000000000E+01 0.  1.
         11    1    6    6    0    0 -0.49347646828E+02 -0.26664409660E+02  0.44593691361E+02  0.71657367376E+02  0.00000000000E+00 0. -1.
        -12    1    6    6    0    0 -0.14903562624E+03 -0.11640514403E+03 -0.83570966200E+01  0.18929241007E+03  0.00000000000E+00 0.  1.
</event>
<event>
12    1  0.8451514E-002  0.2112127E+03  0.7818608E-02  0.1141312E+00
         21   -1    0    0  501  502  0.00000000000E+00  0.00000000000E+00  0.20559361435E+03  0.20559361435E+03  0.00000000000E+00 0.  1.
         21   -1    0    0  502  503 -0.00000000000E+00 -0.00000000000E+00 -0.23140341289E+03  0.23140341289E+03  0.00000000000E+00 0.  1.
         -6    2    1    2    0  503 -0.67850930231E+01  0.11613105168E+03 -0.73816821597E+02  0.22039723396E+03  0.17202778536E+03 0.  0.
        -24    2    3    3    0    0 -0.61397949113E+02  0.70552504372E+02 -0.84335008023E+01  0.12366545706E+03  0.80465255268E+02 0.  0.
          6    2    1    2  501    0  0.67850930231E+01 -0.11613105168E+03  0.48007023063E+02  0.21659979327E+03  0.17629049189E+03 0.  0.
         24    2    5    5    0    0  0.13508954416E+02 -0.15183112250E+03  0.52719402373E+02  0.17966739710E+03  0.79157163824E+02 0.  0.
          5    1    5    5  501    0 -0.67238613926E+01  0.35700070817E+02 -0.47123793099E+01  0.36932396174E+02  0.47000000000E+01 0. -1.
        -11    1    6    6    0    0 -0.21983430071E+02 -0.86900515988E+02  0.14606774515E+01  0.89649899360E+02  0.00000000000E+00 0.  1.
         12    1    6    6    0    0  0.35492384487E+02 -0.64930606513E+02  0.51258724921E+02  0.90017497740E+02  0.00000000000E+00 0. -1.
         -5    1    3    3    0  503  0.54612856090E+02  0.45578547312E+02 -0.65383320794E+02  0.96731776906E+02  0.47000000000E+01 0.  1.
         11    1    4    4    0    0 -0.57514305837E+02  0.17154204110E+02  0.19720564003E+02  0.63174858442E+02  0.00000000000E+00 0. -1.
        -12    1    4    4    0    0 -0.38836432761E+01  0.53398300262E+02 -0.28154064805E+02  0.60490598617E+02  0.00000000000E+00 0.  1.
</event>
<event>
12    1  0.8451514E-002  0.2891291E+03  0.7818608E-02  0.1090839E+00
         21   -1    0    0  503  502  0.00000000000E+00  0.00000000000E+00  0.34122016179E+03  0.34122016179E+03  0.00000000000E+00 0. -1.
         21   -1    0    0  501  503 -0.00000000000E+00 -0.00000000000E+00 -0.43730669395E+03  0.43730669395E+03  0.00000000000E+00 0.  1.
          6    2    1    2  501    0  0.19520209800E+03  0.12527262161E+03 -0.30632074852E+03  0.42104386400E+03  0.17218724010E+03 0.  0.
         24    2    3    3    0    0  0.17536237239E+03  0.10242643376E+03 -0.15743166224E+03  0.26903855809E+03  0.79711238116E+02 0.  0.
         -6    2    1    2    0  502 -0.19520209800E+03 -0.12527262161E+03  0.21023421635E+03  0.35748299175E+03  0.17262263721E+03 0.  0.
        -24    2    5    5    0    0 -0.11429499003E+03  0.14568879950E+01  0.99421452837E+02  0.17064646619E+03  0.78550136031E+02 0.  0.
          5    1    3    3  501    0  0.19839725609E+02  0.22846187851E+02 -0.14888908628E+03  0.15200530591E+03  0.47000000000E+01 0. -1.
        -11    1    4    4    0    0  0.97342141953E+02  0.52085291563E+02 -0.13334020130E+03  0.17311262080E+03  0.00000000000E+00 0.  1.
         12    1    4    4    0    0  0.78020230435E+02  0.50341142193E+02 -0.24091460934E+02  0.95925937286E+02  0.00000000000E+00 0. -1.
         -5    1    5    5    0  502 -0.80907107964E+02 -0.12672950960E+03  0.11081276352E+03  0.18683652556E+03  0.47000000000E+01 0.  1.
         11    1    6    6    0    0 -0.73853810395E+02 -0.37148511671E+02  0.62667229165E+02  0.10373802987E+03  0.00000000000E+00 0. -1.
        -12    1    6    6    0    0 -0.40441179638E+02  0.38605399666E+02  0.36754223672E+02  0.66908436326E+02  0.00000000000E+00 0.  1.
</event>
<event>
12    1  0.8451514E-002  0.2268896E+03  0.7818608E-02  0.1129093E+00
         21   -1    0    0  501  502  0.00000000000E+00  0.00000000000E+00  0.35140988805E+03  0.35140988805E+03  0.00000000000E+00 0.  1.
         21   -1    0    0  502  503 -0.00000000000E+00 -0.00000000000E+00 -0.15696852523E+03  0.15696852523E+03  0.00000000000E+00 0. -1.
         -6    2    1    2    0  503 -0.42808117447E+02  0.14193739837E+03  0.28588757877E+02  0.22733397722E+03  0.16995487680E+03 0.  0.
        -24    2    3    3    0    0  0.50913699788E+02  0.98316937324E+02  0.25216316378E+02  0.12379660712E+03  0.49308339366E+02 0.  0.
          6    2    1    2  501    0  0.42808117447E+02 -0.14193739837E+03  0.16585260494E+03  0.28104443606E+03  0.17175601445E+03 0.  0.
         24    2    5    5    0    0  0.34458198092E+02 -0.17262552625E+03  0.11959559821E+03  0.22471253552E+03  0.72150376155E+02 0.  0.
          5    1    5    5  501    0  0.83499193550E+01  0.30688127888E+02  0.46257006734E+02  0.56331900541E+02  0.47000000000E+01 0. -1.
        -13    1    6    6    0    0  0.15973522802E+02 -0.95955189465E+02  0.10740604176E+03  0.14490897012E+03  0.00000000000E+00 0.  1.
         14    1    6    6    0    0  0.18484675291E+02 -0.76670336789E+02  0.12189556451E+02  0.79803565399E+02  0.00000000000E+00 0. -1.
         -5    1    3    3    0  503 -0.93721817235E+02  0.43620461042E+02  0.33724414993E+01  0.10353737011E+03  0.47000000000E+01 0.  1.
         13    1    4    4    0    0  0.30342644974E+01  0.20043833070E+02 -0.13341659947E+02  0.24268537148E+02  0.00000000000E+00 0. -1.
        -14    1    4    4    0    0  0.47879435290E+02  0.78273104254E+02  0.38557976325E+02  0.99528069968E+02  0.00000000000E+00 0.  1.
</event>
<event>
12    1  0.8451514E-002  0.1943188E+03  0.7818608E-02  0.1154942E+00
         21   -1    0    0  501  502  0.00000000000E+00  0.00000000000E+00  0.16341686185E+03  0.16341686185E+03  0.00000000000E+00 0.  1.
         21   -1    0    0  502  503 -0.00000000000E+00 -0.00000000000E+00 -0.50786245038E+03  0.50786245038E+03  0.00000000000E+00 0.  1.
         -6    2    1    2    0  503  0.20171110194E+02 -0.87191035090E+02 -0.42107224090E+03  0.46374738908E+03  0.17248379209E+03 0.  0.
        -24    2    3    3    0    0  0.47238330193E+02 -0.34859454552E+02 -0.37971309993E+03  0.39160934598E+03  0.75691480300E+02 0.  0.
          6    2    1    2  501    0 -0.20171110194E+02  0.87191035090E+02  0.76626652367E+02  0.20753192315E+03  0.17084702218E+03 0.  0.
         24    2    5    5    0    0  0.33169039410E+02  0.82708118485E+02  0.82587574745E+02  0.15346815805E+03  0.93760066096E+02 0.  0.
          5    1    5    5  501    0 -0.53340149604E+02  0.44829166043E+01 -0.59609223780E+01  0.54063765099E+02  0.47000000000E+01 0. -1.
        -13    1    6    6    0    0  0.39473663458E+02  0.87092649071E+02  0.29845747930E+02  0.10017019666E+03  0.00000000000E+00 0.  1.
         14    1    6    6    0    0 -0.63046240479E+01 -0.43845305855E+01  0.52741826815E+02  0.53297961392E+02  0.00000000000E+00 0. -1.
         -5    1    3    3    0  503 -0.27067219999E+02 -0.52331580538E+02 -0.41359140965E+02  0.72138043094E+02  0.47000000000E+01 0.  1.
         11    1    4    4    0    0  0.44736711284E+02 -0.25606316718E+01 -0.94760726811E+02  0.10482139818E+03  0.00000000000E+00 0. -1.
        -12    1    4    4    0    0  0.25016189095E+01 -0.32298822880E+02 -0.28495237312E+03  0.28678794780E+03  0.00000000000E+00 0.  1.
</event>
<event>
12    1  0.8451514E-002  0.2559768E+03  0.7818608E-02  0.1110547E+00
         21   -1    0    0  501  502  0.00000000000E+00  0.00000000000E+00  0.29744418205E+02  0.29744418205E+02  0.00000000000E+00 0. -1.
         21   -1    0    0  502  503 -0.00000000000E+00 -0.00000000000E+00 -0.22967519327E+04  0.22967519327E+04  0.00000000000E+00 0. -1.
         -6    2    1    2    0  503  0.65709702526E+02 -0.16845770310E+03 -0.82639279956E+03  0.86331664119E+03  0.17232179509E+03 0.  0.
        -24    2    3    3    0    0  0.98634632325E+02 -0.17026486749E+03 -0.65467107672E+03  0.68839449583E+03  0.81079266115E+02 0.  0.
          6    2    1    2  501    0 -0.65709702526E+02  0.16845770310E+03 -0.14406147149E+04  0.14631797097E+04  0.18118593566E+03 0.  0.
         24    2    5    5    0    0  0.34845444719E+02  0.78904992723E+02 -0.62485956226E+03  0.63637284914E+03  0.84147059830E+02 0.  0.
          5    1    5    5  501    0 -0.10055514724E+03  0.89552710372E+02 -0.81575515269E+03  0.82680686058E+03  0.47000000000E+01 0. -1.
        -11    1    6    6    0    0  0.65829179149E+01  0.13992798340E+02 -0.12363794476E+02  0.19798904704E+02  0.00000000000E+00 0.  1.
         12    1    6    6    0    0  0.28262526804E+02  0.64912194383E+02 -0.61249576779E+03  0.61657394444E+03  0.00000000000E+00 0. -1.
         -5    1    3    3    0  503 -0.32924929799E+02  0.18071643990E+01 -0.17172172283E+03  0.17492214536E+03  0.47000000000E+01 0.  1.
         11    1    4    4    0    0  0.77534584280E+01 -0.38347672232E+02 -0.53705547421E+02  0.66445059313E+02  0.00000000000E+00 0. -1.
        -12    1    4    4    0    0  0.90881173897E+02 -0.13191719526E+03 -0.60096552930E+03  0.62194943652E+03  0.00000000000E+00 0.  1.
</event>
<event>
12    1  0.8451514E-002  0.4310857E+03  0.7818608E-02  0.1033659E+00
         21   -1    0    0  501  502  0.00000000000E+00  0.00000000000E+00  0.98229855123E+02  0.98229855123E+02  0.00000000000E+00 0.  1.
         21   -1    0    0  502  503 -0.00000000000E+00 -0.00000000000E+00 -0.18907803355E+04  0.18907803355E+04  0.00000000000E+00 0. -1.
         -6    2    1    2    0  503  0.25579773873E+03  0.30057617848E+03 -0.83853428936E+03  0.94285452519E+03  0.17336775663E+03 0.  0.
        -24    2    3    3    0    0  0.10696109379E+03  0.21491072823E+03 -0.56527922626E+03  0.62008318856E+03  0.85646134761E+02 0.  0.
          6    2    1    2  501    0 -0.25579773873E+03 -0.30057617848E+03 -0.95401619098E+03  0.10461556654E+04  0.16886758533E+03 0.  0.
         24    2    5    5    0    0 -0.21915453982E+03 -0.29099316855E+03 -0.92864284424E+03  0.10003249461E+04  0.74610516479E+02 0.  0.
          5    1    5    5  501    0 -0.36643198913E+02 -0.95830099266E+01 -0.25373346733E+02  0.45830719286E+02  0.47000000000E+01 0. -1.
        -11    1    6    6    0    0 -0.78101793302E+02 -0.11593695437E+03 -0.26455958528E+03  0.29922072399E+03  0.00000000000E+00 0.  1.
         12    1    6    6    0    0 -0.14105274651E+03 -0.17505621418E+03 -0.66408325896E+03  0.70110422211E+03  0.00000000000E+00 0. -1.
         -5    1    3    3    0  503  0.14883664494E+03  0.85665450242E+02 -0.27325506310E+03  0.32277133663E+03  0.47000000000E+01 0.  1.
         13    1    4    4    0    0  0.10938680967E+03  0.13339062130E+03 -0.40631368761E+03  0.44141742685E+03  0.00000000000E+00 0. -1.
        -14    1    4    4    0    0 -0.24257158833E+01  0.81520106930E+02 -0.15896553865E+03  0.17866576172E+03  0.00000000000E+00 0.  1.
</event>
<event>
12    1  0.8451514E-002  0.2062663E+03  0.7818608E-02  0.1145008E+00
         21   -1    0    0  503  502  0.00000000000E+00  0.00000000000E+00  0.10233097829E+04  0.10233097829E+04  0.00000000000E+00 0. -1.
         21   -1    0    0  501  503 -0.00000000000E+00 -0.00000000000E+00 -0.14237150573E+03  0.14237150573E+03  0.00000000000E+00 0. -1.
          6    2    1    2  501    0 -0.10899220257E+03 -0.23130009420E+02 -0.51703463842E+02  0.21050256463E+03  0.17094965337E+03 0.  0.
         24    2    3    3    0    0 -0.56200020870E+02  0.25075428749E+00 -0.96836952787E+02  0.13706690310E+03  0.79066018473E+02 0.  0.
         -6    2    1    2    0  502  0.10899220257E+03  0.23130009420E+02  0.93264174097E+03  0.95517872395E+03  0.17358421624E+03 0.  0.
        -24    2    5    5    0    0  0.59336879139E+02 -0.53649545150E+02  0.43806285115E+03  0.45219649822E+03  0.78635059120E+02 0.  0.
          5    1    3    3  501    0 -0.52792181699E+02 -0.23380763708E+02  0.45133488944E+02  0.73435661530E+02  0.47000000000E+01 0. -1.
        -11    1    4    4    0    0 -0.18755148114E+02  0.13625713576E+01  0.11767575248E+02  0.22183056793E+02  0.00000000000E+00 0.  1.
         12    1    4    4    0    0 -0.37444872756E+02 -0.11118170702E+01 -0.10860452803E+03  0.11488384631E+03  0.00000000000E+00 0. -1.
         -5    1    5    5    0  502  0.49655323430E+02  0.76779554570E+02  0.49457888982E+03  0.50298222573E+03  0.47000000000E+01 0.  1.
         13    1    6    6    0    0  0.36268233713E+02 -0.61003790553E+02  0.40524939965E+03  0.41141696994E+03  0.00000000000E+00 0. -1.
        -14    1    6    6    0    0  0.23068645426E+02  0.73542454034E+01  0.32813451501E+02  0.40779528279E+02  0.00000000000E+00 0.  1.
</event>
<event>
12    1  0.8451514E-002  0.1728353E+03  0.7818608E-02  0.1180825E+00
         21   -1    0    0  503  502  0.00000000000E+00  0.00000000000E+00  0.71355048890E+03  0.71355048890E+03  0.00000000000E+00 0.  1.
         21   -1    0    0  501  503 -0.00000000000E+00 -0.00000000000E+00 -0.55310957611E+02  0.55310957611E+02  0.00000000000E+00 0.  1.
          6    2    1    2  501    0 -0.27889900672E+01  0.17245546662E+02  0.12165408249E+03  0.21135693566E+03  0.17195014139E+03 0.  0.
         24    2    3    3    0    0 -0.62679356756E+02  0.35233550734E+02  0.91413841424E+02  0.14173663336E+03  0.81010357196E+02 0.  0.
         -6    2    1    2    0  502  0.27889900672E+01 -0.17245546662E+02  0.53658544880E+03  0.55750451085E+03  0.15027357853E+03 0.  0.
        -24    2    5    5    0    0  0.49080093684E+01 -0.61636010153E+02  0.44037393894E+03  0.45142082632E+03  0.77643222754E+02 0.  0.
          5    1    3    3  501    0  0.59890366689E+02 -0.17988004073E+02  0.30240241063E+02  0.69620302299E+02  0.47000000000E+01 0. -1.
        -11    1    4    4    0    0 -0.10891570658E+02 -0.12966491081E+02 -0.87861354165E+01  0.19077535949E+02  0.00000000000E+00 0.  1.
         12    1    4    4    0    0 -0.51787786099E+02  0.48200041815E+02  0.10019997684E+03  0.12265909742E+03  0.00000000000E+00 0. -1.
         -5    1    5    5    0  502 -0.21190193012E+01  0.44390463491E+02  0.96211509864E+02  0.10608368452E+03  0.47000000000E+01 0.  1.
         13    1    6    6    0    0  0.63615588863E+01 -0.70741048402E+02  0.22710379669E+03  0.23795146528E+03  0.00000000000E+00 0. -1.
        -14    1    6    6    0    0 -0.14535495179E+01  0.91050382489E+01  0.21327014225E+03  0.21346936104E+03  0.00000000000E+00 0.  1.
</event>
<event>
12    1  0.8451514E-002  0.2007794E+03  0.7818608E-02  0.1149250E+00
         21   -1    0    0  503  502  0.00000000000E+00  0.00000000000E+00  0.35905973367E+03  0.35905973367E+03  0.00000000000E+00 0.  1.
         21   -1    0    0  501  503 -0.00000000000E+00 -0.00000000000E+00 -0.14403104791E+03  0.14403104791E+03  0.00000000000E+00 0.  1.
          6    2    1    2  501    0  0.25363685257E+02 -0.99439582386E+02  0.22662257384E+03  0.30277079668E+03  0.17257119479E+03 0.  0.
         24    2    3    3    0    0  0.49179140579E+02 -0.51288318138E+02  0.49810805121E+02  0.11791893242E+03  0.79841586099E+02 0.  0.
         -6    2    1    2    0  502 -0.25363685257E+02  0.99439582386E+02 -0.11593888082E+02  0.20031998490E+03  0.17164536415E+03 0.  0.
        -24    2    5    5    0    0 -0.70694786333E+02  0.10483906786E+03 -0.26006452791E+02  0.15221722833E+03  0.80652129848E+02 0.  0.
          5    1    3    3  501    0 -0.23815455322E+02 -0.48151264247E+02  0.17681176872E+03  0.18485186426E+03  0.47000000000E+01 0. -1.
        -13    1    4    4    0    0 -0.19250191979E+02 -0.77831401630E+01  0.26265409000E+02  0.33481619913E+02  0.00000000000E+00 0.  1.
         14    1    4    4    0    0  0.68429332558E+02 -0.43505177975E+02  0.23545396120E+02  0.84437312507E+02  0.00000000000E+00 0. -1.
         -5    1    5    5    0  502  0.45331101077E+02 -0.53994854720E+01  0.14412564709E+02  0.48102756570E+02  0.47000000000E+01 0.  1.
         13    1    6    6    0    0 -0.66719059145E+02  0.26902100701E+02 -0.12053295904E+02  0.72941331339E+02  0.00000000000E+00 0. -1.
        -14    1    6    6    0    0 -0.39757271881E+01  0.77936967156E+02 -0.13953156886E+02  0.79275896988E+02  0.00000000000E+00 0.  1.
</event>
<event>
12    1  0.8451514E-002  0.1777699E+03  0.7818608E-02  0.1170261E+00
         21   -1    0    0  503  502  0.00000000000E+00  0.00000000000E+00  0.75728973537E+03  0.75728973537E+03  0.00000000000E+00 0.  1.
         21   -1    0    0  501  503 -0.00000000000E+00 -0.00000000000E+00 -0.43848171683E+02  0.43848171683E+02  0.00000000000E+00 0.  1.
          6    2    1    2  501    0  0.73967891106E+01  0.43524172405E+02  0.26437629411E+03  0.31858586804E+03  0.17220065143E+03 0.  0.
         24    2    3    3    0    0 -0.55564022077E+01 -0.33631068188E+02  0.18544699285E+03  0.20735349454E+03  0.86272603922E+02 0.  0.
         -6    2    1    2    0  502 -0.73967891106E+01 -0.43524172405E+02  0.44906526958E+03  0.48255203902E+03  0.17101984664E+03 0.  0.
        -24    2    5    5    0    0 -0.43883358329E+01  0.41509602960E+02  0.26915236966E+03  0.28347784355E+03  0.78577255369E+02 0.  0.
          5    1    3    3  501    0  0.12953191318E+02  0.77155240593E+02  0.78929301260E+02  0.11123237350E+03  0.47000000000E+01 0. -1.
        -13    1    4    4    0    0 -0.11658504068E+02  0.28256678487E+02  0.59891561696E+02  0.67241057090E+02  0.00000000000E+00 0.  1.
         14    1    4    4    0    0  0.61021018603E+01 -0.61887746675E+02  0.12555543116E+03  0.14011243745E+03  0.00000000000E+00 0. -1.
         -5    1    5    5    0  502 -0.30084532776E+01 -0.85033775365E+02  0.17991289992E+03  0.19907419546E+03  0.47000000000E+01 0.  1.
         11    1    6    6    0    0 -0.19448647750E+02  0.91601872210E+01  0.22799208682E+03  0.22900338553E+03  0.00000000000E+00 0. -1.
        -12    1    6    6    0    0  0.15060311917E+02  0.32349415739E+02  0.41160282839E+02  0.54474458024E+02  0.00000000000E+00 0.  1.
</event>
<event>
12    1  0.8451514E-002  0.2831237E+03  0.7818608E-02  0.1094071E+00
         21   -1    0    0  501  502  0.00000000000E+00  0.00000000000E+00  0.46401085443E+03  0.46401085443E+03  0.00000000000E+00 0.  1.
         21   -1    0    0  502  503 -0.00000000000E+00 -0.00000000000E+00 -0.18217228258E+03  0.18217228258E+03  0.00000000000E+00 0.  1.
         -6    2    1    2    0  503  0.15742777595E+03 -0.15991683162E+03  0.66249990616E+02  0.29077154359E+03  0.17263293901E+03 0.  0.
        -24    2    3    3    0    0  0.26276471689E+02 -0.53958990912E+02  0.67980890974E+02  0.12209192232E+03  0.81749680693E+02 0.  0.
          6    2    1    2  501    0 -0.15742777595E+03  0.15991683162E+03  0.21558858124E+03  0.35541159342E+03  0.17170342658E+03 0.  0.
         24    2    5    5    0    0 -0.58605469839E+01  0.77802472362E+02  0.66448517275E+02  0.12741983574E+03  0.75715509470E+02 0.  0.
          5    1    5    5  501    0 -0.15156722896E+03  0.82114359257E+02  0.14914006397E+03  0.22799175768E+03  0.47000000000E+01 0. -1.
        -11    1    6    6    0    0 -0.28290695083E+02  0.31247401208E+02  0.62773379385E+02  0.75612569523E+02  0.00000000000E+00 0.  1.
         12    1    6    6    0    0  0.22430148099E+02  0.46555071154E+02  0.36751378897E+01  0.51807266213E+02  0.00000000000E+00 0. -1.
         -5    1    3    3    0  503  0.13115130426E+03 -0.10595784071E+03 -0.17309003576E+01  0.16867962127E+03  0.47000000000E+01 0.  1.
         11    1    4    4    0    0 -0.19853527010E+02 -0.36216384491E+02  0.43625680849E+01  0.41530964841E+02  0.00000000000E+00 0. -1.
        -12    1    4    4    0    0  0.46129998699E+02 -0.17742606421E+02  0.63618322889E+02  0.80560957478E+02  0.00000000000E+00 0.  1.
</event>
<event>
12    1  0.8451514E-002  0.2266614E+03  0.7818608E-02  0.1129746E+00
         21   -1    0    0  501  502  0.00000000000E+00  0.00000000000E+00  0.51436050172E+02  0.51436050172E+02  0.00000000000E+00 0.  1.
         21   -1    0    0  502  503 -0.00000000000E+00 -0.00000000000E+00 -0.16661024540E+04  0.16661024540E+04  0.00000000000E+00 0.  1.
         -6    2    1    2    0  503 -0.10354651883E+03  0.10579945026E+03 -0.13622855253E+04  0.13810131250E+04  0.17163913803E+03 0.  0.
        -24    2    3    3    0    0 -0.84406177094E+02  0.26687354158E+02 -0.46411778672E+03  0.47915257421E+03  0.79657088903E+02 0.  0.
          6    2    1    2  501    0  0.10354651883E+03 -0.10579945026E+03 -0.25238087855E+03  0.33652537921E+03  0.16624625637E+03 0.  0.
         24    2    5    5    0    0  0.95416631214E+02 -0.95776340956E+02 -0.10677636131E+03  0.19027448782E+03  0.80782104328E+02 0.  0.
          5    1    5    5  501    0  0.81298876127E+01 -0.10023109305E+02 -0.14560451724E+03  0.14625089139E+03  0.47000000000E+01 0. -1.
        -11    1    6    6    0    0  0.23442486245E+02 -0.74951286199E+02 -0.75963314826E+02  0.10925964792E+03  0.00000000000E+00 0.  1.
         12    1    6    6    0    0  0.71974144969E+02 -0.20825054757E+02 -0.30813046484E+02  0.81014839896E+02  0.00000000000E+00 0. -1.
         -5    1    3    3    0  503 -0.19140341733E+02  0.79112096104E+02 -0.89816773856E+03  0.90186055076E+03  0.47000000000E+01 0.  1.
         11    1    4    4    0    0 -0.69459354165E+02 -0.15954074231E+02 -0.33065740235E+03  0.33825057589E+03  0.00000000000E+00 0. -1.
        -12    1    4    4    0    0 -0.14946822929E+02  0.42641428389E+02 -0.13346038438E+03  0.14090199832E+03  0.00000000000E+00 0.  1.
</event>
<event>
12    1  0.8451514E-002  0.1721222E+03  0.7818608E-02  0.1175768E+00
         21   -1    0    0  501  502  0.00000000000E+00  0.00000000000E+00  0.36004445661E+03  0.36004445661E+03  0.00000000000E+00 0. -1.
         21   -1    0    0  502  503 -0.00000000000E+00 -0.00000000000E+00 -0.10409881172E+03  0.10409881172E+03  0.00000000000E+00 0. -1.
         -6    2    1    2    0  503 -0.26647816929E+01 -0.71139547363E+01  0.21347542205E+02  0.17344100568E+03  0.17195451573E+03 0.  0.
        -24    2    3    3    0    0  0.56991681084E+02 -0.25378161899E+02  0.34568127461E+02  0.10949299016E+03  0.83076209855E+02 0.  0.
          6    2    1    2  501    0  0.26647816929E+01  0.71139547363E+01  0.23459810269E+03  0.29070226265E+03  0.17150459560E+03 0.  0.
         24    2    5    5    0    0 -0.59577020676E+02  0.23417069313E+02  0.17626619981E+03  0.20372793080E+03  0.79608517537E+02 0.  0.
          5    1    5    5  501    0  0.62241802369E+02 -0.16303114577E+02  0.58331902878E+02  0.86974331848E+02  0.47000000000E+01 0. -1.
        -11    1    6    6    0    0  0.16055536268E+02  0.94835935714E+00  0.81778415049E+01  0.18043190461E+02  0.00000000000E+00 0.  1.
         12    1    6    6    0    0 -0.75632556944E+02  0.22468709956E+02  0.16808835830E+03  0.18568474034E+03  0.00000000000E+00 0. -1.
         -5    1    3    3    0  503 -0.59656462777E+02  0.18264207163E+02 -0.13220585256E+02  0.63948015519E+02  0.47000000000E+01 0.  1.
         11    1    4    4    0    0 -0.12498097192E+02 -0.24794934574E+02 -0.68432220566E+01  0.28597568115E+02  0.00000000000E+00 0. -1.
        -12    1    4    4    0    0  0.69489778276E+02 -0.58322732477E+00  0.41411349517E+02  0.80895422045E+02  0.00000000000E+00 0.  1.
</event>
<event>
12    1  0.8451514E-002  0.2108068E+03  0.7818608E-02  0.1141296E+00
         21   -1    0    0  501  502  0.00000000000E+00  0.00000000000E+00  0.93150068672E+02  0.93150068672E+02  0.00000000000E+00 0.  1.
         21   -1    0    0  502  503 -0.00000000000E+00 -0.00000000000E+00 -0.48941608700E+03  0.48941608700E+03  0.00000000000E+00 0.  1.
         -6    2    1    2    0  503  0.11069918542E+03  0.39849627701E+02 -0.14543919509E+03  0.25610946871E+03  0.17492054772E+03 0.  0.
        -24    2    3    3    0    0 -0.40579716881E+01  0.24508545245E+02 -0.20374604435E+02  0.85616666064E+02  0.79359643887E+02 0.  0.
          6    2    1    2  501    0 -0.11069918542E+03 -0.39849627701E+02 -0.25082682323E+03  0.32645668696E+03  0.17267764976E+03 0.  0.
         24    2    5    5    0    0 -0.14141532355E+03 -0.49766707158E+02 -0.17308627658E+03  0.24215062430E+03  0.78759423774E+02 0.  0.
          5    1    5    5  501    0  0.30716138134E+02  0.99170794577E+01 -0.77740546652E+02  0.84306062656E+02  0.47000000000E+01 0. -1.
        -13    1    6    6    0    0 -0.15078843792E+03 -0.52324058875E+02 -0.16403294946E+03  0.22887063738E+03  0.00000000000E+00 0.  1.
         14    1    6    6    0    0  0.93731143649E+01  0.25573517170E+01 -0.90533271208E+01  0.13279986922E+02  0.00000000000E+00 0. -1.
         -5    1    3    3    0  503  0.11475715711E+03  0.15341082455E+02 -0.12506459066E+03  0.17049280265E+03  0.47000000000E+01 0.  1.
         13    1    4    4    0    0  0.26775319924E+02  0.12969426058E+01  0.17121122957E+02  0.31807745416E+02  0.00000000000E+00 0. -1.
        -14    1    4    4    0    0 -0.30833291612E+02  0.23211602640E+02 -0.37495727392E+02  0.53808920648E+02  0.00000000000E+00 0.  1.
</event>
<event>
12    1  0.8451514E-002  0.2335559E+03  0.7818608E-02  0.1124634E+00
         21   -1    0    0  503  502  0.00000000000E+00  0.00000000000E+00  0.34462935660E+03  0.34462935660E+03  0.00000000000E+00 0.  1.
         21   -1    0    0  501  503 -0.00000000000E+00 -0.00000000000E+00 -0.17123944855E+03  0.17123944855E+03  0.00000000000E+00 0. -1.
          6    2    1    2  501    0  0.13670537657E+03  0.78633736916E+02  0.11343167560E+02  0.23383116621E+03  0.17226933063E+03 0.  0.
         24    2    3    3    0    0  0.10738512558E+03  0.90462703229E+02  0.58827734361E+02  0.17659065917E+03  0.89490182159E+02 0.  0.
         -6    2    1    2    0  502 -0.13670537657E+03 -0.78633736916E+02  0.16204674049E+03  0.28203763894E+03  0.16856588952E+03 0.  0.
        -24    2    5    5    0    0 -0.13626165481E+03 -0.87261710583E+02  0.76515002859E+02  0.19594230247E+03  0.79730769031E+02 0.  0.
          5    1    3    3  501    0  0.29320250989E+02 -0.11828966313E+02 -0.47484566801E+02  0.57240507041E+02  0.47000000000E+01 0. -1.
        -11    1    4    4    0    0  0.29435570889E+02 -0.65231950383E+00  0.47847131493E+02  0.56180302121E+02  0.00000000000E+00 0.  1.
         12    1    4    4    0    0  0.77949554694E+02  0.91115022733E+02  0.10980602868E+02  0.12041035705E+03  0.00000000000E+00 0. -1.
         -5    1    5    5    0  502 -0.44372176280E+00  0.86279736676E+01  0.85531737636E+02  0.86095336469E+02  0.47000000000E+01 0.  1.
         13    1    6    6    0    0 -0.83744875818E+02 -0.83859649130E+02  0.22694015130E+02  0.12066757353E+03  0.00000000000E+00 0. -1.
        -14    1    6    6    0    0 -0.52516778992E+02 -0.34020614530E+01  0.53820987729E+02  0.75274728946E+02  0.00000000000E+00 0.  1.
</event>
<event>
12    1  0.8451514E-002  0.1820738E+03  0.7818608E-02  0.1167022E+00
         21   -1    0    0  501  502  0.00000000000E+00  0.00000000000E+00  0.36242982960E+03  0.36242982960E+03  0.00000000000E+00 0. -1.
         21   -1    0    0  502  503 -0.00000000000E+00 -0.00000000000E+00 -0.11123036827E+03  0.11123036827E+03  0.00000000000E+00 0. -1.
         -6    2    1    2    0  503  0.14902213123E+02  0.40288088647E+02  0.21064573579E+02  0.18328822699E+03  0.17693403248E+03 0.  0.
        -24    2    3    3    0    0  0.29813349490E+02  0.75099579059E+02 -0.36392987865E+02  0.11431255578E+03  0.72208920915E+02 0.  0.
          6    2    1    2  501    0 -0.14902213123E+02 -0.40288088647E+02  0.23013488775E+03  0.29037197088E+03  0.17178069994E+03 0.  0.
         24    2    5    5    0    0 -0.67593126731E+00 -0.16297907296E+02  0.24567566299E+03  0.25809935723E+03  0.77412325570E+02 0.  0.
          5    1    5    5  501    0 -0.14226281855E+02 -0.23990181351E+02 -0.15540775245E+02  0.32272613652E+02  0.47000000000E+01 0. -1.
        -13    1    6    6    0    0  0.30328160866E+02 -0.32222329789E+02  0.13919193449E+03  0.14605639495E+03  0.00000000000E+00 0.  1.
         14    1    6    6    0    0 -0.31004092133E+02  0.15924422493E+02  0.10648372850E+03  0.11204296228E+03  0.00000000000E+00 0. -1.
         -5    1    3    3    0  503 -0.14911136368E+02 -0.34811490412E+02  0.57457561444E+02  0.68975671215E+02  0.47000000000E+01 0.  1.
         11    1    4    4    0    0  0.48106249147E+01 -0.14233398457E+02 -0.93057939650E+01  0.17672847677E+02  0.00000000000E+00 0. -1.
        -12    1    4    4    0    0  0.25002724576E+02  0.89332977516E+02 -0.27087193900E+02  0.96639708099E+02  0.00000000000E+00 0.  1.
</event>
<event>
12    1  0.8451514E-002  0.2274082E+03  0.7818608E-02  0.1131544E+00
         21   -1    0    0  503  502  0.00000000000E+00  0.00000000000E+00  0.12239200294E+03  0.12239200294E+03  0.00000000000E+00 0. -1.
         21   -1    0    0  501  503 -0.00000000000E+00 -0.00000000000E+00 -0.40268174069E+03  0.40268174069E+03  0.00000000000E+00 0.  1.
          6    2    1    2  501    0 -0.10959258531E+03 -0.94241978983E+02 -0.18713507856E+03  0.29450641589E+03  0.17556311119E+03 0.  0.
         24    2    3    3    0    0 -0.45975659267E+02 -0.16595706526E+02 -0.14649846139E+02  0.94883515621E+02  0.79994279949E+02 0.  0.
         -6    2    1    2    0  502  0.10959258531E+03  0.94241978983E+02 -0.93154659194E+02  0.23056732774E+03  0.15359497627E+03 0.  0.
        -24    2    5    5    0    0  0.32086992057E+02  0.28632999048E+02 -0.90471465782E+02  0.12887689180E+03  0.81084791586E+02 0.  0.
          5    1    3    3  501    0 -0.63616926047E+02 -0.77646272457E+02 -0.17248523243E+03  0.19962290027E+03  0.47000000000E+01 0. -1.
        -11    1    4    4    0    0 -0.50632137972E+02  0.20941570245E+02 -0.15853343302E+02  0.57039383358E+02  0.00000000000E+00 0.  1.
         12    1    4    4    0    0  0.46564787053E+01 -0.37537276771E+02  0.12034971634E+01  0.37844132263E+02  0.00000000000E+00 0. -1.
         -5    1    5    5    0  502  0.77505593258E+02  0.65608979935E+02 -0.26831934123E+01  0.10169043594E+03  0.47000000000E+01 0.  1.
         11    1    6    6    0    0 -0.26843321787E+02  0.14990509704E+02 -0.24006410097E+02  0.39007525319E+02  0.00000000000E+00 0. -1.
        -12    1    6    6    0    0  0.58930313844E+02  0.13642489344E+02 -0.66465055685E+02  0.89869366485E+02  0.00000000000E+00 0.  1.
</event>
<event>
12    1  0.8451514E-002  0.2719567E+03  0.7818608E-02  0.1100369E+00
         21   -1    0    0  501  502  0.00000000000E+00  0.00000000000E+00  0.58181715659E+02  0.58181715659E+02  0.00000000000E+00 0. -1.
         21   -1    0    0  502  503 -0.00000000000E+00 -0.00000000000E+00 -0.12767043263E+04  0.12767043263E+04  0.00000000000E+00 0.  1.
         -6    2    1    2    0  503  0.19995985408E+03 -0.60739381038E+02 -0.67608507256E+03  0.72873280109E+03  0.17403233721E+03 0.  0.
        -24    2    3    3    0    0  0.56484110250E+02 -0.36582695182E+02 -0.14811499045E+03  0.18106197647E+03  0.79477296315E+02 0.  0.
          6    2    1    2  501    0 -0.19995985408E+03  0.60739381038E+02 -0.54243753806E+03  0.60615324085E+03  0.17178490342E+03 0.  0.
         24    2    5    5    0    0 -0.28415255521E+02  0.18072246016E+02 -0.24917288736E+03  0.26369991694E+03  0.79476320859E+02 0.  0.
          5    1    5    5  501    0 -0.17154459856E+03  0.42667135022E+02 -0.29326465071E+03  0.34245332391E+03  0.47000000000E+01 0. -1.
        -11    1    6    6    0    0 -0.32758826187E+02  0.22368630903E+02 -0.25326112899E+03  0.25634877765E+03  0.00000000000E+00 0.  1.
         12    1    6    6    0    0  0.43435706655E+01 -0.42963848871E+01  0.40882416363E+01  0.73511392927E+01  0.00000000000E+00 0. -1.
         -5    1    3    3    0  503  0.14347574383E+03 -0.24156685856E+02 -0.52797008211E+03  0.54767082462E+03  0.47000000000E+01 0.  1.
         11    1    4    4    0    0  0.35899646526E+02 -0.61857303719E+02 -0.10356234531E+03  0.12585813446E+03  0.00000000000E+00 0. -1.
        -12    1    4    4    0    0  0.20584463724E+02  0.25274608537E+02 -0.44552645145E+02  0.55203842012E+02  0.00000000000E+00 0.  1.
</event>
<event>
12    1  0.8451514E-002  0.2275386E+03  0.7818608E-02  0.1128532E+00
         21   -1    0    0  501  502  0.00000000000E+00  0.00000000000E+00  0.12046095412E+03  0.12046095412E+03  0.00000000000E+00 0.  1.
         21   -1    0    0  502  503 -0.00000000000E+00 -0.00000000000E+00 -0.73128614344E+03  0.73128614344E+03  0.00000000000E+00 0.  1.
         -6    2    1    2    0  503 -0.41079051947E+02  0.14266245077E+03 -0.57989168525E+03  0.62293513336E+03  0.17243477140E+03 0.  0.
        -24    2    3    3    0    0  0.32627538202E+01  0.36382016326E+02 -0.39825870634E+03  0.40782038373E+03  0.79832145983E+02 0.  0.
          6    2    1    2  501    0  0.41079051947E+02 -0.14266245077E+03 -0.30933504070E+02  0.22881196419E+03  0.17134167595E+03 0.  0.
         24    2    5    5    0    0  0.36674650548E+01 -0.54952025421E+02  0.49990991600E+02  0.10365762129E+03  0.72198530540E+02 0.  0.
          5    1    5    5  501    0  0.37411586892E+02 -0.87710425350E+02 -0.80924495670E+02  0.12515434291E+03  0.47000000000E+01 0. -1.
        -13    1    6    6    0    0  0.32620631769E+02 -0.39395301224E+02  0.10387750346E+02  0.52191960423E+02  0.00000000000E+00 0.  1.
         14    1    6    6    0    0 -0.28953166714E+02 -0.15556724197E+02  0.39603241254E+02  0.51465660866E+02  0.00000000000E+00 0. -1.
         -5    1    3    3    0  503 -0.44341805767E+02  0.10628043444E+03 -0.18163297891E+03  0.21511474964E+03  0.47000000000E+01 0.  1.
         13    1    4    4    0    0  0.20084912242E+02  0.24453519904E+01 -0.22910582890E+02  0.30565965624E+02  0.00000000000E+00 0. -1.
        -14    1    4    4    0    0 -0.16822158422E+02  0.33936664336E+02 -0.37534812345E+03  0.37725441810E+03  0.00000000000E+00 0.  1.
</event>
<event>
12    1  0.8451514E-002  0.1885734E+03  0.7818608E-02  0.1160278E+00
         21   -1    0    0  501  502  0.00000000000E+00  0.00000000000E+00  0.15797633428E+03  0.15797633428E+03  0.00000000000E+00 0. -1.
         21   -1    0    0  502  503 -0.00000000000E+00 -0.00000000000E+00 -0.23683284685E+03  0.23683284685E+03  0.00000000000E+00 0. -1.
         -6    2    1    2    0  503 -0.65631420785E+02  0.24893914618E+02 -0.87969386731E+02  0.20601567918E+03  0.17255913968E+03 0.  0.
        -24    2    3    3    0    0 -0.98984982311E+02  0.40712711245E+02 -0.10012269790E+03  0.16686868229E+03  0.79781269197E+02 0.  0.
          6    2    1    2  501    0  0.65631420785E+02 -0.24893914618E+02  0.91128741551E+01  0.18879350195E+03  0.17502214581E+03 0.  0.
         24    2    5    5    0    0  0.60577758809E+02  0.30263084182E+02 -0.42895894520E+02  0.11266968153E+03  0.79176260604E+02 0.  0.
          5    1    5    5  501    0  0.50536619764E+01 -0.55156998800E+02  0.52008768675E+02  0.76123820418E+02  0.47000000000E+01 0. -1.
        -11    1    6    6    0    0 -0.14579390579E+02  0.20387294637E+02 -0.23652184707E+02  0.34461953712E+02  0.00000000000E+00 0.  1.
         12    1    6    6    0    0  0.75157149388E+02  0.98757895449E+01 -0.19243709813E+02  0.78207727819E+02  0.00000000000E+00 0. -1.
         -5    1    3    3    0  503  0.33353561526E+02 -0.15818796626E+02  0.12153311168E+02  0.39146996890E+02  0.47000000000E+01 0.  1.
         11    1    4    4    0    0 -0.10091402317E+03  0.10412463540E+02 -0.65207394863E+02  0.12059877203E+03  0.00000000000E+00 0. -1.
        -12    1    4    4    0    0  0.19290408612E+01  0.30300247705E+02 -0.34915303035E+02  0.46269910262E+02  0.00000000000E+00 0.  1.
</event>
<event>
12    1  0.8451514E-002  0.2253278E+03  0.7818608E-02  0.1130092E+00
         21   -1    0    0  503  502  0.00000000000E+00  0.00000000000E+00  0.54421093133E+03  0.54421093133E+03  0.00000000000E+00 0.  1.
         21   -1    0    0  501  503 -0.00000000000E+00 -0.00000000000E+00 -0.94271046413E+02  0.94271046413E+02  0.00000000000E+00 0.  1.
          6    2    1    2  501    0 -0.14509817248E+03  0.93814592680E+01  0.18855849324E+03  0.29381443246E+03  0.17213693361E+03 0.  0.
         24    2    3    3    0    0 -0.82439603586E+01  0.28518851632E+02  0.77669002936E+02  0.11657480872E+03  0.81706329195E+02 0.  0.
         -6    2    1    2    0  502  0.14509817248E+03 -0.93814592680E+01  0.26138139168E+03  0.34466754528E+03  0.17127169475E+03 0.  0.
        -24    2    5    5    0    0  0.69577372227E+02 -0.70123079723E+02  0.13211690449E+03  0.18303730872E+03  0.79306512303E+02 0.  0.
          5    1    3    3  501    0 -0.13685421212E+03 -0.19137392364E+02  0.11088949030E+03  0.17723962373E+03  0.47000000000E+01 0. -1.
        -11    1    4    4    0    0  0.74324832388E+01  0.13007443828E+02 -0.15070129145E+02  0.21249569277E+02  0.00000000000E+00 0.  1.
         12    1    4    4    0    0 -0.15676443597E+02  0.15511407805E+02  0.92739132081E+02  0.95325239444E+02  0.00000000000E+00 0. -1.
         -5    1    5    5    0  502  0.75520800254E+02  0.60741620455E+02  0.12926448718E+03  0.16163023657E+03  0.47000000000E+01 0.  1.
         13    1    6    6    0    0  0.16090250003E+02 -0.70497911516E+01  0.87151694033E+02  0.88904518857E+02  0.00000000000E+00 0. -1.
        -14    1    6    6    0    0  0.53487122224E+02 -0.63073288571E+02  0.44965210460E+02  0.94132789860E+02  0.00000000000E+00 0.  1.
</event>
<event>
12    1  0.8451514E-002  0.2052368E+03  0.7818608E-02  0.1145538E+00
         21   -1    0    0  503  502  0.00000000000E+00  0.00000000000E+00  0.37345414367E+03  0.37345414367E+03  0.00000000000E+00 0. -1.
         21   -1    0    0  501  503 -0.00000000000E+00 -0.00000000000E+00 -0.11242283421E+03  0.11242283421E+03  0.00000000000E+00 0. -1.
          6    2    1    2  501    0  0.62913989520E+02  0.90570531134E+02  0.13346699569E+03  0.24422681876E+03  0.17225594004E+03 0.  0.
         24    2    3    3    0    0  0.78424257967E+01  0.38762156126E+01  0.10375454078E+03  0.13720485162E+03  0.89351205282E+02 0.  0.
         -6    2    1    2    0  502 -0.62913989520E+02 -0.90570531134E+02  0.12756431377E+03  0.24165015912E+03  0.17309232817E+03 0.  0.
        -24    2    5    5    0    0 -0.81701312673E+02 -0.80384075247E+02  0.33219096459E+02  0.14480059834E+03  0.82018295910E+02 0.  0.
          5    1    3    3  501    0  0.55071563723E+02  0.86694315521E+02  0.29712454907E+02  0.10702196714E+03  0.47000000000E+01 0. -1.
        -11    1    4    4    0    0 -0.20313333526E+02  0.12969044073E+02 -0.49003545662E+01  0.24593517397E+02  0.00000000000E+00 0.  1.
         12    1    4    4    0    0  0.28155759323E+02 -0.90928284602E+01  0.10865489535E+03  0.11261133422E+03  0.00000000000E+00 0. -1.
         -5    1    5    5    0  502  0.18787323154E+02 -0.10186455887E+02  0.94345217310E+02  0.96849560784E+02  0.47000000000E+01 0.  1.
         11    1    6    6    0    0 -0.44809903751E+01 -0.53132346794E+02  0.33389438623E+02  0.62912480178E+02  0.00000000000E+00 0. -1.
        -12    1    6    6    0    0 -0.77220322298E+02 -0.27251728453E+02 -0.17034216431E+00  0.81888118161E+02  0.00000000000E+00 0.  1.
</event>
<event>
12    1  0.8451514E-002  0.2170088E+03  0.7818608E-02  0.1138850E+00
         21   -1    0    0  501  502  0.00000000000E+00  0.00000000000E+00  0.17147101267E+03  0.17147101267E+03  0.00000000000E+00 0.  1.
         21   -1    0    0  502  503 -0.00000000000E+00 -0.00000000000E+00 -0.57831801952E+03  0.57831801952E+03  0.00000000000E+00 0. -1.
         -6    2    1    2    0  503 -0.12514293478E+03 -0.96864678777E+01 -0.47963611561E+03  0.52089810747E+03  0.15977938911E+03 0.  0.
        -24    2    3    3    0    0 -0.91761497182E+02  0.15672471197E+02 -0.45627752611E+03  0.47267871438E+03  0.81056692954E+02 0.  0.
          6    2    1    2  501    0  0.12514293478E+03  0.96864678777E+01  0.72789108759E+02  0.22889092472E+03  0.17702604125E+03 0.  0.
         24    2    5    5    0    0  0.14702427392E+03  0.12956407888E+02  0.98616015578E+02  0.19456011310E+03  0.79652454171E+02 0.  0.
          5    1    5    5  501    0 -0.21881339143E+02 -0.32699400098E+01 -0.25826906819E+02  0.34330811615E+02  0.47000000000E+01 0. -1.
        -13    1    6    6    0    0  0.94688164658E+02 -0.72066636040E+01  0.18474296808E+02  0.96742359746E+02  0.00000000000E+00 0.  1.
         14    1    6    6    0    0  0.52336109262E+02  0.20163071492E+02  0.80141718770E+02  0.97817753358E+02  0.00000000000E+00 0. -1.
         -5    1    3    3    0  503 -0.33381437595E+02 -0.25358939075E+02 -0.23358589501E+02  0.48219393094E+02  0.47000000000E+01 0.  1.
         13    1    4    4    0    0 -0.10680184550E+03  0.16164225569E+02 -0.38746996729E+03  0.40224481593E+03  0.00000000000E+00 0. -1.
        -14    1    4    4    0    0  0.15040348314E+02 -0.49175437237E+00 -0.68807558820E+02  0.70433898448E+02  0.00000000000E+00 0.  1.
</event>
<event>
12    1  0.8451514E-002  0.1783565E+03  0.7818608E-02  0.1169494E+00
         21   -1    0    0  503  502  0.00000000000E+00  0.00000000000E+00  0.80810839622E+03  0.80810839622E+03  0.00000000000E+00 0. -1.
         21   -1    0    0  501  503 -0.00000000000E+00 -0.00000000000E+00 -0.77030514415E+02  0.77030514415E+02  0.00000000000E+00 0.  1.
          6    2    1    2  501    0  0.14861987886E+02 -0.40709267378E+02  0.55538744605E+02  0.18645144237E+03  0.17263100844E+03 0.  0.
         24    2    3    3    0    0  0.55806436134E+02 -0.65315863336E+02  0.69035718842E+02  0.13658972639E+03  0.80686445954E+02 0.  0.
         -6    2    1    2    0  502 -0.14861987886E+02  0.40709267378E+02  0.67553913720E+03  0.69868746826E+03  0.17301135596E+03 0.  0.
        -24    2    5    5    0    0 -0.78444692864E+02  0.14665613919E+02  0.41079648385E+03  0.42513346124E+03  0.74940367314E+02 0.  0.
          5    1    3    3  501    0 -0.40944448249E+02  0.24606595958E+02 -0.13496974236E+02  0.49861715981E+02  0.47000000000E+01 0. -1.
        -13    1    4    4    0    0  0.42975498254E+02 -0.43611757065E+02 -0.19501697392E+01  0.61259137820E+02  0.00000000000E+00 0.  1.
         14    1    4    4    0    0  0.12830937880E+02 -0.21704106271E+02  0.70985888581E+02  0.75330588565E+02  0.00000000000E+00 0. -1.
         -5    1    5    5    0  502  0.63582704978E+02  0.26043653459E+02  0.26474265335E+03  0.27355400703E+03  0.47000000000E+01 0.  1.
         13    1    6    6    0    0 -0.37903169678E+02 -0.21550119883E+02  0.28175772398E+03  0.28511133433E+03  0.00000000000E+00 0. -1.
        -14    1    6    6    0    0 -0.40541523186E+02  0.36215733802E+02  0.12903875987E+03  0.14002212691E+03  0.00000000000E+00 0.  1.
</event>
<event>
12    1  0.8451514E-002  0.1975014E+03  0.7818608E-02  0.1151961E+00
         21   -1    0    0  501  502  0.00000000000E+00  0.00000000000E+00  0.14578678214E+04  0.14578678214E+04  0.00000000000E+00 0. -1.
         21   -1    0    0  502  503 -0.00000000000E+00 -0.00000000000E+00 -0.34424129172E+02  0.34424129172E+02  0.00000000000E+00 0.  1.
         -6    2    1    2    0  503 -0.15011180997E+01  0.96929424705E+02  0.35879596315E+03  0.40956240347E+03  0.17207339259E+03 0.  0.
        -24    2    3    3    0    0  0.12961625157E+01 -0.18087080611E+02  0.13605343175E+03  0.15881761975E+03  0.79897919423E+02 0.  0.
          6    2    1    2  501    0  0.15011180997E+01 -0.96929424705E+02  0.10646477291E+04  0.10827295471E+04  0.17155441818E+03 0.  0.
         24    2    5    5    0    0  0.49387761326E+02 -0.92334118577E+02  0.56390032668E+03  0.57965470332E+03  0.83971758487E+02 0.  0.
          5    1    5    5  501    0 -0.47886643226E+02 -0.45953061281E+01  0.50074740244E+03  0.50307484382E+03  0.47000000000E+01 0. -1.
        -11    1    6    6    0    0  0.54529940211E+02 -0.89793612067E+02  0.56421361995E+03  0.57391063423E+03  0.00000000000E+00 0.  1.
         12    1    6    6    0    0 -0.51421788848E+01 -0.25405065100E+01 -0.31329326567E+00  0.57440690874E+01  0.00000000000E+00 0. -1.
         -5    1    3    3    0  503 -0.27972806155E+01  0.11501650532E+03  0.22274253140E+03  0.25074478373E+03  0.47000000000E+01 0.  1.
         13    1    4    4    0    0  0.20557212343E+02 -0.36172321297E+02  0.12198392587E+03  0.12888411065E+03  0.00000000000E+00 0. -1.
        -14    1    4    4    0    0 -0.19261049828E+02  0.18085240687E+02  0.14069505885E+02  0.29933509099E+02  0.00000000000E+00 0.  1.
</event>
<event>
12    1  0.8451514E-002  0.1853642E+03  0.7818608E-02  0.1164964E+00
         21   -1    0    0  501  502  0.00000000000E+00  0.00000000000E+00  0.29079484771E+03  0.29079484771E+03  0.00000000000E+00 0. -1.
         21   -1    0    0  502  503 -0.00000000000E+00 -0.00000000000E+00 -0.11451021997E+03  0.11451021997E+03  0.00000000000E+00 0. -1.
         -6    2    1    2    0  503  0.13536050207E+02  0.63758488630E+02  0.57341418996E+02  0.18506116029E+03  0.16343569130E+03 0.  0.
        -24    2    3    3    0    0 -0.43761791947E+02  0.59190435849E+02  0.66665205908E+01  0.10828912665E+03  0.79142215809E+02 0.  0.
          6    2    1    2  501    0 -0.13536050207E+02 -0.63758488630E+02  0.11894320874E+03  0.22024390738E+03  0.17352671928E+03 0.  0.
         24    2    5    5    0    0 -0.14545477959E+02 -0.15014461392E+02 -0.97051014482E+01  0.82586808579E+02  0.79305655392E+02 0.  0.
          5    1    5    5  501    0  0.10094277514E+01 -0.48744027238E+02  0.12864831019E+03  0.13765709880E+03  0.47000000000E+01 0. -1.
        -13    1    6    6    0    0  0.30248656171E+02 -0.16679945324E+02 -0.14587466445E+02  0.37496612559E+02  0.00000000000E+00 0.  1.
         14    1    6    6    0    0 -0.44794134129E+02  0.16654839317E+01  0.48823649966E+01  0.45090196020E+02  0.00000000000E+00 0. -1.
         -5    1    3    3    0  503  0.57297842154E+02  0.45680527817E+01  0.50674898406E+02  0.76772033646E+02  0.47000000000E+01 0.  1.
         11    1    4    4    0    0  0.12028611066E+02  0.32922832275E+02 -0.20827797660E+02  0.40772509421E+02  0.00000000000E+00 0. -1.
        -12    1    4    4    0    0 -0.55790403012E+02  0.26267603574E+02  0.27494318251E+02  0.67516617228E+02  0.00000000000E+00 0.  1.
</event>
<event>
12    1  0.8451514E-002  0.8582963E+03  0.7818608E-02  0.9479720E-01
         21   -1    0    0  501  502  0.00000000000E+00  0.00000000000E+00  0.90626005596E+03  0.90626005596E+03  0.00000000000E+00 0. -1.
         21   -1    0    0  502  503 -0.00000000000E+00 -0.00000000000E+00 -0.11832196573E+04  0.11832196573E+04  0.00000000000E+00 0.  1.
         -6    2    1    2    0  503 -0.31281336585E+02 -0.83897944523E+03 -0.72391322616E+03  0.11217813727E+04  0.17169175194E+03 0.  0.
        -24    2    3    3    0    0 -0.59776699406E+02 -0.64335640871E+03 -0.48593923342E+03  0.81237214641E+03  0.79566596418E+02 0.  0.
          6    2    1    2  501    0  0.31281336585E+02  0.83897944523E+03  0.44695362477E+03  0.96769834055E+03  0.17834658413E+03 0.  0.
         24    2    5    5    0    0  0.81767997473E+02  0.44687767849E+03  0.25800546721E+03  0.52950181540E+03  0.86137601883E+02 0.  0.
          5    1    5    5  501    0 -0.50486660888E+02  0.39210176674E+03  0.18894815757E+03  0.43819652516E+03  0.47000000000E+01 0. -1.
        -13    1    6    6    0    0 -0.13759562331E+02  0.23047708847E+02  0.24109906884E+02  0.36080604881E+02  0.00000000000E+00 0.  1.
         14    1    6    6    0    0  0.95527559804E+02  0.42382996964E+03  0.23389556032E+03  0.49342121052E+03  0.00000000000E+00 0. -1.
         -5    1    3    3    0  503  0.28495362821E+02 -0.19562303653E+03 -0.23797399274E+03  0.30940922634E+03  0.47000000000E+01 0.  1.
         13    1    4    4    0    0 -0.77250627140E+01 -0.82718612909E+01 -0.52579016297E+00  0.11330345910E+02  0.00000000000E+00 0. -1.
        -14    1    4    4    0    0 -0.52051636691E+02 -0.63508454742E+03 -0.48541344326E+03  0.80104180050E+03  0.00000000000E+00 0.  1.
</event>
<event>
12    1  0.8451514E-002  0.1765518E+03  0.7818608E-02  0.1171467E+00
         21   -1    0    0  503  502  0.00000000000E+00  0.00000000000E+00  0.51956818954E+03  0.51956818954E+03  0.00000000000E+00 0. -1.
         21   -1    0    0  501  503 -0.00000000000E+00 -0.00000000000E+00 -0.85038822932E+02  0.85038822932E+02  0.00000000000E+00 0. -1.
          6    2    1    2  501    0  0.40023102686E+02 -0.58061616097E+00  0.51445627820E+02  0.18279700134E+03  0.17078028345E+03 0.  0.
         24    2    3    3    0    0  0.19984608525E+02  0.33693647358E+02 -0.27274650529E+02  0.94506352850E+02  0.81565297261E+02 0.  0.
         -6    2    1    2    0  502 -0.40023102686E+02  0.58061616097E+00  0.38308373879E+03  0.42181001113E+03  0.17195449602E+03 0.  0.
        -24    2    5    5    0    0  0.31859787749E+02  0.34664435300E+02  0.15989557106E+03  0.18482076057E+03  0.79846419735E+02 0.  0.
          5    1    3    3  501    0  0.20038494161E+02 -0.34274263519E+02  0.78720278349E+02  0.88290648493E+02  0.47000000000E+01 0. -1.
        -13    1    4    4    0    0 -0.14520139492E+02  0.46962710092E+02 -0.10254191077E+01  0.49166879852E+02  0.00000000000E+00 0.  1.
         14    1    4    4    0    0  0.34504748017E+02 -0.13269062734E+02 -0.26249231422E+02  0.45339472998E+02  0.00000000000E+00 0. -1.
         -5    1    5    5    0  502 -0.71882890435E+02 -0.34083819139E+02  0.22318816773E+03  0.23698925056E+03  0.47000000000E+01 0.  1.
         11    1    6    6    0    0 -0.34756812987E+01  0.38922847631E+02  0.13708787850E+03  0.14254878063E+03  0.00000000000E+00 0. -1.
        -12    1    6    6    0    0  0.35335469048E+02 -0.42584123313E+01  0.22807692564E+02  0.42271979945E+02  0.00000000000E+00 0.  1.
</event>
<event>
12    1  0.8451514E-002  0.1770163E+03  0.7818608E-02  0.1170995E+00
         21   -1    0    0  503  502  0.00000000000E+00  0.00000000000E+00  0.12258838129E+04  0.12258838129E+04  0.00000000000E+00 0. -1.
         21   -1    0    0  501  503 -0.00000000000E+00 -0.00000000000E+00 -0.45706046438E+02  0.45706046438E+02  0.00000000000E+00 0. -1.
          6    2    1    2  501    0 -0.89290261722E+01  0.38251002609E+02  0.16735516684E+03  0.24360322110E+03  0.17260333356E+03 0.  0.
         24    2    3    3    0    0  0.14251258412E+02  0.11243836128E+02  0.10980084648E+02  0.83160181474E+02  0.80408527574E+02 0.  0.
         -6    2    1    2    0  502  0.89290261722E+01 -0.38251002609E+02  0.10128225996E+04  0.10279866382E+04  0.17147607232E+03 0.  0.
        -24    2    5    5    0    0  0.60351705950E+02 -0.56467763372E+02  0.79508802731E+03  0.80347254882E+03  0.81069284056E+02 0.  0.
          5    1    3    3  501    0 -0.23180284584E+02  0.27007166481E+02  0.15637508219E+03  0.16044303963E+03  0.47000000000E+01 0. -1.
        -13    1    4    4    0    0  0.42617666727E+01  0.41856790037E+01  0.45834380578E+02  0.46221997003E+02  0.00000000000E+00 0.  1.
         14    1    4    4    0    0  0.99894917392E+01  0.70581571244E+01 -0.34854295931E+02  0.36938184471E+02  0.00000000000E+00 0. -1.
         -5    1    5    5    0  502 -0.51422679778E+02  0.18216760763E+02  0.21773457232E+03  0.22451408943E+03  0.47000000000E+01 0.  1.
         13    1    6    6    0    0  0.33035138557E+02 -0.22459586130E+02  0.11054740214E+03  0.11754353027E+03  0.00000000000E+00 0. -1.
        -14    1    6    6    0    0  0.27316567394E+02 -0.34008177242E+02  0.68454062518E+03  0.68592901855E+03  0.00000000000E+00 0.  1.
</event>
<event>
12    1  0.8451514E-002  0.1729993E+03  0.7818608E-02  0.1175172E+00
         21   -1    0    0  503  502  0.00000000000E+00  0.00000000000E+00  0.53282832201E+02  0.53282832201E+02  0.00000000000E+00 0. -1.
         21   -1    0    0  501  503 -0.00000000000E+00 -0.00000000000E+00 -0.55745050070E+03  0.55745050070E+03  0.00000000000E+00 0. -1.
          6    2    1    2  501    0  0.13660997474E+02 -0.46698775732E+01 -0.24021811668E+03  0.29602957510E+03  0.17239586754E+03 0.  0.
         24    2    3    3    0    0  0.33237566977E+01 -0.66660113994E+02 -0.10954606868E+03  0.15095400139E+03  0.79574815215E+02 0.  0.
         -6    2    1    2    0  502 -0.13660997474E+02  0.46698775732E+01 -0.26394955182E+03  0.31470375780E+03  0.17076492222E+03 0.  0.
        -24    2    5    5    0    0 -0.30436077103E+02 -0.33019420982E+02 -0.25794363740E+03  0.27275083740E+03  0.76429459451E+02 0.  0.
          5    1    3    3  501    0  0.10337240776E+02  0.61990236421E+02 -0.13067204800E+03  0.14507557371E+03  0.47000000000E+01 0. -1.
        -11    1    4    4    0    0 -0.75148798880E+01 -0.59700410710E+02 -0.12008129691E+03  0.13431355228E+03  0.00000000000E+00 0.  1.
         12    1    4    4    0    0  0.10838636586E+02 -0.69597032841E+01  0.10535228228E+02  0.16640449112E+02  0.00000000000E+00 0. -1.
         -5    1    5    5    0  502  0.16775079630E+02  0.37689298556E+02 -0.60059144105E+01  0.41952920400E+02  0.47000000000E+01 0.  1.
         13    1    6    6    0    0 -0.56218619982E+02 -0.19589506606E+02 -0.17718638234E+03  0.18692056090E+03  0.00000000000E+00 0. -1.
        -14    1    6    6    0    0  0.25782542879E+02 -0.13429914377E+02 -0.80757255064E+02  0.85830276494E+02  0.00000000000E+00 0.  1.
</event>
<event>
12    1  0.8451514E-002  0.1840221E+03  0.7818608E-02  0.1164729E+00
         21   -1    0    0  503  502  0.00000000000E+00  0.00000000000E+00  0.37119979570E+03  0.37119979570E+03  0.00000000000E+00 0. -1.
         21   -1    0    0  501  503 -0.00000000000E+00 -0.00000000000E+00 -0.89924771448E+02  0.89924771448E+02  0.00000000000E+00 0. -1.
          6    2    1    2  501    0 -0.56333146896E+02  0.15756352837E+02  0.15229982732E+03  0.23640533149E+03  0.17108640292E+03 0.  0.
         24    2    3    3    0    0 -0.50630266449E+02 -0.39178755537E+02  0.32158876075E+02  0.10409385375E+03  0.75517801293E+02 0.  0.
         -6    2    1    2    0  502  0.56333146896E+02 -0.15756352837E+02  0.12897519694E+03  0.22471923565E+03  0.17447764142E+03 0.  0.
        -24    2    5    5    0    0  0.70101257139E+02  0.47649102305E+02  0.66866287710E+02  0.13477803705E+03  0.80680825699E+02 0.  0.
          5    1    3    3  501    0 -0.57028804470E+01  0.54935108374E+02  0.12014095124E+03  0.13231147774E+03  0.47000000000E+01 0. -1.
        -13    1    4    4    0    0 -0.41239090153E+01  0.67305289886E+01  0.37693204800E+02  0.38510833983E+02  0.00000000000E+00 0.  1.
         14    1    4    4    0    0 -0.46506357434E+02 -0.45909284526E+02 -0.55343287242E+01  0.65583019768E+02  0.00000000000E+00 0. -1.
         -5    1    5    5    0  502 -0.13768110243E+02 -0.63405455142E+02  0.62108909225E+02  0.89941198605E+02  0.47000000000E+01 0.  1.
         11    1    6    6    0    0  0.66807079311E+02  0.67226345662E+02  0.43987156572E+02  0.10448654143E+03  0.00000000000E+00 0. -1.
        -12    1    6    6    0    0  0.32941778284E+01 -0.19577243357E+02  0.22879131138E+02  0.30291495617E+02  0.00000000000E+00 0.  1.
</event>
<event>
12    1  0.8451514E-002  0.1969079E+03  0.7818608E-02  0.1152580E+00
         21   -1    0    0  501  502  0.00000000000E+00  0.00000000000E+00  0.10958355895E+03  0.10958355895E+03  0.00000000000E+00 0. -1.
         21   -1    0    0  502  503 -0.00000000000E+00 -0.00000000000E+00 -0.10337700555E+04  0.10337700555E+04  0.00000000000E+00 0. -1.
         -6    2    1    2    0  503  0.25055305631E+02 -0.92619555960E+02 -0.92669145638E+03  0.94738048830E+03  0.17194936404E+03 0.  0.
        -24    2    3    3    0    0 -0.47231057590E+02 -0.57157250283E+02 -0.64639068593E+03  0.65570686017E+03  0.81442271299E+02 0.  0.
          6    2    1    2  501    0 -0.25055305631E+02  0.92619555960E+02  0.25049597882E+01  0.19597312619E+03  0.17085971110E+03 0.  0.
         24    2    5    5    0    0  0.34554708053E+02  0.42616893026E+02  0.44353073515E+02  0.10750293542E+03  0.81113861788E+02 0.  0.
          5    1    5    5  501    0 -0.59610013684E+02  0.50002662935E+02 -0.41848113727E+02  0.88470190767E+02  0.47000000000E+01 0. -1.
        -11    1    6    6    0    0 -0.20244011207E+02  0.34011272072E+02  0.59229161639E+01  0.40020838992E+02  0.00000000000E+00 0.  1.
         12    1    6    6    0    0  0.54798719260E+02  0.86056209534E+01  0.38430157351E+02  0.67482096430E+02  0.00000000000E+00 0. -1.
         -5    1    3    3    0  503  0.72286363221E+02 -0.35462305678E+02 -0.28030077045E+03  0.29167362813E+03  0.47000000000E+01 0.  1.
         11    1    4    4    0    0  0.63401881746E+00 -0.44849449738E+02 -0.48108111880E+03  0.48316758789E+03  0.00000000000E+00 0. -1.
        -12    1    4    4    0    0 -0.47865076407E+02 -0.12307800544E+02 -0.16530956713E+03  0.17253927228E+03  0.00000000000E+00 0.  1.
</event>
<event>
12    1  0.8451514E-002  0.1993250E+03  0.7818608E-02  0.1150427E+00
         21   -1    0    0  503  502  0.00000000000E+00  0.00000000000E+00  0.56019988704E+02  0.56019988704E+02  0.00000000000E+00 0. -1.
         21   -1    0    0  501  503 -0.00000000000E+00 -0.00000000000E+00 -0.86363495105E+03  0.86363495105E+03  0.00000000000E+00 0.  1.
          6    2    1    2  501    0 -0.94655665099E+02  0.29170600681E+02 -0.59901422996E+03  0.63113329665E+03  0.17233853764E+03 0.  0.
         24    2    3    3    0    0 -0.53931937084E+02 -0.44132844022E+02 -0.41985481189E+03  0.43326464296E+03  0.81140778953E+02 0.  0.
         -6    2    1    2    0  502  0.94655665099E+02 -0.29170600681E+02 -0.20860073238E+03  0.28852164311E+03  0.17297356478E+03 0.  0.
        -24    2    5    5    0    0  0.12267670736E+03 -0.30511656635E+02 -0.10864767068E+03  0.18460012568E+03  0.79324361561E+02 0.  0.
          5    1    3    3  501    0 -0.40723728015E+02  0.73303444704E+02 -0.17915941807E+03  0.19786865369E+03  0.47000000000E+01 0. -1.
        -13    1    4    4    0    0 -0.47910461753E+02 -0.37187128426E+02 -0.41971179002E+03  0.42407108078E+03  0.00000000000E+00 0.  1.
         14    1    4    4    0    0 -0.60214753317E+01 -0.69457155958E+01 -0.14302186741E+00  0.91935621803E+01  0.00000000000E+00 0. -1.
         -5    1    5    5    0  502 -0.28021042264E+02  0.13410559533E+01 -0.99953061700E+02  0.10392151743E+03  0.47000000000E+01 0.  1.
         13    1    6    6    0    0  0.16182007643E+00 -0.20763017116E+02 -0.36756855975E+02  0.42216057687E+02  0.00000000000E+00 0. -1.
        -14    1    6    6    0    0  0.12251488729E+03 -0.97486395184E+01 -0.71890814706E+02  0.14238406799E+03  0.00000000000E+00 0.  1.
</event>
<event>
12    1  0.8451514E-002  0.1862813E+03  0.7818608E-02  0.1161887E+00
         21   -1    0    0  503  502  0.00000000000E+00  0.00000000000E+00  0.67868357739E+02  0.67868357739E+02  0.00000000000E+00 0. -1.
         21   -1    0    0  501  503 -0.00000000000E+00 -0.00000000000E+00 -0.56226440544E+03  0.56226440544E+03  0.00000000000E+00 0. -1.
          6    2    1    2  501    0 -0.63295720403E+02  0.32746714704E+02 -0.34243824061E+03  0.38982645780E+03  0.17211049656E+03 0.  0.
         24    2    3    3    0    0 -0.62936404906E+01 -0.39700622961E+02 -0.12598813821E+03  0.15451689430E+03  0.79916896083E+02 0.  0.
         -6    2    1    2    0  502  0.63295720403E+02 -0.32746714704E+02 -0.15195780709E+03  0.24030630538E+03  0.17198037598E+03 0.  0.
        -24    2    5    5    0    0  0.55424837528E+02 -0.30234933842E+01 -0.12941203739E+02  0.97852359517E+02  0.79539646602E+02 0.  0.
          5    1    3    3  501    0 -0.57002079913E+02  0.72447337664E+02 -0.21645010239E+03  0.23530956350E+03  0.47000000000E+01 0. -1.
        -11    1    4    4    0    0  0.29297590920E+02 -0.43078905206E+02 -0.59961475707E+02  0.79432483761E+02  0.00000000000E+00 0.  1.
         12    1    4    4    0    0 -0.35591231410E+02  0.33782822458E+01 -0.66026662508E+02  0.75084410540E+02  0.00000000000E+00 0. -1.
         -5    1    5    5    0  502  0.78708828757E+01 -0.29723221320E+02 -0.13901660336E+03  0.14245394586E+03  0.47000000000E+01 0.  1.
         11    1    6    6    0    0  0.41988376248E+02 -0.41073655199E+00 -0.45872803404E+02  0.62189279917E+02  0.00000000000E+00 0. -1.
        -12    1    6    6    0    0  0.13436461279E+02 -0.26127568322E+01  0.32931599665E+02  0.35663079599E+02  0.00000000000E+00 0.  1.
</event>
<event>
12    1  0.8451514E-002  0.1846105E+03  0.7818608E-02  0.1163654E+00
         21   -1    0    0  501  502  0.00000000000E+00  0.00000000000E+00  0.17122243862E+04  0.17122243862E+04  0.00000000000E+00 0.  1.
         21   -1    0    0  502  503 -0.00000000000E+00 -0.00000000000E+00 -0.35414701806E+02  0.35414701806E+02  0.00000000000E+00 0.  1.
         -6    2    1    2    0  503  0.66457004655E+02 -0.10469103461E+02  0.25938086237E+03  0.31837003886E+03  0.17191542772E+03 0.  0.
        -24    2    3    3    0    0 -0.12190442443E+02  0.54419793166E+01  0.20148723534E+03  0.21931275472E+03  0.85573105325E+02 0.  0.
          6    2    1    2  501    0 -0.66457004655E+02  0.10469103461E+02  0.14174288220E+04  0.14292690491E+04  0.17081982829E+03 0.  0.
         24    2    5    5    0    0 -0.10384223991E+03  0.34925077203E+02  0.92795927779E+03  0.93774257458E+03  0.79055316901E+02 0.  0.
          5    1    5    5  501    0  0.37385235251E+02 -0.24455973742E+02  0.48946954423E+03  0.49152647456E+03  0.47000000000E+01 0. -1.
        -13    1    6    6    0    0 -0.43266653288E+02  0.44685037150E+02  0.65628312857E+03  0.65922401403E+03  0.00000000000E+00 0.  1.
         14    1    6    6    0    0 -0.60575586618E+02 -0.97599599472E+01  0.27167614922E+03  0.27851856055E+03  0.00000000000E+00 0. -1.
         -5    1    3    3    0  503  0.78647447099E+02 -0.15911082778E+02  0.57893627034E+02  0.99057284142E+02  0.47000000000E+01 0.  1.
         11    1    4    4    0    0  0.20001330599E+02 -0.30049420317E+02  0.11379893105E+03  0.11938684012E+03  0.00000000000E+00 0. -1.
        -12    1    4    4    0    0 -0.32191773043E+02  0.35491399634E+02  0.87688304290E+02  0.99925914601E+02  0.00000000000E+00 0.  1.
</event>
<event>
12    1  0.8451514E-002  0.2559278E+03  0.7818608E-02  0.1110325E+00
         21   -1    0    0  501  502  0.00000000000E+00  0.00000000000E+00  0.39706269680E+03  0.39706269680E+03  0.00000000000E+00 0. -1.
         21   -1    0    0  502  503 -0.00000000000E+00 -0.00000000000E+00 -0.64898393726E+03  0.64898393726E+03  0.00000000000E+00 0.  1.
         -6    2    1    2    0  503 -0.13121797520E+03 -0.12993211201E+03 -0.57929975570E+03  0.63331449856E+03  0.17719632159E+03 0.  0.
        -24    2    3    3    0    0 -0.15372636275E+03 -0.83200021611E+02 -0.51972008144E+03  0.55417952925E+03  0.80324027458E+02 0.  0.
          6    2    1    2  501    0  0.13121797520E+03  0.12993211201E+03  0.32737851523E+03  0.41273213551E+03  0.17050106362E+03 0.  0.
         24    2    5    5    0    0  0.12546394573E+03  0.13571945474E+03  0.19640735439E+03  0.28142281686E+03  0.80386447341E+02 0.  0.
          5    1    5    5  501    0  0.57540294633E+01 -0.57873427317E+01  0.13097116084E+03  0.13130931865E+03  0.47000000000E+01 0. -1.
        -11    1    6    6    0    0  0.64311581737E+01  0.14663184039E+01 -0.73844611194E+01  0.99015226678E+01  0.00000000000E+00 0.  1.
         12    1    6    6    0    0  0.11903278756E+03  0.13425313633E+03  0.20379181551E+03  0.27152129419E+03  0.00000000000E+00 0. -1.
         -5    1    3    3    0  503  0.22508387548E+02 -0.46732090395E+02 -0.59579674259E+02  0.79134969309E+02  0.47000000000E+01 0.  1.
         11    1    4    4    0    0 -0.34380202580E+02 -0.30782939500E+02 -0.25459654032E+03  0.25874502128E+03  0.00000000000E+00 0. -1.
        -12    1    4    4    0    0 -0.11934616017E+03 -0.52417082111E+02 -0.26512354112E+03  0.29543450797E+03  0.00000000000E+00 0.  1.
</event>
<event>
12    1  0.8451514E-002  0.1951885E+03  0.7818608E-02  0.1155432E+00
         21   -1    0    0  503  502  0.00000000000E+00  0.00000000000E+00  0.29578563889E+03  0.29578563889E+03  0.00000000000E+00 0.  1.
         21   -1    0    0  501  503 -0.00000000000E+00 -0.00000000000E+00 -0.28185233979E+03  0.28185233979E+03  0.00000000000E+00 0.  1.
          6    2    1    2  501    0 -0.76107239283E+02 -0.57118290132E+01 -0.20897685804E+03  0.28595433837E+03  0.17964860025E+03 0.  0.
         24    2    3    3    0    0 -0.98006489749E+02  0.49618471155E+02 -0.15428994961E+03  0.20499899734E+03  0.78434275965E+02 0.  0.
         -6    2    1    2    0  502  0.76107239283E+02  0.57118290132E+01  0.22291015714E+03  0.29168364030E+03  0.17194612819E+03 0.  0.
        -24    2    5    5    0    0  0.91998834727E+02  0.47216589009E+02  0.11227251547E+03  0.17236069338E+03  0.80061844989E+02 0.  0.
          5    1    3    3  501    0  0.21899250465E+02 -0.55330300168E+02 -0.54686908430E+02  0.80955341030E+02  0.47000000000E+01 0. -1.
        -13    1    4    4    0    0 -0.80013267367E+02  0.56949871864E+01 -0.12710177221E+03  0.15029775891E+03  0.00000000000E+00 0.  1.
         14    1    4    4    0    0 -0.17993222382E+02  0.43923483968E+02 -0.27188177406E+02  0.54701238434E+02  0.00000000000E+00 0. -1.
         -5    1    5    5    0  502 -0.15891595443E+02 -0.41504759996E+02  0.11063764167E+03  0.11932294692E+03  0.47000000000E+01 0.  1.
         11    1    6    6    0    0  0.10904093625E+02 -0.21542825483E+02  0.16316591692E+02  0.29141443890E+02  0.00000000000E+00 0. -1.
        -12    1    6    6    0    0  0.81094741101E+02  0.68759414492E+02  0.95955923780E+02  0.14321924949E+03  0.00000000000E+00 0.  1.
</event>
<event>
12    1  0.8451514E-002  0.1928173E+03  0.7818608E-02  0.1156237E+00
         21   -1    0    0  503  502  0.00000000000E+00  0.00000000000E+00  0.30763100744E+03  0.30763100744E+03  0.00000000000E+00 0.  1.
         21   -1    0    0  501  503 -0.00000000000E+00 -0.00000000000E+00 -0.18978964748E+03  0.18978964748E+03  0.00000000000E+00 0.  1.
          6    2    1    2  501    0  0.83242026407E+02  0.14053414827E+02  0.20983214142E+03  0.28497022861E+03  0.17335446401E+03 0.  0.
         24    2    3    3    0    0  0.75833878989E+02 -0.13726538351E+02  0.48873034274E+02  0.12139599280E+03  0.80057595086E+02 0.  0.
         -6    2    1    2    0  502 -0.83242026407E+02 -0.14053414827E+02 -0.91990781461E+02  0.21245042631E+03  0.17188992506E+03 0.  0.
        -24    2    5    5    0    0  0.10025795097E+02 -0.30042872689E+01 -0.40012672483E+02  0.10500377182E+03  0.96515469376E+02 0.  0.
          5    1    3    3  501    0  0.74081474177E+01  0.27779953178E+02  0.16095910715E+03  0.16357423581E+03  0.47000000000E+01 0. -1.
        -11    1    4    4    0    0 -0.13626828161E+02 -0.16383679810E+02  0.58873140595E+01  0.22108276203E+02  0.00000000000E+00 0.  1.
         12    1    4    4    0    0  0.89460707150E+02  0.26571414593E+01  0.42985720215E+02  0.99287716596E+02  0.00000000000E+00 0. -1.
         -5    1    5    5    0  502 -0.93267821504E+02 -0.11049127558E+02 -0.51978108978E+02  0.10744665449E+03  0.47000000000E+01 0.  1.
         13    1    6    6    0    0 -0.14278338247E+02  0.37705478292E+02  0.37355825449E+01  0.40491093012E+02  0.00000000000E+00 0. -1.
        -14    1    6    6    0    0  0.24304133345E+02 -0.40709765561E+02 -0.43748255028E+02  0.64512678813E+02  0.00000000000E+00 0.  1.
</event>
<event>
12    1  0.8451514E-002  0.2350081E+03  0.7818608E-02  0.1123793E+00
         21   -1    0    0  503  502  0.00000000000E+00  0.00000000000E+00  0.15841378910E+03  0.15841378910E+03  0.00000000000E+00 0. -1.
         21   -1    0    0  501  503 -0.00000000000E+00 -0.00000000000E+00 -0.68291158650E+03  0.68291158650E+03  0.00000000000E+00 0. -1.
          6    2    1    2  501    0 -0.13781392117E+03 -0.81601158021E+02 -0.55994747536E+03  0.60726435844E+03  0.17198081292E+03 0.  0.
         24    2    3    3    0    0 -0.14556086583E+03 -0.99399174407E+02 -0.55207928778E+03  0.58579850382E+03  0.85441123278E+02 0.  0.
         -6    2    1    2    0  502  0.13781392117E+03  0.81601158021E+02  0.35449677961E+02  0.23406101716E+03  0.16696243359E+03 0.  0.
        -24    2    5    5    0    0  0.11071572847E+03  0.17809248336E+02 -0.25382516435E+02  0.14172269541E+03  0.82860777193E+02 0.  0.
          5    1    3    3  501    0  0.77469446577E+01  0.17798016386E+02 -0.78681875761E+01  0.21465854620E+02  0.47000000000E+01 0. -1.
        -11    1    4    4    0    0 -0.47212525591E+02 -0.49466735886E+02 -0.33939322625E+03  0.34621343498E+03  0.00000000000E+00 0.  1.
         12    1    4    4    0    0 -0.98348340240E+02 -0.49932438521E+02 -0.21268606153E+03  0.23958506884E+03  0.00000000000E+00 0. -1.
         -5    1    5    5    0  502  0.27098192702E+02  0.63791909685E+02  0.60832194397E+02  0.92338321752E+02  0.47000000000E+01 0.  1.
         13    1    6    6    0    0  0.11888604342E+03  0.23544238570E+02 -0.77274994027E+01  0.12144108340E+03  0.00000000000E+00 0. -1.
        -14    1    6    6    0    0 -0.81703149510E+01 -0.57349902338E+01 -0.17655017033E+02  0.20281612012E+02  0.00000000000E+00 0.  1.
</event>
<event>
12    1  0.8451514E-002  0.1729321E+03  0.7818608E-02  0.1175012E+00
         21   -1    0    0  503  502  0.00000000000E+00  0.00000000000E+00  0.36685750613E+03  0.36685750613E+03  0.00000000000E+00 0.  1.
         21   -1    0    0  501  503 -0.00000000000E+00 -0.00000000000E+00 -0.20940828487E+03  0.20940828487E+03  0.00000000000E+00 0.  1.
          6    2    1    2  501    0  0.88227943208E+01  0.12605794109E+01 -0.14668733549E+03  0.22676570326E+03  0.17270228436E+03 0.  0.
         24    2    3    3    0    0  0.53120442050E+02 -0.34574264768E+02 -0.48820393064E+02  0.11342353956E+03  0.80400916665E+02 0.  0.
         -6    2    1    2    0  502 -0.88227943208E+01 -0.12605794109E+01  0.30413655675E+03  0.34950008773E+03  0.17196463418E+03 0.  0.
        -24    2    5    5    0    0  0.23074770277E+02 -0.29976340352E+02  0.76282756462E+02  0.11759171388E+03  0.81103182651E+02 0.  0.
          5    1    3    3  501    0 -0.44297647729E+02  0.35834844179E+02 -0.97866942428E+02  0.11334216370E+03  0.47000000000E+01 0. -1.
        -13    1    4    4    0    0  0.39445302240E+02  0.79074597946E+00 -0.61822912846E+02  0.73339141669E+02  0.00000000000E+00 0.  1.
         14    1    4    4    0    0  0.13675139810E+02 -0.35365010747E+02  0.13002519781E+02  0.40084397895E+02  0.00000000000E+00 0. -1.
         -5    1    5    5    0  502 -0.31897564598E+02  0.28715760941E+02  0.22785380029E+03  0.23190837385E+03  0.47000000000E+01 0.  1.
         11    1    6    6    0    0  0.16392145947E+02  0.25660383665E+02  0.13122937251E+02  0.33156737184E+02  0.00000000000E+00 0. -1.
        -12    1    6    6    0    0  0.66826243299E+01 -0.55636724017E+02  0.63159819211E+02  0.84434976699E+02  0.00000000000E+00 0.  1.
</event>
<event>
12    1  0.8451514E-002  0.2014897E+03  0.7818608E-02  0.1148811E+00
         21   -1    0    0  501  502  0.00000000000E+00  0.00000000000E+00  0.51861870442E+02  0.51861870442E+02  0.00000000000E+00 0. -1.
         21   -1    0    0  502  503 -0.00000000000E+00 -0.00000000000E+00 -0.10033775566E+04  0.10033775566E+04  0.00000000000E+00 0. -1.
         -6    2    1    2    0  503  0.93802123734E+02  0.46183241514E+02 -0.22646859047E+03  0.30312725846E+03  0.17223931647E+03 0.  0.
        -24    2    3    3    0    0  0.18575135284E+02 -0.22858084221E+02 -0.43221771282E+02  0.93300446080E+02  0.77261400847E+02 0.  0.
          6    2    1    2  501    0 -0.93802123734E+02 -0.46183241514E+02 -0.72504709574E+03  0.75211216863E+03  0.17043383747E+03 0.  0.
         24    2    5    5    0    0 -0.99361578126E+02 -0.69678068086E+02 -0.38986611015E+03  0.41602989075E+03  0.79734119249E+02 0.  0.
          5    1    5    5  501    0  0.55594543916E+01  0.23494826572E+02 -0.33518098559E+03  0.33608227789E+03  0.47000000000E+01 0. -1.
        -13    1    6    6    0    0 -0.54052579108E+02 -0.54989442797E+02 -0.33319681902E+03  0.34200239814E+03  0.00000000000E+00 0.  1.
         14    1    6    6    0    0 -0.45308999018E+02 -0.14688625289E+02 -0.56669291130E+02  0.74027492609E+02  0.00000000000E+00 0. -1.
         -5    1    3    3    0  503  0.75226988450E+02  0.69041325735E+02 -0.18324681919E+03  0.20982681238E+03  0.47000000000E+01 0.  1.
         11    1    4    4    0    0  0.30179466178E+02  0.13957556578E+02  0.26405311838E+01  0.33355448871E+02  0.00000000000E+00 0. -1.
        -12    1    4    4    0    0 -0.11604330894E+02 -0.36815640799E+02 -0.45862302466E+02  0.59944997209E+02  0.00000000000E+00 0.  1.
</event>
<event>
12    1  0.8451514E-002  0.1792355E+03  0.7818608E-02  0.1169218E+00
         21   -1    0    0  501  502  0.00000000000E+00  0.00000000000E+00  0.40155197934E+03  0.40155197934E+03  0.00000000000E+00 0. -1.
         21   -1    0    0  502  503 -0.00000000000E+00 -0.00000000000E+00 -0.87888655055E+02  0.87888655055E+02  0.00000000000E+00 0. -1.
         -6    2    1    2    0  503 -0.81692009111E+01 -0.48225809412E+02  0.23451397623E+03  0.29350700243E+03  0.16957915819E+03 0.  0.
        -24    2    3    3    0    0  0.30291673288E+02 -0.75454245263E+02  0.10079371313E+03  0.15164853308E+03  0.78911192994E+02 0.  0.
          6    2    1    2  501    0  0.81692009111E+01  0.48225809412E+02  0.79149348064E+02  0.19593363197E+03  0.17243231803E+03 0.  0.
         24    2    5    5    0    0  0.72151200703E+02  0.31169460385E+02  0.48095742750E+02  0.12264630877E+03  0.80941865312E+02 0.  0.
          5    1    5    5  501    0 -0.63981999792E+02  0.17056349027E+02  0.31053605314E+02  0.73287323205E+02  0.47000000000E+01 0. -1.
        -13    1    6    6    0    0 -0.15562891585E+02  0.39084617087E+01 -0.46757362807E+01  0.16713532756E+02  0.00000000000E+00 0.  1.
         14    1    6    6    0    0  0.87714092288E+02  0.27260998677E+02  0.52771479030E+02  0.10593277601E+03  0.00000000000E+00 0. -1.
         -5    1    3    3    0  503 -0.38460874199E+02  0.27228435851E+02  0.13372026310E+03  0.14185846935E+03  0.47000000000E+01 0.  1.
         13    1    4    4    0    0  0.54188933887E+01 -0.18385345269E+02  0.85393697667E+02  0.87518391938E+02  0.00000000000E+00 0. -1.
        -14    1    4    4    0    0  0.24872779899E+02 -0.57068899994E+02  0.15400015462E+02  0.64130141140E+02  0.00000000000E+00 0.  1.
</event>
<event>
12    1  0.8451514E-002  0.1983214E+03  0.7818608E-02  0.1151214E+00
         21   -1    0    0  501  502  0.00000000000E+00  0.00000000000E+00  0.18395762788E+03  0.18395762788E+03  0.00000000000E+00 0. -1.
         21   -1    0    0  502  503 -0.00000000000E+00 -0.00000000000E+00 -0.24272694232E+03  0.24272694232E+03  0.00000000000E+00 0. -1.
         -6    2    1    2    0  503 -0.71633432336E+02  0.66177074665E+02  0.44600214627E+02  0.20304057849E+03  0.17241097277E+03 0.  0.
        -24    2    3    3    0    0  0.13420850011E+02  0.49998678743E+02 -0.19709408493E+02  0.95087861686E+02  0.77286826599E+02 0.  0.
          6    2    1    2  501    0  0.71633432336E+02 -0.66177074665E+02 -0.10336952906E+03  0.22364399171E+03  0.17268648369E+03 0.  0.
         24    2    5    5    0    0  0.60614221948E+02  0.24314944768E+02 -0.71657695198E+02  0.12701087634E+03  0.82046553773E+02 0.  0.
          5    1    5    5  501    0  0.11019210389E+02 -0.90492019433E+02 -0.31711833862E+02  0.96633115367E+02  0.47000000000E+01 0. -1.
        -13    1    6    6    0    0 -0.62950849583E+01  0.84181769701E+01  0.13781143955E+02  0.17332447226E+02  0.00000000000E+00 0.  1.
         14    1    6    6    0    0  0.66909306906E+02  0.15896767798E+02 -0.85438839153E+02  0.10967842911E+03  0.00000000000E+00 0. -1.
         -5    1    3    3    0  503 -0.85054282347E+02  0.16178395922E+02  0.64309623120E+02  0.10795271681E+03  0.47000000000E+01 0.  1.
         11    1    4    4    0    0  0.15943048790E+02  0.99135177133E+01  0.27378631671E+02  0.33197109970E+02  0.00000000000E+00 0. -1.
        -12    1    4    4    0    0 -0.25221987791E+01  0.40085161030E+02 -0.47088040164E+02  0.61890751716E+02  0.00000000000E+00 0.  1.
</event>
<event>
12    1  0.8451514E-002  0.3009086E+03  0.7818608E-02  0.1084834E+00
         21   -1    0    0  501  502  0.00000000000E+00  0.00000000000E+00  0.12163799924E+03  0.12163799924E+03  0.00000000000E+00 0.  1.
         21   -1    0    0  502  503 -0.00000000000E+00 -0.00000000000E+00 -0.76793750065E+03  0.76793750065E+03  0.00000000000E+00 0. -1.
         -6    2    1    2    0  503 -0.24225038122E+03 -0.48360600074E+02 -0.40235292679E+03  0.50220496410E+03  0.17116644947E+03 0.  0.
        -24    2    3    3    0    0 -0.16731377464E+03  0.29978363176E+02 -0.16959395928E+03  0.24539508281E+03  0.50636293301E+02 0.  0.
          6    2    1    2  501    0  0.24225038122E+03  0.48360600074E+02 -0.24394657462E+03  0.38737053579E+03  0.17181969006E+03 0.  0.
         24    2    5    5    0    0  0.49033784979E+02  0.79517265685E+01 -0.34801248443E+02  0.99743368121E+02  0.79183777166E+02 0.  0.
          5    1    5    5  501    0  0.19321659624E+03  0.40408873506E+02 -0.20914532618E+03  0.28762716767E+03  0.47000000000E+01 0. -1.
        -11    1    6    6    0    0  0.41134727015E+02 -0.12819118979E+02 -0.54894545382E+02  0.69784000248E+02  0.00000000000E+00 0.  1.
         12    1    6    6    0    0  0.78990579640E+01  0.20770845547E+02  0.20093296939E+02  0.29959367873E+02  0.00000000000E+00 0. -1.
         -5    1    3    3    0  503 -0.74936606571E+02 -0.78338963250E+02 -0.23275896751E+03  0.25680988128E+03  0.47000000000E+01 0.  1.
         11    1    4    4    0    0 -0.57585638342E+02  0.17363708680E+02 -0.93843898570E+02  0.11146426074E+03  0.00000000000E+00 0. -1.
        -12    1    4    4    0    0 -0.10972813630E+03  0.12614654496E+02 -0.75750060709E+02  0.13393082208E+03  0.00000000000E+00 0.  1.
</event>
<event>
12    1  0.8451514E-002  0.2010658E+03  0.7818608E-02  0.1149114E+00
         21   -1    0    0  503  502  0.00000000000E+00  0.00000000000E+00  0.26293765496E+03  0.26293765496E+03  0.00000000000E+00 0. -1.
         21   -1    0    0  501  503 -0.00000000000E+00 -0.00000000000E+00 -0.50098642439E+03  0.50098642439E+03  0.00000000000E+00 0.  1.
          6    2    1    2  501    0 -0.98123926854E+02  0.35574336497E+02 -0.43735045517E+03  0.48081875612E+03  0.17034499453E+03 0.  0.
         24    2    3    3    0    0 -0.93421948838E+02  0.73858281631E+02 -0.24147466000E+03  0.28112602670E+03  0.80864857469E+02 0.  0.
         -6    2    1    2    0  502  0.98123926854E+02 -0.35574336497E+02  0.19930168574E+03  0.28310532323E+03  0.17185349477E+03 0.  0.
        -24    2    5    5    0    0  0.74306544079E+01 -0.59524066139E+02  0.13955933219E+03  0.17179450604E+03  0.80238494678E+02 0.  0.
          5    1    3    3  501    0 -0.47019780166E+01 -0.38283945134E+02 -0.19587579517E+03  0.19969272942E+03  0.47000000000E+01 0. -1.
        -11    1    4    4    0    0 -0.47356934796E+02  0.39008885882E+02 -0.20213110939E+03  0.21123768090E+03  0.00000000000E+00 0.  1.
         12    1    4    4    0    0 -0.46065014042E+02  0.34849395749E+02 -0.39343550611E+02  0.69888345792E+02  0.00000000000E+00 0. -1.
         -5    1    5    5    0  502  0.90693272446E+02  0.23949729642E+02  0.59742353544E+02  0.11131081719E+03  0.47000000000E+01 0.  1.
         13    1    6    6    0    0  0.41517380862E+02 -0.46139092624E+02  0.72948862956E+02  0.95781237142E+02  0.00000000000E+00 0. -1.
        -14    1    6    6    0    0 -0.34086726454E+02 -0.13384973515E+02  0.66610469238E+02  0.76013268897E+02  0.00000000000E+00 0.  1.
</event>
<event>
12    1  0.8451514E-002  0.1981233E+03  0.7818608E-02  0.1151343E+00
         21   -1    0    0  501  502  0.00000000000E+00  0.00000000000E+00  0.10325817736E+03  0.10325817736E+03  0.00000000000E+00 0. -1.
         21   -1    0    0  502  503 -0.00000000000E+00 -0.00000000000E+00 -0.38022224846E+03  0.38022224846E+03  0.00000000000E+00 0. -1.
         -6    2    1    2    0  503  0.91795426139E+02  0.35870718287E+02 -0.13332980769E+03  0.23880886425E+03  0.17187125220E+03 0.  0.
        -24    2    3    3    0    0  0.46933886062E+02  0.43547664502E+02 -0.67479082584E+01  0.10421109106E+03  0.81946497732E+02 0.  0.
          6    2    1    2  501    0 -0.91795426139E+02 -0.35870718287E+02 -0.14363426341E+03  0.24467156157E+03  0.17181461732E+03 0.  0.
         24    2    5    5    0    0 -0.12737380464E+03 -0.51011248617E+02 -0.10581655064E+03  0.19038228018E+03  0.78879887321E+02 0.  0.
          5    1    5    5  501    0  0.35578378497E+02  0.15140530330E+02 -0.37817712767E+02  0.54289281392E+02  0.47000000000E+01 0. -1.
        -11    1    6    6    0    0  0.24893724149E+01  0.12971888002E+02 -0.12198875803E+02  0.17979972864E+02  0.00000000000E+00 0.  1.
         12    1    6    6    0    0 -0.12986317705E+03 -0.63983136619E+02 -0.93617674841E+02  0.17240230732E+03  0.00000000000E+00 0. -1.
         -5    1    3    3    0  503  0.44861540077E+02 -0.76769462149E+01 -0.12658189943E+03  0.13459777318E+03  0.47000000000E+01 0.  1.
         13    1    4    4    0    0  0.33609872680E+00  0.46740091617E+02 -0.26236464723E+02  0.53601317221E+02  0.00000000000E+00 0. -1.
        -14    1    4    4    0    0  0.46597787335E+02 -0.31924271151E+01  0.19488556464E+02  0.50609773843E+02  0.00000000000E+00 0.  1.
</event>
<event>
12    1  0.8451514E-002  0.2390535E+03  0.7818608E-02  0.1120481E+00
         21   -1    0    0  501  502  0.00000000000E+00  0.00000000000E+00  0.12112813226E+04  0.12112813226E+04  0.00000000000E+00 0.  1.
         21   -1    0    0  502  503 -0.00000000000E+00 -0.00000000000E+00 -0.49426040265E+02  0.49426040265E+02  0.00000000000E+00 0. -1.
         -6    2    1    2    0  503  0.69633474800E+01  0.16414243138E+03  0.71690983975E+03  0.75561030882E+03  0.17319351741E+03 0.  0.
        -24    2    3    3    0    0 -0.12061215849E+02  0.30550236682E+02  0.43405599001E+03  0.44218216904E+03  0.77728233354E+02 0.  0.
          6    2    1    2  501    0 -0.69633474800E+01 -0.16414243138E+03  0.44494544259E+03  0.50509705405E+03  0.17365299059E+03 0.  0.
         24    2    5    5    0    0 -0.58987802908E+02 -0.52268655223E+02  0.24852884187E+03  0.27309736268E+03  0.81265066632E+02 0.  0.
          5    1    5    5  501    0  0.52024455428E+02 -0.11187377616E+03  0.19641660072E+03  0.23199969136E+03  0.47000000000E+01 0. -1.
        -13    1    6    6    0    0 -0.51979762859E+01  0.11833691399E+02  0.11355401550E+03  0.11428722433E+03  0.00000000000E+00 0.  1.
         14    1    6    6    0    0 -0.53789826622E+02 -0.64102346621E+02  0.13497482637E+03  0.15881013835E+03  0.00000000000E+00 0. -1.
         -5    1    3    3    0  503  0.19024563329E+02  0.13359219470E+03  0.28285384974E+03  0.31342813978E+03  0.47000000000E+01 0.  1.
         13    1    4    4    0    0 -0.45097793781E+02  0.15018635998E+02  0.26506359583E+03  0.26929181247E+03  0.00000000000E+00 0. -1.
        -14    1    4    4    0    0  0.33036577933E+02  0.15531600684E+02  0.16899239418E+03  0.17289035656E+03  0.00000000000E+00 0.  1.
</event>
<event>
12    1  0.8451514E-002  0.2252073E+03  0.7818608E-02  0.1130288E+00
         21   -1    0    0  503  502  0.00000000000E+00  0.00000000000E+00  0.74125200809E+03  0.74125200809E+03  0.00000000000E+00 0. -1.
         21   -1    0    0  501  503 -0.00000000000E+00 -0.00000000000E+00 -0.78392297575E+02  0.78392297575E+02  0.00000000000E+00 0.  1.
          6    2    1    2  501    0 -0.10965155807E+03 -0.92829500740E+02  0.18169969760E+03  0.28838797051E+03  0.17179074780E+03 0.  0.
         24    2    3    3    0    0 -0.53204386448E+02 -0.99057086563E+02  0.54422898774E+02  0.14893712064E+03  0.81101176673E+02 0.  0.
         -6    2    1    2    0  502  0.10965155807E+03  0.92829500740E+02  0.48116001291E+03  0.53125633516E+03  0.17342881889E+03 0.  0.
        -24    2    5    5    0    0  0.39079748619E+02  0.64893250333E+02  0.12658096554E+03  0.16861435577E+03  0.81668227874E+02 0.  0.
          5    1    3    3  501    0 -0.56447171624E+02  0.62275858227E+01  0.12727679883E+03  0.13945084987E+03  0.47000000000E+01 0. -1.
        -11    1    4    4    0    0 -0.54792069424E+02 -0.95531251438E+02  0.17140662608E+02  0.11145489306E+03  0.00000000000E+00 0.  1.
         12    1    4    4    0    0  0.15876829755E+01 -0.35258351251E+01  0.37282236166E+02  0.37482227577E+02  0.00000000000E+00 0. -1.
         -5    1    5    5    0  502  0.70571809453E+02  0.27936250407E+02  0.35457904737E+03  0.36264197938E+03  0.47000000000E+01 0.  1.
         13    1    6    6    0    0 -0.54858424836E+01 -0.16232209172E+02  0.31875050333E+02  0.36188367138E+02  0.00000000000E+00 0. -1.
        -14    1    6    6    0    0  0.44565591103E+02  0.81125459505E+02  0.94705915210E+02  0.13242598864E+03  0.00000000000E+00 0.  1.
</event>
<event>
12    1  0.8451514E-002  0.2011512E+03  0.7818608E-02  0.1149151E+00
         21   -1    0    0  501  502  0.00000000000E+00  0.00000000000E+00  0.11734582765E+03  0.11734582765E+03  0.00000000000E+00 0.  1.
         21   -1    0    0  502  503 -0.00000000000E+00 -0.00000000000E+00 -0.65152474488E+03  0.65152474488E+03  0.00000000000E+00 0.  1.
         -6    2    1    2    0  503 -0.10209996147E+03  0.22104148249E+02 -0.53281534770E+03  0.56952083939E+03  0.17189763304E+03 0.  0.
        -24    2    3    3    0    0 -0.17868107260E+02 -0.43320911799E+02 -0.33016683009E+03  0.34047072383E+03  0.68660086199E+02 0.  0.
          6    2    1    2  501    0  0.10209996147E+03 -0.22104148249E+02 -0.13635695275E+01  0.19934973315E+03  0.16978062694E+03 0.  0.
         24    2    5    5    0    0  0.57756540931E+02 -0.77418986799E+02 -0.17496621456E+02  0.12649072086E+03  0.79776269422E+02 0.  0.
          5    1    5    5  501    0  0.44343420534E+02  0.55314838550E+02  0.16133051928E+02  0.72859012298E+02  0.47000000000E+01 0. -1.
        -11    1    6    6    0    0  0.32144917731E+02 -0.29756331654E+02 -0.47505474561E+02  0.64618148555E+02  0.00000000000E+00 0.  1.
         12    1    6    6    0    0  0.25611623200E+02 -0.47662655145E+02  0.30008853105E+02  0.61872572301E+02  0.00000000000E+00 0. -1.
         -5    1    3    3    0  503 -0.84231854205E+02  0.65425060048E+02 -0.20264851761E+03  0.22905011556E+03  0.47000000000E+01 0.  1.
         11    1    4    4    0    0 -0.32123752664E+02 -0.33034536978E+02 -0.31126718196E+03  0.31465929938E+03  0.00000000000E+00 0. -1.
        -12    1    4    4    0    0  0.14255645404E+02 -0.10286374822E+02 -0.18899648129E+02  0.25811424452E+02  0.00000000000E+00 0.  1.
</event>
<event>
12    1  0.8451514E-002  0.2425443E+03  0.7818608E-02  0.1118342E+00
         21   -1    0    0  501  502  0.00000000000E+00  0.00000000000E+00  0.96133812820E+03  0.96133812820E+03  0.00000000000E+00 0. -1.
         21   -1    0    0  502  503 -0.00000000000E+00 -0.00000000000E+00 -0.68447882686E+02  0.68447882686E+02  0.00000000000E+00 0. -1.
         -6    2    1    2    0  503 -0.78150117702E+02  0.15143404117E+03  0.27360201340E+03  0.36469528744E+03  0.17060152760E+03 0.  0.
        -24    2    3    3    0    0 -0.84758548341E+02  0.10092101041E+03  0.10014578135E+03  0.18385173054E+03  0.80020118993E+02 0.  0.
          6    2    1    2  501    0  0.78150117702E+02 -0.15143404117E+03  0.61928823211E+03  0.66509072344E+03  0.17259213846E+03 0.  0.
         24    2    5    5    0    0  0.10247692970E+03 -0.79479409618E+02  0.51148490194E+03  0.53313273475E+03  0.76126278461E+02 0.  0.
          5    1    5    5  501    0 -0.24326812003E+02 -0.71954631557E+02  0.10780333017E+03  0.13195798869E+03  0.47000000000E+01 0. -1.
        -11    1    6    6    0    0  0.32920569866E+01  0.13779520592E+02  0.43695867005E+02  0.45935189347E+02  0.00000000000E+00 0.  1.
         12    1    6    6    0    0  0.99184872718E+02 -0.93258930210E+02  0.46778903494E+03  0.48719754540E+03  0.00000000000E+00 0. -1.
         -5    1    3    3    0  503  0.66084306391E+01  0.50513030769E+02  0.17345623205E+03  0.18084355690E+03  0.47000000000E+01 0.  1.
         11    1    4    4    0    0 -0.19446264056E+02  0.52251151285E+02  0.83994400979E+02  0.10081368653E+03  0.00000000000E+00 0. -1.
        -12    1    4    4    0    0 -0.65312284284E+02  0.48669859121E+02  0.16151380368E+02  0.83038044010E+02  0.00000000000E+00 0.  1.
</event>
<event>
12    1  0.8451514E-002  0.2090040E+03  0.7818608E-02  0.1142675E+00
         21   -1    0    0  503  502  0.00000000000E+00  0.00000000000E+00  0.18413756852E+02  0.18413756852E+02  0.00000000000E+00 0. -1.
         21   -1    0    0  501  503 -0.00000000000E+00 -0.00000000000E+00 -0.25943679252E+04  0.25943679252E+04  0.00000000000E+00 0. -1.
          6    2    1    2  501    0 -0.11193663159E+02 -0.11615697039E+03 -0.16809133838E+04  0.16936621614E+04  0.17147586750E+03 0.  0.
         24    2    3    3    0    0  0.52711147088E+01  0.76444275187E+01 -0.51389806387E+03  0.51997364988E+03  0.78709304406E+02 0.  0.
         -6    2    1    2    0  502  0.11193663159E+02  0.11615697039E+03 -0.89504078451E+03  0.91911952065E+03  0.17339246649E+03 0.  0.
        -24    2    5    5    0    0 -0.53731170366E+02  0.33742501640E+02 -0.38542824518E+03  0.39879807298E+03  0.80370241631E+02 0.  0.
          5    1    3    3  501    0 -0.16464777868E+02 -0.12380139791E+03 -0.11670153199E+04  0.11736885115E+04  0.47000000000E+01 0. -1.
        -13    1    4    4    0    0  0.40751757675E+02 -0.47579908249E+01 -0.30098076907E+03  0.30376432901E+03  0.00000000000E+00 0.  1.
         14    1    4    4    0    0 -0.35480642966E+02  0.12402418344E+02 -0.21291729480E+03  0.21620932087E+03  0.00000000000E+00 0. -1.
         -5    1    5    5    0  502  0.64924833525E+02  0.82414468751E+02 -0.50961253933E+03  0.52032144767E+03  0.47000000000E+01 0.  1.
         11    1    6    6    0    0 -0.16208321734E+02  0.53293978307E+02 -0.27404739320E+03  0.27965144651E+03  0.00000000000E+00 0. -1.
        -12    1    6    6    0    0 -0.37522848633E+02 -0.19551476667E+02 -0.11138085198E+03  0.11914662646E+03  0.00000000000E+00 0.  1.
</event>
<event>
12    1  0.8451514E-002  0.1770755E+03  0.7818608E-02  0.1171460E+00
         21   -1    0    0  501  502  0.00000000000E+00  0.00000000000E+00  0.15905326968E+03  0.15905326968E+03  0.00000000000E+00 0.  1.
         21   -1    0    0  502  503 -0.00000000000E+00 -0.00000000000E+00 -0.29510987853E+03  0.29510987853E+03  0.00000000000E+00 0.  1.
         -6    2    1    2    0  503  0.25426422346E+02 -0.32436371970E+02 -0.20160819390E+03  0.26833111678E+03  0.17221237821E+03 0.  0.
        -24    2    3    3    0    0  0.56650190979E+02  0.10219028051E+02 -0.19066316905E+03  0.21414356796E+03  0.78685138333E+02 0.  0.
          6    2    1    2  501    0 -0.25426422346E+02  0.32436371970E+02  0.65551585047E+02  0.18583203143E+03  0.16893167975E+03 0.  0.
         24    2    5    5    0    0 -0.28344808202E+02  0.56702477643E+02  0.99573556034E+02  0.14367820159E+03  0.81914183316E+02 0.  0.
          5    1    5    5  501    0  0.29183858558E+01 -0.24266105673E+02 -0.34021970987E+02  0.42153829843E+02  0.47000000000E+01 0. -1.
        -11    1    6    6    0    0 -0.42094350217E+02  0.22227584393E+02  0.12789791579E+02  0.49290755693E+02  0.00000000000E+00 0.  1.
         12    1    6    6    0    0  0.13749542015E+02  0.34474893250E+02  0.86783764455E+02  0.94387445898E+02  0.00000000000E+00 0. -1.
         -5    1    3    3    0  503 -0.31223768633E+02 -0.42655400020E+02 -0.10945024845E+02  0.54187548823E+02  0.47000000000E+01 0.  1.
         11    1    4    4    0    0 -0.12102723257E+02 -0.10452708291E+02 -0.80061954899E+01  0.17883908607E+02  0.00000000000E+00 0. -1.
        -12    1    4    4    0    0  0.68752914236E+02  0.20671736342E+02 -0.18265697356E+03  0.19625965935E+03  0.00000000000E+00 0.  1.
</event>
<event>
12    1  0.8451514E-002  0.2012737E+03  0.7818608E-02  0.1149165E+00
         21   -1    0    0  501  502  0.00000000000E+00  0.00000000000E+00  0.59302721781E+02  0.59302721781E+02  0.00000000000E+00 0.  1.
         21   -1    0    0  502  503 -0.00000000000E+00 -0.00000000000E+00 -0.15948693869E+04  0.15948693869E+04  0.00000000000E+00 0.  1.
         -6    2    1    2    0  503  0.62159011057E+02 -0.77668221919E+02 -0.13977722569E+04  0.14121892118E+04  0.17497140432E+03 0.  0.
        -24    2    3    3    0    0  0.50917958575E+02 -0.53253209164E+02 -0.41635320538E+03  0.43039091335E+03  0.80360462082E+02 0.  0.
          6    2    1    2  501    0 -0.62159011057E+02  0.77668221919E+02 -0.13779440818E+03  0.24198289687E+03  0.17225657637E+03 0.  0.
         24    2    5    5    0    0 -0.37388905234E+02  0.11950433011E+03 -0.11497716646E+03  0.18807061061E+03  0.80446197032E+02 0.  0.
          5    1    5    5  501    0 -0.24770105823E+02 -0.41836108190E+02 -0.22817241720E+02  0.53912286268E+02  0.47000000000E+01 0. -1.
        -13    1    6    6    0    0 -0.46852611640E+02  0.69225670708E+02 -0.29865406101E+02  0.88765439131E+02  0.00000000000E+00 0.  1.
         14    1    6    6    0    0  0.94637064064E+01  0.50278659401E+02 -0.85111760360E+02  0.99305171475E+02  0.00000000000E+00 0. -1.
         -5    1    3    3    0  503  0.11241052483E+02 -0.24415012755E+02 -0.98141905153E+03  0.98179829844E+03  0.47000000000E+01 0.  1.
         13    1    4    4    0    0 -0.82819059914E+01  0.14197773187E+02 -0.10797980818E+03  0.10922364994E+03  0.00000000000E+00 0. -1.
        -14    1    4    4    0    0  0.59199864566E+02 -0.67450982351E+02 -0.30837339720E+03  0.32116726341E+03  0.00000000000E+00 0.  1.
</event>
<event>
12    1  0.8451514E-002  0.1837326E+03  0.7818608E-02  0.1164476E+00
         21   -1    0    0  501  502  0.00000000000E+00  0.00000000000E+00  0.49897772878E+03  0.49897772878E+03  0.00000000000E+00 0. -1.
         21   -1    0    0  502  503 -0.00000000000E+00 -0.00000000000E+00 -0.88830291346E+02  0.88830291346E+02  0.00000000000E+00 0. -1.
         -6    2    1    2    0  503  0.44447568877E+02  0.41335132388E+02  0.60753765715E+02  0.19351660246E+03  0.17341705749E+03 0.  0.
        -24    2    3    3    0    0 -0.26397275074E+02  0.22726991368E+02 -0.13418493374E+02  0.89166859550E+02  0.80977408020E+02 0.  0.
          6    2    1    2  501    0 -0.44447568877E+02 -0.41335132388E+02  0.34939367172E+03  0.39429141767E+03  0.17235313940E+03 0.  0.
         24    2    5    5    0    0  0.56223924424E+01  0.12425855538E+02  0.76690204290E+02  0.11182634727E+03  0.80235474237E+02 0.  0.
          5    1    5    5  501    0 -0.50069961319E+02 -0.53760987927E+02  0.27270346743E+03  0.28246507040E+03  0.47000000000E+01 0. -1.
        -11    1    6    6    0    0 -0.14768815865E+02  0.32265688005E+02  0.75416296742E+02  0.83347527610E+02  0.00000000000E+00 0.  1.
         12    1    6    6    0    0  0.20391208308E+02 -0.19839832466E+02  0.12739075488E+01  0.28478819656E+02  0.00000000000E+00 0. -1.
         -5    1    3    3    0  503  0.70844843951E+02  0.18608141020E+02  0.74172259089E+02  0.10434974291E+03  0.47000000000E+01 0.  1.
         13    1    4    4    0    0 -0.20163875454E+02  0.32596279266E+02 -0.42858339227E+02  0.57497274167E+02  0.00000000000E+00 0. -1.
        -14    1    4    4    0    0 -0.62333996196E+01 -0.98692878982E+01  0.29439845854E+02  0.31669585383E+02  0.00000000000E+00 0.  1.
</event>
<event>
12    1  0.8451514E-002  0.3579918E+03  0.7818608E-02  0.1060169E+00
         21   -1    0    0  503  502  0.00000000000E+00  0.00000000000E+00  0.60316085431E+03  0.60316085431E+03  0.00000000000E+00 0. -1.
         21   -1    0    0  501  503 -0.00000000000E+00 -0.00000000000E+00 -0.56926531636E+03  0.56926531636E+03  0.00000000000E+00 0.  1.
          6    2    1    2  501    0  0.26691731164E+03 -0.14983393643E+03 -0.45018695583E+03  0.57035142670E+03  0.17010994969E+03 0.  0.
         24    2    3    3    0    0  0.13007291168E+03 -0.30872581260E+02 -0.28813872742E+03  0.32712331946E+03  0.78189905149E+02 0.  0.
         -6    2    1    2    0  502 -0.26691731164E+03  0.14983393643E+03  0.48408249379E+03  0.60207474397E+03  0.18564233562E+03 0.  0.
        -24    2    5    5    0    0 -0.19486285110E+03  0.11080094555E+03  0.45723703295E+03  0.51571394020E+03  0.81527808415E+02 0.  0.
          5    1    3    3  501    0  0.13684439996E+03 -0.11896135517E+03 -0.16204822841E+03  0.24322810725E+03  0.47000000000E+01 0. -1.
        -11    1    4    4    0    0  0.13336678184E+03 -0.44700360434E+02 -0.26179972726E+03  0.29719340153E+03  0.00000000000E+00 0.  1.
         12    1    4    4    0    0 -0.32938701610E+01  0.13827779174E+02 -0.26339000157E+02  0.29929917922E+02  0.00000000000E+00 0. -1.
         -5    1    5    5    0  502 -0.72054460533E+02  0.39032990876E+02  0.26845460844E+02  0.86360803767E+02  0.47000000000E+01 0.  1.
         11    1    6    6    0    0 -0.11621312678E+03  0.19806000304E+02  0.24057848013E+03  0.26791001024E+03  0.00000000000E+00 0. -1.
        -12    1    6    6    0    0 -0.78649724323E+02  0.90994945247E+02  0.21665855282E+03  0.24780392996E+03  0.00000000000E+00 0.  1.
</event>
<event>
12    1  0.8451514E-002  0.1862961E+03  0.7818608E-02  0.1161948E+00
         21   -1    0    0  503  502  0.00000000000E+00  0.00000000000E+00  0.22766900233E+03  0.22766900233E+03  0.00000000000E+00 0. -1.
         21   -1    0    0  501  503 -0.00000000000E+00 -0.00000000000E+00 -0.22676620739E+03  0.22676620739E+03  0.00000000000E+00 0. -1.
          6    2    1    2  501    0 -0.33150782090E+02  0.60550591896E+02 -0.12994944308E+03  0.22714116829E+03  0.17303440133E+03 0.  0.
         24    2    3    3    0    0  0.12010526396E+02 -0.18260152208E+02 -0.27656269596E+02  0.90259246506E+02  0.83091373974E+02 0.  0.
         -6    2    1    2    0  502  0.33150782090E+02 -0.60550591896E+02  0.13085223802E+03  0.22729404143E+03  0.17255412061E+03 0.  0.
        -24    2    5    5    0    0  0.67372066486E+02 -0.89856423801E+02  0.73094276159E+02  0.15389104252E+03  0.75673691075E+02 0.  0.
          5    1    3    3  501    0 -0.45161308486E+02  0.78810744104E+02 -0.10229317348E+03  0.13688192179E+03  0.47000000000E+01 0. -1.
        -13    1    4    4    0    0 -0.35788344652E+02 -0.87600881803E+01 -0.15889242774E+02  0.40124964720E+02  0.00000000000E+00 0.  1.
         14    1    4    4    0    0  0.47798871048E+02 -0.95000640279E+01 -0.11767026821E+02  0.50134281786E+02  0.00000000000E+00 0. -1.
         -5    1    5    5    0  502 -0.34221284396E+02  0.29305831906E+02  0.57757961862E+02  0.73402998902E+02  0.47000000000E+01 0.  1.
         13    1    6    6    0    0  0.57864915127E+02 -0.77355147190E+02  0.20171068802E+02  0.98686570596E+02  0.00000000000E+00 0. -1.
        -14    1    6    6    0    0  0.95071513584E+01 -0.12501276611E+02  0.52923207356E+02  0.55204471927E+02  0.00000000000E+00 0.  1.
</event>
<event>
12    1  0.8451514E-002  0.1993426E+03  0.7818608E-02  0.1152247E+00
         21   -1    0    0  503  502  0.00000000000E+00  0.00000000000E+00  0.37701098505E+03  0.37701098505E+03  0.00000000000E+00 0.  1.
         21   -1    0    0  501  503 -0.00000000000E+00 -0.00000000000E+00 -0.11757451960E+03  0.11757451960E+03  0.00000000000E+00 0.  1.
          6    2    1    2  501    0 -0.40760734378E+02  0.74666291872E+02  0.33496931815E+02  0.19327814230E+03  0.17028770725E+03 0.  0.
         24    2    3    3    0    0 -0.13713370560E+02  0.10111026115E+03  0.62542755886E+02  0.14535535757E+03  0.82493892015E+02 0.  0.
         -6    2    1    2    0  502  0.40760734378E+02 -0.74666291872E+02  0.22593953364E+03  0.30130736235E+03  0.18028022946E+03 0.  0.
        -24    2    5    5    0    0  0.27621209850E+02  0.18866552552E+02  0.17236745243E+03  0.19261928584E+03  0.79200836981E+02 0.  0.
          5    1    3    3  501    0 -0.27047363818E+02 -0.26443969273E+02 -0.29045824071E+02  0.47922784731E+02  0.47000000000E+01 0. -1.
        -11    1    4    4    0    0 -0.35999599361E+02  0.69318048973E+02  0.81576456345E+01  0.78533497629E+02  0.00000000000E+00 0.  1.
         12    1    4    4    0    0  0.22286228801E+02  0.31792212173E+02  0.54385110252E+02  0.66821859942E+02  0.00000000000E+00 0. -1.
         -5    1    5    5    0  502  0.13139524529E+02 -0.93532844424E+02  0.53572081203E+02  0.10868807651E+03  0.47000000000E+01 0.  1.
         11    1    6    6    0    0 -0.19395224619E+02  0.26093581221E+02  0.37622301053E+02  0.49724111410E+02  0.00000000000E+00 0. -1.
        -12    1    6    6    0    0  0.47016434469E+02 -0.72270286688E+01  0.13474515138E+03  0.14289517443E+03  0.00000000000E+00 0.  1.
</event>
<event>
12    1  0.8451514E-002  0.1819857E+03  0.7818608E-02  0.1166043E+00
         21   -1    0    0  503  502  0.00000000000E+00  0.00000000000E+00  0.11419800525E+03  0.11419800525E+03  0.00000000000E+00 0. -1.
         21   -1    0    0  501  503 -0.00000000000E+00 -0.00000000000E+00 -0.56815968787E+03  0.56815968787E+03  0.00000000000E+00 0.  1.
          6    2    1    2  501    0  0.58908075755E+02 -0.61375507688E+01 -0.46592367135E+03  0.49997932163E+03  0.17142527122E+03 0.  0.
         24    2    3    3    0    0  0.82799863994E+02 -0.45480945285E+02 -0.24700712177E+03  0.27622663245E+03  0.79776565516E+02 0.  0.
         -6    2    1    2    0  502 -0.58908075755E+02  0.61375507688E+01  0.11961988739E+02  0.18237837149E+03  0.17207832604E+03 0.  0.
        -24    2    5    5    0    0  0.27936793031E+00  0.16315149190E+02  0.63419950495E+02  0.10315243617E+03  0.79699892263E+02 0.  0.
          5    1    3    3  501    0 -0.23891788239E+02  0.39343394516E+02 -0.21891654958E+03  0.22375268918E+03  0.47000000000E+01 0. -1.
        -11    1    4    4    0    0  0.25809899921E+02  0.73041815127E+01 -0.14785899954E+03  0.15027237187E+03  0.00000000000E+00 0.  1.
         12    1    4    4    0    0  0.56989964072E+02 -0.52785126798E+02 -0.99148122230E+02  0.12595426058E+03  0.00000000000E+00 0. -1.
         -5    1    5    5    0  502 -0.59187443685E+02 -0.10177598421E+02 -0.51457961756E+02  0.79225935322E+02  0.47000000000E+01 0.  1.
         11    1    6    6    0    0 -0.38021275486E+02  0.19176515451E+02  0.38185918497E+02  0.57197207151E+02  0.00000000000E+00 0. -1.
        -12    1    6    6    0    0  0.38300643416E+02 -0.28613662609E+01  0.25234031998E+02  0.45955229016E+02  0.00000000000E+00 0.  1.
</event>
<event>
12    1  0.8451514E-002  0.2557675E+03  0.7818608E-02  0.1110842E+00
         21   -1    0    0  501  502  0.00000000000E+00  0.00000000000E+00  0.32550760534E+03  0.32550760534E+03  0.00000000000E+00 0.  1.
         21   -1    0    0  502  503 -0.00000000000E+00 -0.00000000000E+00 -0.34497739641E+03  0.34497739641E+03  0.00000000000E+00 0. -1.
         -6    2    1    2    0  503  0.18738013112E+03  0.18452012984E+02 -0.23061037513E+03  0.34438084267E+03  0.17310467745E+03 0.  0.
        -24    2    3    3    0    0  0.14778467433E+03  0.33395758936E+02 -0.24547210030E+03  0.29928010414E+03  0.79727297866E+02 0.  0.
          6    2    1    2  501    0 -0.18738013112E+03 -0.18452012984E+02  0.21114058406E+03  0.32610415908E+03  0.16220908115E+03 0.  0.
         24    2    5    5    0    0 -0.11348873784E+03 -0.60422681026E+02  0.18013443438E+03  0.23552300047E+03  0.80573415601E+02 0.  0.
          5    1    5    5  501    0 -0.73891393279E+02  0.41970668042E+02  0.31006149680E+02  0.90581158607E+02  0.47000000000E+01 0. -1.
        -13    1    6    6    0    0 -0.81116532078E+02 -0.27937522502E+02  0.54154011636E+02  0.10145468898E+03  0.00000000000E+00 0.  1.
         14    1    6    6    0    0 -0.32372205760E+02 -0.32485158524E+02  0.12598042275E+03  0.13406831149E+03  0.00000000000E+00 0. -1.
         -5    1    3    3    0  503  0.39595456787E+02 -0.14943745952E+02  0.14861725164E+02  0.45100738532E+02  0.47000000000E+01 0.  1.
         13    1    4    4    0    0  0.44821577407E+02 -0.18290476437E+02 -0.11754090245E+03  0.12711954641E+03  0.00000000000E+00 0. -1.
        -14    1    4    4    0    0  0.10296309692E+03  0.51686235373E+02 -0.12793119785E+03  0.17216055773E+03  0.00000000000E+00 0.  1.
</event>
<event>
12    1  0.8451514E-002  0.1780607E+03  0.7818608E-02  0.1170475E+00
         21   -1    0    0  501  502  0.00000000000E+00  0.00000000000E+00  0.51565529508E+03  0.51565529508E+03  0.00000000000E+00 0.  1.
         21   -1    0    0  502  503 -0.00000000000E+00 -0.00000000000E+00 -0.10957505398E+03  0.10957505398E+03  0.00000000000E+00 0.  1.
         -6    2    1    2    0  503 -0.43589662150E+02 -0.20441491671E+02 -0.53753763715E+01  0.17814179881E+03  0.17142838909E+03 0.  0.
        -24    2    3    3    0    0  0.60400030554E+01 -0.58240989700E+01  0.56361610843E+02  0.97455260730E+02  0.79060071473E+02 0.  0.
          6    2    1    2  501    0  0.43589662150E+02  0.20441491671E+02  0.41145561747E+03  0.44708855024E+03  0.16815032971E+03 0.  0.
         24    2    5    5    0    0  0.38055266557E+02 -0.50003385873E+02  0.19067858271E+03  0.21523148353E+03  0.77574014249E+02 0.  0.
          5    1    5    5  501    0  0.55343955936E+01  0.70444877544E+02  0.22077703476E+03  0.23185706671E+03  0.47000000000E+01 0. -1.
        -13    1    6    6    0    0  0.91084579853E+01 -0.54077301951E+02  0.17202583783E+03  0.18055527540E+03  0.00000000000E+00 0.  1.
         14    1    6    6    0    0  0.28946808571E+02  0.40739160787E+01  0.18652744876E+02  0.34676208127E+02  0.00000000000E+00 0. -1.
         -5    1    3    3    0  503 -0.49629665206E+02 -0.14617392702E+02 -0.61736987215E+02  0.80686538085E+02  0.47000000000E+01 0.  1.
         13    1    4    4    0    0  0.25895657990E+02  0.19962001294E+02  0.37737937475E+00  0.32698761652E+02  0.00000000000E+00 0. -1.
        -14    1    4    4    0    0 -0.19855654935E+02 -0.25786100264E+02  0.55984231468E+02  0.64756499078E+02  0.00000000000E+00 0.  1.
</event>
<event>
12    1  0.8451514E-002  0.2050499E+03  0.7818608E-02  0.1146225E+00
         21   -1    0    0  501  502  0.00000000000E+00  0.00000000000E+00  0.13581041961E+04  0.13581041961E+04  0.00000000000E+00 0. -1.
         21   -1    0    0  502  503 -0.00000000000E+00 -0.00000000000E+00 -0.33384870212E+02  0.33384870212E+02  0.00000000000E+00 0. -1.
         -6    2    1    2    0  503 -0.25615130807E+02  0.11059585887E+03  0.46145727888E+03  0.50496364480E+03  0.17075679608E+03 0.  0.
        -24    2    3    3    0    0 -0.12047140744E+01  0.61208845978E+02  0.11542042296E+03  0.15453741698E+03  0.82534629387E+02 0.  0.
          6    2    1    2  501    0  0.25615130807E+02 -0.11059585887E+03  0.86326204697E+03  0.88652542148E+03  0.16678843564E+03 0.  0.
         24    2    5    5    0    0  0.92160942693E+01 -0.12289484462E+02  0.22927053969E+03  0.24473075576E+03  0.84215168591E+02 0.  0.
          5    1    5    5  501    0  0.16399036538E+02 -0.98306374411E+02  0.63399150728E+03  0.64179466572E+03  0.47000000000E+01 0. -1.
        -11    1    6    6    0    0  0.30719436849E+01 -0.35482731220E+02  0.38460922299E+02  0.52418542492E+02  0.00000000000E+00 0.  1.
         12    1    6    6    0    0  0.61441505844E+01  0.23193246757E+02  0.19080961739E+03  0.19231221326E+03  0.00000000000E+00 0. -1.
         -5    1    3    3    0  503 -0.24410416733E+02  0.49387012896E+02  0.34603685592E+03  0.35042622782E+03  0.47000000000E+01 0.  1.
         13    1    4    4    0    0 -0.18632503780E+02  0.63976603605E+01  0.89160568963E+02  0.91311047048E+02  0.00000000000E+00 0. -1.
        -14    1    4    4    0    0  0.17427789705E+02  0.54811185617E+02  0.26259854002E+02  0.63226369933E+02  0.00000000000E+00 0.  1.
</event>
<event>
12    1  0.8451514E-002  0.2337068E+03  0.7818608E-02  0.1124131E+00
         21   -1    0    0  501  502  0.00000000000E+00  0.00000000000E+00  0.11519859089E+04  0.11519859089E+04  0.00000000000E+00 0.  1.
         21   -1    0    0  502  503 -0.00000000000E+00 -0.00000000000E+00 -0.64665987099E+02  0.64665987099E+02  0.00000000000E+00 0.  1.
         -6    2    1    2    0  503 -0.15498242885E+03 -0.30211045840E+02  0.22829098148E+03  0.32639935367E+03  0.17171926306E+03 0.  0.
        -24    2    3    3    0    0 -0.77614129076E+02 -0.47209369621E+02  0.44447547473E+02  0.12616125777E+03  0.75421488143E+02 0.  0.
          6    2    1    2  501    0  0.15498242885E+03  0.30211045840E+02  0.85902894037E+03  0.89025254238E+03  0.17229802169E+03 0.  0.
         24    2    5    5    0    0  0.59327918267E+02  0.58858687133E+01  0.19549691115E+03  0.21940357023E+03  0.79777434298E+02 0.  0.
          5    1    5    5  501    0  0.95654510583E+02  0.24325177127E+02  0.66353202922E+03  0.67084897215E+03  0.47000000000E+01 0. -1.
        -13    1    6    6    0    0  0.44080159558E+02  0.41006441176E+02  0.13489180401E+03  0.14771725516E+03  0.00000000000E+00 0.  1.
         14    1    6    6    0    0  0.15247758709E+02 -0.35120572463E+02  0.60605107141E+02  0.71686315064E+02  0.00000000000E+00 0. -1.
         -5    1    3    3    0  503 -0.77368299773E+02  0.16998323780E+02  0.18384343401E+03  0.20023809590E+03  0.47000000000E+01 0.  1.
         13    1    4    4    0    0 -0.87417545177E+01 -0.20973782237E+02  0.47226670937E+02  0.52408742221E+02  0.00000000000E+00 0. -1.
        -14    1    4    4    0    0 -0.68872374559E+02 -0.26235587384E+02 -0.27791234643E+01  0.73752515550E+02  0.00000000000E+00 0.  1.
</event>
<event>
12    1  0.8451514E-002  0.1988543E+03  0.7818608E-02  0.1150810E+00
         21   -1    0    0  503  502  0.00000000000E+00  0.00000000000E+00  0.77308174669E+02  0.77308174669E+02  0.00000000000E+00 0.  1.
         21   -1    0    0  501  503 -0.00000000000E+00 -0.00000000000E+00 -0.10825755032E+04  0.10825755032E+04  0.00000000000E+00 0.  1.
          6    2    1    2  501    0  0.14944549798E+02 -0.98220822975E+02 -0.92401343914E+03  0.94506926980E+03  0.17171027743E+03 0.  0.
         24    2    3    3    0    0 -0.56006464259E+02 -0.33410929410E+02 -0.50178169909E+03  0.51201488406E+03  0.78239080507E+02 0.  0.
         -6    2    1    2    0  502 -0.14944549798E+02  0.98220822975E+02 -0.81253889406E+02  0.21481440808E+03  0.17225668562E+03 0.  0.
        -24    2    5    5    0    0 -0.52649509998E+02  0.19286527665E+01 -0.41215867908E+02  0.10382351101E+03  0.79403293804E+02 0.  0.
          5    1    3    3  501    0  0.70951014056E+02 -0.64809893565E+02 -0.42223174005E+03  0.43305438574E+03  0.47000000000E+01 0. -1.
        -11    1    4    4    0    0 -0.48463319368E+02 -0.58094484174E+02 -0.35369739770E+03  0.36169809449E+03  0.00000000000E+00 0.  1.
         12    1    4    4    0    0 -0.75431448905E+01  0.24683554764E+02 -0.14808430139E+03  0.15031678957E+03  0.00000000000E+00 0. -1.
         -5    1    5    5    0  502  0.37704960200E+02  0.96292170209E+02 -0.40038021497E+02  0.11099089707E+03  0.47000000000E+01 0.  1.
         13    1    6    6    0    0 -0.55026255451E+01 -0.29357842838E+02 -0.36326207034E+02  0.47029300882E+02  0.00000000000E+00 0. -1.
        -14    1    6    6    0    0 -0.47146884453E+02  0.31286495605E+02 -0.48896608744E+01  0.56794210130E+02  0.00000000000E+00 0.  1.
</event>
<event>
12    1  0.8451514E-002  0.2049318E+03  0.7818608E-02  0.1145742E+00
         21   -1    0    0  503  502  0.00000000000E+00  0.00000000000E+00  0.23055272408E+04  0.23055272408E+04  0.00000000000E+00 0.  1.
         21   -1    0    0  501  503 -0.00000000000E+00 -0.00000000000E+00 -0.44512216703E+02  0.44512216703E+02  0.00000000000E+00 0. -1.
          6    2    1    2  501    0 -0.74182753499E+02 -0.82915499959E+02  0.22717932847E+03  0.30595343403E+03  0.17210170094E+03 0.  0.
         24    2    3    3    0    0  0.23373810376E+02 -0.64755676132E+02  0.11095688342E+03  0.15305866928E+03  0.79849193240E+02 0.  0.
         -6    2    1    2    0  502  0.74182753499E+02  0.82915499959E+02  0.20338356957E+04  0.20440860235E+04  0.17152834596E+03 0.  0.
        -24    2    5    5    0    0  0.41935547253E+02 -0.15581627307E+02  0.12808041930E+04  0.12839412344E+04  0.77745323710E+02 0.  0.
          5    1    3    3  501    0 -0.97556563875E+02 -0.18159823828E+02  0.11622244505E+03  0.15289476476E+03  0.47000000000E+01 0. -1.
        -11    1    4    4    0    0 -0.17744239104E+02 -0.35159559673E+02  0.10831314114E+02  0.40845685491E+02  0.00000000000E+00 0.  1.
         12    1    4    4    0    0  0.41118049480E+02 -0.29596116458E+02  0.10012556930E+03  0.11221298379E+03  0.00000000000E+00 0. -1.
         -5    1    5    5    0  502  0.32247206245E+02  0.98497127266E+02  0.75303150262E+03  0.76014478906E+03  0.47000000000E+01 0.  1.
         13    1    6    6    0    0  0.76057261580E+01 -0.42735801264E+02  0.48678764207E+03  0.48871914660E+03  0.00000000000E+00 0. -1.
        -14    1    6    6    0    0  0.34329821095E+02  0.27154173957E+02  0.79401655097E+03  0.79522208784E+03  0.00000000000E+00 0.  1.
</event>
<event>
12    1  0.8451514E-002  0.1926898E+03  0.7818608E-02  0.1156595E+00
         21   -1    0    0  503  502  0.00000000000E+00  0.00000000000E+00  0.20994324107E+03  0.20994324107E+03  0.00000000000E+00 0. -1.
         21   -1    0    0  501  503 -0.00000000000E+00 -0.00000000000E+00 -0.18866102877E+03  0.18866102877E+03  0.00000000000E+00 0. -1.
          6    2    1    2  501    0  0.66134394098E+02 -0.54035531547E+02  0.65018430726E+02  0.20336355889E+03  0.17273026370E+03 0.  0.
         24    2    3    3    0    0  0.14445524403E+02  0.39462204437E+01 -0.22917806532E+02  0.85939137929E+02  0.81462038648E+02 0.  0.
         -6    2    1    2    0  502 -0.66134394098E+02  0.54035531547E+02 -0.43736218428E+02  0.19524071096E+03  0.17003670680E+03 0.  0.
        -24    2    5    5    0    0  0.15442325462E+02  0.20631939952E+01 -0.51007336840E+02  0.98128177225E+02  0.82369099600E+02 0.  0.
          5    1    3    3  501    0  0.51688869695E+02 -0.57981751991E+02  0.87936237258E+02  0.11742442096E+03  0.47000000000E+01 0. -1.
        -13    1    4    4    0    0 -0.19905890451E+01 -0.13556767951E+02 -0.48769186050E+02  0.50657496089E+02  0.00000000000E+00 0.  1.
         14    1    4    4    0    0  0.16436113448E+02  0.17502988394E+02  0.25851379518E+02  0.35281641841E+02  0.00000000000E+00 0. -1.
         -5    1    5    5    0  502 -0.81576719560E+02  0.51972337552E+02  0.72711184121E+01  0.97112533732E+02  0.47000000000E+01 0.  1.
         13    1    6    6    0    0 -0.32553499001E+02  0.60269914204E+01 -0.32909438286E+02  0.46680681776E+02  0.00000000000E+00 0. -1.
        -14    1    6    6    0    0  0.47995824463E+02 -0.39637974252E+01 -0.18097898554E+02  0.51447495449E+02  0.00000000000E+00 0.  1.
</event>
<event>
12    1  0.8451514E-002  0.1955493E+03  0.7818608E-02  0.1153646E+00
         21   -1    0    0  503  502  0.00000000000E+00  0.00000000000E+00  0.22809063398E+04  0.22809063398E+04  0.00000000000E+00 0.  1.
         21   -1    0    0  501  503 -0.00000000000E+00 -0.00000000000E+00 -0.16770351191E+02  0.16770351191E+02  0.00000000000E+00 0.  1.
          6    2    1    2  501    0  0.59057910612E+02  0.71701225715E+02  0.10749013996E+04  0.10925440758E+04  0.17207741296E+03 0.  0.
         24    2    3    3    0    0  0.20253979372E+02  0.10436554674E+03  0.91863529627E+03  0.92818505412E+03  0.79588291262E+02 0.  0.
         -6    2    1    2    0  502 -0.59057910612E+02 -0.71701225715E+02  0.11892345890E+04  0.12051326152E+04  0.17157158860E+03 0.  0.
        -24    2    5    5    0    0 -0.56641265487E+02 -0.10369801464E+03  0.67568345286E+03  0.69055852522E+03  0.79758617581E+02 0.  0.
          5    1    3    3  501    0  0.38803931239E+02 -0.32664321023E+02  0.15626610335E+03  0.16435902167E+03  0.47000000000E+01 0. -1.
        -13    1    4    4    0    0 -0.16045892046E+02  0.14102736348E+02  0.53664875396E+02  0.57760511384E+02  0.00000000000E+00 0.  1.
         14    1    4    4    0    0  0.36299871419E+02  0.90262810390E+02  0.86497042088E+03  0.87042454274E+03  0.00000000000E+00 0. -1.
         -5    1    5    5    0  502 -0.24166451246E+01  0.31996788923E+02  0.51355113614E+03  0.51457409001E+03  0.47000000000E+01 0.  1.
         11    1    6    6    0    0 -0.21948295422E+02 -0.39161435802E+01  0.28416345577E+03  0.28503672298E+03  0.00000000000E+00 0. -1.
        -12    1    6    6    0    0 -0.34692970065E+02 -0.99781871057E+02  0.39151999709E+03  0.40552180224E+03  0.00000000000E+00 0.  1.
</event>
<event>
12    1  0.8451514E-002  0.1799178E+03  0.7818608E-02  0.1169938E+00
         21   -1    0    0  503  502  0.00000000000E+00  0.00000000000E+00  0.63243535343E+02  0.63243535343E+02  0.00000000000E+00 0.  1.
         21   -1    0    0  501  503 -0.00000000000E+00 -0.00000000000E+00 -0.63963079025E+03  0.63963079025E+03  0.00000000000E+00 0.  1.
          6    2    1    2  501    0  0.45162269390E+02 -0.23165456965E+02 -0.46413557027E+03  0.49778733887E+03  0.17260978589E+03 0.  0.
         24    2    3    3    0    0  0.10790553406E+02  0.51203504201E+02 -0.29026898449E+03  0.30552752275E+03  0.79704133634E+02 0.  0.
         -6    2    1    2    0  502 -0.45162269390E+02  0.23165456965E+02 -0.11225168464E+03  0.20508698672E+03  0.16396329602E+03 0.  0.
        -24    2    5    5    0    0  0.28245724318E+02  0.37242482628E+02 -0.85568936244E+02  0.12558255128E+03  0.79146136243E+02 0.  0.
          5    1    3    3  501    0  0.34371715984E+02 -0.74368961166E+02 -0.17386658578E+03  0.19225981612E+03  0.47000000000E+01 0. -1.
        -11    1    4    4    0    0 -0.17887604379E+02 -0.12909518333E+02 -0.10724066167E+03  0.10948598801E+03  0.00000000000E+00 0.  1.
         12    1    4    4    0    0  0.28678157785E+02  0.64113022535E+02 -0.18302832281E+03  0.19604153474E+03  0.00000000000E+00 0. -1.
         -5    1    5    5    0  502 -0.73407993708E+02 -0.14077025663E+02 -0.26682748393E+02  0.79504435433E+02  0.47000000000E+01 0.  1.
         13    1    6    6    0    0  0.37501318686E+02  0.45589365887E+02 -0.93668706609E+02  0.11071840761E+03  0.00000000000E+00 0. -1.
        -14    1    6    6    0    0 -0.92555943684E+01 -0.83468832590E+01  0.80997703650E+01  0.14864143676E+02  0.00000000000E+00 0.  1.
</event>
<event>
12    1  0.8451514E-002  0.2112362E+03  0.7818608E-02  0.1140635E+00
         21   -1    0    0  501  502  0.00000000000E+00  0.00000000000E+00  0.26284187198E+03  0.26284187198E+03  0.00000000000E+00 0. -1.
         21   -1    0    0  502  503 -0.00000000000E+00 -0.00000000000E+00 -0.19397183480E+03  0.19397183480E+03  0.00000000000E+00 0. -1.
         -6    2    1    2    0  503  0.85845176938E+02  0.86237381171E+02 -0.46572745266E+02  0.21609027391E+03  0.17239404155E+03 0.  0.
        -24    2    3    3    0    0  0.38538992030E+02  0.11632303995E+02  0.34721067963E+02  0.95946332157E+02  0.79872283621E+02 0.  0.
          6    2    1    2  501    0 -0.85845176938E+02 -0.86237381171E+02  0.11544278245E+03  0.24072343287E+03  0.17266862714E+03 0.  0.
         24    2    5    5    0    0  0.23043053409E+00 -0.37789883609E+02 -0.13024741604E+01  0.87727631740E+02  0.79160043774E+02 0.  0.
          5    1    5    5  501    0 -0.86075607472E+02 -0.48447497561E+02  0.11674525661E+03  0.15299580113E+03  0.47000000000E+01 0. -1.
        -13    1    6    6    0    0  0.25161886776E+02 -0.52888681906E+02 -0.11383244733E+01  0.58580107566E+02  0.00000000000E+00 0.  1.
         14    1    6    6    0    0 -0.24931456242E+02  0.15098798296E+02 -0.16414968712E+00  0.29147524174E+02  0.00000000000E+00 0. -1.
         -5    1    3    3    0  503  0.47306184908E+02  0.74605077175E+02 -0.81293813229E+02  0.12014394175E+03  0.47000000000E+01 0.  1.
         13    1    4    4    0    0 -0.10771275110E+02  0.11379869417E+02 -0.17928480035E+02  0.23810757901E+02  0.00000000000E+00 0. -1.
        -14    1    4    4    0    0  0.49310267141E+02  0.25243457792E+00  0.52649547998E+02  0.72135574255E+02  0.00000000000E+00 0.  1.
</event>
<event>
12    1  0.8451514E-002  0.2232585E+03  0.7818608E-02  0.1131753E+00
         21   -1    0    0  503  502  0.00000000000E+00  0.00000000000E+00  0.97083648359E+03  0.97083648359E+03  0.00000000000E+00 0.  1.
         21   -1    0    0  501  503 -0.00000000000E+00 -0.00000000000E+00 -0.83684118337E+02  0.83684118337E+02  0.00000000000E+00 0.  1.
          6    2    1    2  501    0  0.12030423230E+03  0.72315756410E+02  0.11495972834E+03  0.25111767349E+03  0.17361356475E+03 0.  0.
         24    2    3    3    0    0  0.82548447385E+02  0.10993202708E+03  0.49009315483E+02  0.16619400147E+03  0.79493624750E+02 0.  0.
         -6    2    1    2    0  502 -0.12030423230E+03 -0.72315756410E+02  0.77219263691E+03  0.80340292843E+03  0.17167445932E+03 0.  0.
        -24    2    5    5    0    0 -0.30499160596E+02 -0.66644906656E+02  0.22893386591E+03  0.25272217545E+03  0.78013079812E+02 0.  0.
          5    1    3    3  501    0  0.37755784918E+02 -0.37616270670E+02  0.65950412857E+02  0.84923672023E+02  0.47000000000E+01 0. -1.
        -11    1    4    4    0    0  0.52494426352E+02  0.11451784771E+03  0.27473288980E+02  0.12893713138E+03  0.00000000000E+00 0.  1.
         12    1    4    4    0    0  0.30054021033E+02 -0.45858206264E+01  0.21536026503E+02  0.37256870086E+02  0.00000000000E+00 0. -1.
         -5    1    5    5    0  502 -0.89805071707E+02 -0.56708497539E+01  0.54325877100E+03  0.55068075299E+03  0.47000000000E+01 0.  1.
         13    1    6    6    0    0  0.40720901971E+01  0.99719445353E+01  0.23154980238E+01  0.11017401122E+02  0.00000000000E+00 0. -1.
        -14    1    6    6    0    0 -0.34571250793E+02 -0.76616851192E+02  0.22661836789E+03  0.24170477433E+03  0.00000000000E+00 0.  1.
</event>
<event>
12    1  0.8451514E-002  0.1763987E+03  0.7818608E-02  0.1171496E+00
         21   -1    0    0  503  502  0.00000000000E+00  0.00000000000E+00  0.72066895489E+02  0.72066895489E+02  0.00000000000E+00 0. -1.
         21   -1    0    0  501  503 -0.00000000000E+00 -0.00000000000E+00 -0.49543267614E+03  0.49543267614E+03  0.00000000000E+00 0. -1.
          6    2    1    2  501    0 -0.35280775732E+02 -0.28601630678E+01 -0.31431838238E+03  0.36011626059E+03  0.17214750063E+03 0.  0.
         24    2    3    3    0    0  0.29408619456E+02 -0.44863340250E+02 -0.20197965142E+03  0.22376720406E+03  0.79989973309E+02 0.  0.
         -6    2    1    2    0  502  0.35280775732E+02  0.28601630678E+01 -0.10904739827E+03  0.20738331104E+03  0.17281084734E+03 0.  0.
        -24    2    5    5    0    0 -0.38141258139E+02  0.34976571760E+02 -0.71004129814E+02  0.11854841339E+03  0.79586580036E+02 0.  0.
          5    1    3    3  501    0 -0.64689395188E+02  0.42003177182E+02 -0.11233873096E+03  0.13634905653E+03  0.47000000000E+01 0. -1.
        -13    1    4    4    0    0 -0.97428157628E+00  0.95351340983E+01  0.25821484700E+01  0.99265048019E+01  0.00000000000E+00 0.  1.
         14    1    4    4    0    0  0.30382901032E+02 -0.54398474348E+02 -0.20456179989E+03  0.21384069926E+03  0.00000000000E+00 0. -1.
         -5    1    5    5    0  502  0.73422033871E+02 -0.32116408692E+02 -0.38043268458E+02  0.88834897648E+02  0.47000000000E+01 0.  1.
         13    1    6    6    0    0  0.21192459439E+02  0.15504443512E+02 -0.42375288137E+02  0.49851511014E+02  0.00000000000E+00 0. -1.
        -14    1    6    6    0    0 -0.59333717578E+02  0.19472128248E+02 -0.28628841677E+02  0.68696902374E+02  0.00000000000E+00 0.  1.
</event>
<event>
12    1  0.8451514E-002  0.1765971E+03  0.7818608E-02  0.1171339E+00
         21   -1    0    0  503  502  0.00000000000E+00  0.00000000000E+00  0.18965422279E+03  0.18965422279E+03  0.00000000000E+00 0.  1.
         21   -1    0    0  501  503 -0.00000000000E+00 -0.00000000000E+00 -0.18598762051E+03  0.18598762051E+03  0.00000000000E+00 0.  1.
          6    2    1    2  501    0  0.19950160861E+02  0.28426660431E+02 -0.63202530001E+02  0.18756626864E+03  0.17314866847E+03 0.  0.
         24    2    3    3    0    0 -0.20487560007E+02  0.22736003608E+02  0.26808021762E+02  0.88613844355E+02  0.78721518058E+02 0.  0.
         -6    2    1    2    0  502 -0.19950160861E+02 -0.28426660431E+02  0.66869132286E+02  0.18807557466E+03  0.17232195736E+03 0.  0.
        -24    2    5    5    0    0 -0.46563775270E+02  0.19850571328E+02  0.84840046577E+02  0.12990325015E+03  0.84349217818E+02 0.  0.
          5    1    3    3  501    0  0.40437720868E+02  0.56906568224E+01 -0.90010551763E+02  0.98952424290E+02  0.47000000000E+01 0. -1.
        -11    1    4    4    0    0  0.19023186729E+02  0.58019237309E+01  0.39131467909E+02  0.43895509258E+02  0.00000000000E+00 0.  1.
         12    1    4    4    0    0 -0.39510746736E+02  0.16934079878E+02 -0.12323446147E+02  0.44718335097E+02  0.00000000000E+00 0. -1.
         -5    1    5    5    0  502  0.26613614409E+02 -0.48277231759E+02 -0.17970914291E+02  0.58172324508E+02  0.47000000000E+01 0.  1.
         13    1    6    6    0    0  0.77289156292E+01 -0.19379859083E+02  0.50479359063E+02  0.54621248304E+02  0.00000000000E+00 0. -1.
        -14    1    6    6    0    0 -0.54292690899E+02  0.39230430412E+02  0.34360687515E+02  0.75282001845E+02  0.00000000000E+00 0.  1.
</event>
<event>
12    1  0.8451514E-002  0.1869681E+03  0.7818608E-02  0.1161736E+00
         21   -1    0    0  501  502  0.00000000000E+00  0.00000000000E+00  0.69584787179E+03  0.69584787179E+03  0.00000000000E+00 0. -1.
         21   -1    0    0  502  503 -0.00000000000E+00 -0.00000000000E+00 -0.54190525386E+02  0.54190525386E+02  0.00000000000E+00 0. -1.
         -6    2    1    2    0  503  0.72631204108E+02 -0.88821978890E+01  0.43118278477E+03  0.46997410639E+03  0.17205487946E+03 0.  0.
        -24    2    3    3    0    0 -0.12046717428E+02  0.39231402982E+02  0.15715159737E+03  0.17911254026E+03  0.75501332051E+02 0.  0.
          6    2    1    2  501    0 -0.72631204108E+02  0.88821978890E+01  0.21047456163E+03  0.28006429078E+03  0.16965341325E+03 0.  0.
         24    2    5    5    0    0 -0.86919629698E+02  0.50206502818E+02  0.10424508743E+03  0.16509190944E+03  0.79451780068E+02 0.  0.
          5    1    5    5  501    0  0.14288425591E+02 -0.41324304929E+02  0.10622947419E+03  0.11497238134E+03  0.47000000000E+01 0. -1.
        -11    1    6    6    0    0  0.11731284675E+02  0.15024674253E+02  0.27742659649E+01  0.19262928857E+02  0.00000000000E+00 0.  1.
         12    1    6    6    0    0 -0.98650914373E+02  0.35181828565E+02  0.10147082147E+03  0.14582898058E+03  0.00000000000E+00 0. -1.
         -5    1    3    3    0  503  0.84677921536E+02 -0.48113600871E+02  0.27403118740E+03  0.29086156613E+03  0.47000000000E+01 0.  1.
         11    1    4    4    0    0  0.22083322190E+02 -0.10901721241E+02  0.55938014928E+02  0.61119409021E+02  0.00000000000E+00 0. -1.
        -12    1    4    4    0    0 -0.34130039618E+02  0.50133124223E+02  0.10121358244E+03  0.11799313124E+03  0.00000000000E+00 0.  1.
</event>
<event>
12    1  0.8451514E-002  0.3921808E+03  0.7818608E-02  0.1046706E+00
         21   -1    0    0  501  502  0.00000000000E+00  0.00000000000E+00  0.58159613167E+03  0.58159613167E+03  0.00000000000E+00 0. -1.
         21   -1    0    0  502  503 -0.00000000000E+00 -0.00000000000E+00 -0.42246554092E+03  0.42246554092E+03  0.00000000000E+00 0.  1.
         -6    2    1    2    0  503 -0.93414097871E+02  0.33744125384E+03 -0.22894918975E+03  0.45232649375E+03  0.17201375521E+03 0.  0.
        -24    2    3    3    0    0 -0.87770326153E+02  0.24072874328E+03 -0.23273102631E+03  0.35526180322E+03  0.79957865326E+02 0.  0.
          6    2    1    2  501    0  0.93414097871E+02 -0.33744125384E+03  0.38807978050E+03  0.55173517884E+03  0.17667200702E+03 0.  0.
         24    2    5    5    0    0  0.91087722072E+02 -0.11131754698E+03  0.13805372146E+03  0.21458170781E+03  0.79359372102E+02 0.  0.
          5    1    5    5  501    0  0.23263757991E+01 -0.22612370686E+03  0.25002605904E+03  0.33715347103E+03  0.47000000000E+01 0. -1.
        -11    1    6    6    0    0  0.12821570774E+02 -0.13674131935E+01 -0.84282092504E+01  0.15404454132E+02  0.00000000000E+00 0.  1.
         12    1    6    6    0    0  0.78266151298E+02 -0.10995013379E+03  0.14648193071E+03  0.19917725368E+03  0.00000000000E+00 0. -1.
         -5    1    3    3    0  503 -0.56437717174E+01  0.96712510568E+02  0.37818365569E+01  0.97064690528E+02  0.47000000000E+01 0.  1.
         11    1    4    4    0    0  0.11375985048E+02  0.63516589761E+02 -0.44558628784E+02  0.78417100239E+02  0.00000000000E+00 0. -1.
        -12    1    4    4    0    0 -0.99146311201E+02  0.17721215351E+03 -0.18817239753E+03  0.27684470298E+03  0.00000000000E+00 0.  1.
</event>
<event>
12    1  0.8451514E-002  0.3225169E+03  0.7818608E-02  0.1074569E+00
         21   -1    0    0  501  502  0.00000000000E+00  0.00000000000E+00  0.85083893157E+03  0.85083893157E+03  0.00000000000E+00 0.  1.
         21   -1    0    0  502  503 -0.00000000000E+00 -0.00000000000E+00 -0.12207847052E+03  0.12207847052E+03  0.00000000000E+00 0. -1.
         -6    2    1    2    0  503  0.25193731653E+03  0.10338636215E+03  0.37526402207E+03  0.49440209237E+03  0.17160766692E+03 0.  0.
        -24    2    3    3    0    0  0.16946735637E+03  0.13714604722E+03  0.26053071118E+03  0.34905136726E+03  0.80202134455E+02 0.  0.
          6    2    1    2  501    0 -0.25193731653E+03 -0.10338636215E+03  0.35349643898E+03  0.47851530971E+03  0.17278894039E+03 0.  0.
         24    2    5    5    0    0 -0.12884576118E+03 -0.50528909199E+02  0.91656646249E+02  0.18435955439E+03  0.80206630993E+02 0.  0.
          5    1    5    5  501    0 -0.12309155535E+03 -0.52857452950E+02  0.26183979273E+03  0.29415575532E+03  0.47000000000E+01 0. -1.
        -11    1    6    6    0    0 -0.11162042635E+03 -0.61895447213E+02  0.48527377556E+02  0.13654696019E+03  0.00000000000E+00 0.  1.
         12    1    6    6    0    0 -0.17225334828E+02  0.11366538014E+02  0.43129268692E+02  0.47812594202E+02  0.00000000000E+00 0. -1.
         -5    1    3    3    0  503  0.82469960159E+02 -0.33759685076E+02  0.11473331089E+03  0.14535072512E+03  0.47000000000E+01 0.  1.
         13    1    4    4    0    0  0.14014701870E+03  0.68763543850E+02  0.19593613524E+03  0.25052061972E+03  0.00000000000E+00 0. -1.
        -14    1    4    4    0    0  0.29320337676E+02  0.68382503375E+02  0.64594575934E+02  0.98530747533E+02  0.00000000000E+00 0.  1.
</event>
<event>
12    1  0.8451514E-002  0.2125092E+03  0.7818608E-02  0.1139859E+00
         21   -1    0    0  501  502  0.00000000000E+00  0.00000000000E+00  0.66468205634E+02  0.66468205634E+02  0.00000000000E+00 0. -1.
         21   -1    0    0  502  503 -0.00000000000E+00 -0.00000000000E+00 -0.11609290499E+04  0.11609290499E+04  0.00000000000E+00 0.  1.
         -6    2    1    2    0  503  0.43828041179E+02 -0.11644109543E+03 -0.94321289851E+03  0.96655992301E+03  0.17061092275E+03 0.  0.
        -24    2    3    3    0    0 -0.40479708932E+02 -0.34644918255E+02 -0.44458069022E+03  0.45425671156E+03  0.76539484433E+02 0.  0.
          6    2    1    2  501    0 -0.43828041179E+02  0.11644109543E+03 -0.15124794578E+03  0.26083733254E+03  0.17228101186E+03 0.  0.
         24    2    5    5    0    0 -0.30067653306E+02  0.15018658729E+03 -0.14149909395E+03  0.22282106488E+03  0.78531258683E+02 0.  0.
          5    1    5    5  501    0 -0.13760387873E+02 -0.33745491854E+02 -0.97488518308E+01  0.38016267661E+02  0.47000000000E+01 0. -1.
        -13    1    6    6    0    0 -0.33308215273E+02  0.60097804772E+02 -0.10517634794E+03  0.12563139540E+03  0.00000000000E+00 0.  1.
         14    1    6    6    0    0  0.32405619665E+01  0.90088782514E+02 -0.36322746004E+02  0.97189669482E+02  0.00000000000E+00 0. -1.
         -5    1    3    3    0  503  0.84307750111E+02 -0.81796177177E+02 -0.49863220828E+03  0.51230321145E+03  0.47000000000E+01 0.  1.
         11    1    4    4    0    0 -0.23191051384E+02  0.11866590702E+02 -0.48264090138E+02  0.54845813296E+02  0.00000000000E+00 0. -1.
        -12    1    4    4    0    0 -0.17288657548E+02 -0.46511508957E+02 -0.39631660009E+03  0.39941089826E+03  0.00000000000E+00 0.  1.
</event>
<event>
12    1  0.8451514E-002  0.2155744E+03  0.7818608E-02  0.1138455E+00
         21   -1    0    0  501  502  0.00000000000E+00  0.00000000000E+00  0.54160614520E+03  0.54160614520E+03  0.00000000000E+00 0. -1.
         21   -1    0    0  502  503 -0.00000000000E+00 -0.00000000000E+00 -0.33884749585E+03  0.33884749585E+03  0.00000000000E+00 0.  1.
         -6    2    1    2    0  503  0.11579595874E+03 -0.20371340368E+02 -0.28128051308E+03  0.35057985105E+03  0.17310057584E+03 0.  0.
        -24    2    3    3    0    0  0.14455619240E+03 -0.18205925559E+01 -0.26649359028E+03  0.31300293832E+03  0.77795876578E+02 0.  0.
          6    2    1    2  501    0 -0.11579595874E+03  0.20371340368E+02  0.48403916243E+03  0.52987379000E+03  0.18068931068E+03 0.  0.
         24    2    5    5    0    0  0.17968746802E+02  0.58515415446E+01  0.15567987685E+03  0.17498545343E+03  0.77630976135E+02 0.  0.
          5    1    5    5  501    0 -0.13376470554E+03  0.14519798823E+02  0.32835928558E+03  0.35488833657E+03  0.47000000000E+01 0. -1.
        -11    1    6    6    0    0 -0.99129767707E+01 -0.27492257124E+02  0.29482771386E+02  0.41512951218E+02  0.00000000000E+00 0.  1.
         12    1    6    6    0    0  0.27881723573E+02  0.33343798668E+02  0.12619710547E+03  0.13347250221E+03  0.00000000000E+00 0. -1.
         -5    1    3    3    0  503 -0.28760233665E+02 -0.18550747812E+02 -0.14786922794E+02  0.37576912733E+02  0.47000000000E+01 0.  1.
         11    1    4    4    0    0 -0.47029479044E+01  0.32313324297E+01 -0.48048328991E+02  0.48385960227E+02  0.00000000000E+00 0. -1.
        -12    1    4    4    0    0  0.14925914031E+03 -0.50519249855E+01 -0.21844526129E+03  0.26461697809E+03  0.00000000000E+00 0.  1.
</event>
<event>
12    1  0.8451514E-002  0.2425933E+03  0.7818608E-02  0.1118140E+00
         21   -1    0    0  501  502  0.00000000000E+00  0.00000000000E+00  0.25132359644E+03  0.25132359644E+03  0.00000000000E+00 0. -1.
         21   -1    0    0  502  503 -0.00000000000E+00 -0.00000000000E+00 -0.72599648818E+03  0.72599648818E+03  0.00000000000E+00 0. -1.
         -6    2    1    2    0  503  0.14970168479E+03  0.80668231526E+02 -0.63963093218E+03  0.68395569058E+03  0.17248101135E+03 0.  0.
        -24    2    3    3    0    0  0.11936140779E+03  0.12225775046E+03 -0.53526757677E+03  0.56749101592E+03  0.79627703612E+02 0.  0.
          6    2    1    2  501    0 -0.14970168479E+03 -0.80668231526E+02  0.16495804044E+03  0.29336439404E+03  0.17301316301E+03 0.  0.
         24    2    5    5    0    0 -0.18088236842E+03 -0.71950191459E+02  0.14395834814E+03  0.25448874187E+03  0.78391660807E+02 0.  0.
          5    1    5    5  501    0  0.31180683630E+02 -0.87180400666E+01  0.20999692303E+02  0.38875652162E+02  0.47000000000E+01 0. -1.
        -11    1    6    6    0    0  0.55980297376E+01 -0.12889856409E+02  0.70087436146E+01  0.15703783692E+02  0.00000000000E+00 0.  1.
         12    1    6    6    0    0 -0.18648039816E+03 -0.59060335051E+02  0.13694960452E+03  0.23878495818E+03  0.00000000000E+00 0. -1.
         -5    1    3    3    0  503  0.30340277003E+02 -0.41589518937E+02 -0.10436335540E+03  0.11646467467E+03  0.47000000000E+01 0.  1.
         13    1    4    4    0    0  0.79806779247E+02  0.30217832449E+02 -0.29708300148E+03  0.30909634287E+03  0.00000000000E+00 0. -1.
        -14    1    4    4    0    0  0.39554628545E+02  0.92039918014E+02 -0.23818457530E+03  0.25839467304E+03  0.00000000000E+00 0.  1.
</event>
<event>
12    1  0.8451514E-002  0.1844836E+03  0.7818608E-02  0.1164880E+00
         21   -1    0    0  503  502  0.00000000000E+00  0.00000000000E+00  0.36635350546E+03  0.36635350546E+03  0.00000000000E+00 0.  1.
         21   -1    0    0  501  503 -0.00000000000E+00 -0.00000000000E+00 -0.46542273908E+03  0.46542273908E+03  0.00000000000E+00 0.  1.
          6    2    1    2  501    0  0.26221448903E+02 -0.40238858430E+02 -0.42285916465E+03  0.45911808480E+03  0.17225798254E+03 0.  0.
         24    2    3    3    0    0  0.13940983721E+02 -0.20835062933E+02 -0.42741481654E+03  0.43524003904E+03  0.78243308419E+02 0.  0.
         -6    2    1    2    0  502 -0.26221448903E+02  0.40238858430E+02  0.32378993102E+03  0.37265815974E+03  0.17812202133E+03 0.  0.
        -24    2    5    5    0    0  0.53022577759E+02  0.36999813254E+02  0.14884360433E+03  0.18051650784E+03  0.79065865694E+02 0.  0.
          5    1    3    3  501    0  0.12280465182E+02 -0.19403795497E+02  0.45556518928E+01  0.23878045752E+02  0.47000000000E+01 0. -1.
        -11    1    4    4    0    0 -0.88693356307E+01  0.27389865872E+02 -0.14486953487E+03  0.14770257953E+03  0.00000000000E+00 0.  1.
         12    1    4    4    0    0  0.22810319352E+02 -0.48224928804E+02 -0.28254528167E+03  0.28753745951E+03  0.00000000000E+00 0. -1.
         -5    1    5    5    0  502 -0.79244026661E+02  0.32390451757E+01  0.17494632669E+03  0.19214165191E+03  0.47000000000E+01 0.  1.
         13    1    6    6    0    0  0.24672265755E+02 -0.22229664717E+02  0.72983186955E+02  0.80183690792E+02  0.00000000000E+00 0. -1.
        -14    1    6    6    0    0  0.28350312004E+02  0.59229477971E+02  0.75860417379E+02  0.10033281705E+03  0.00000000000E+00 0.  1.
</event>
<event>
12    1  0.8451514E-002  0.1950694E+03  0.7818608E-02  0.1154291E+00
         21   -1    0    0  501  502  0.00000000000E+00  0.00000000000E+00  0.78495925889E+02  0.78495925889E+02  0.00000000000E+00 0. -1.
         21   -1    0    0  502  503 -0.00000000000E+00 -0.00000000000E+00 -0.48291942641E+03  0.48291942641E+03  0.00000000000E+00 0.  1.
         -6    2    1    2    0  503 -0.78103743528E+02  0.42419134143E+02 -0.18418344853E+03  0.26720834634E+03  0.17198017311E+03 0.  0.
        -24    2    3    3    0    0  0.25018266198E+02  0.11789220498E+02 -0.70413890841E+02  0.11056243111E+03  0.80629000898E+02 0.  0.
          6    2    1    2  501    0  0.78103743528E+02 -0.42419134143E+02 -0.22024005198E+03  0.29420700596E+03  0.17364476428E+03 0.  0.
         24    2    5    5    0    0  0.40839907971E+02  0.41854384157E+02 -0.86903097486E+02  0.13206061296E+03  0.80424931377E+02 0.  0.
          5    1    5    5  501    0  0.37263835557E+02 -0.84273518299E+02 -0.13333695450E+03  0.16214639300E+03  0.47000000000E+01 0. -1.
        -11    1    6    6    0    0 -0.17608923768E+02  0.19532532603E+02 -0.56877037971E+02  0.62662520492E+02  0.00000000000E+00 0.  1.
         12    1    6    6    0    0  0.58448831739E+02  0.22321851554E+02 -0.30026059515E+02  0.69398092470E+02  0.00000000000E+00 0. -1.
         -5    1    3    3    0  503 -0.10312200973E+03  0.30629913645E+02 -0.11376955769E+03  0.15664591523E+03  0.47000000000E+01 0.  1.
         13    1    4    4    0    0 -0.38323218198E+01 -0.59591625489E+01  0.16134542658E+02  0.17621628063E+02  0.00000000000E+00 0. -1.
        -14    1    4    4    0    0  0.28850588018E+02  0.17748383047E+02 -0.86548433498E+02  0.92940803046E+02  0.00000000000E+00 0.  1.
</event>
<event>
12    1  0.8451514E-002  0.2144865E+03  0.7818608E-02  0.1138155E+00
         21   -1    0    0  503  502  0.00000000000E+00  0.00000000000E+00  0.41393748794E+03  0.41393748794E+03  0.00000000000E+00 0.  1.
         21   -1    0    0  501  503 -0.00000000000E+00 -0.00000000000E+00 -0.18024382224E+03  0.18024382224E+03  0.00000000000E+00 0.  1.
          6    2    1    2  501    0  0.11204894427E+03 -0.60582157105E+02 -0.67525753730E+02  0.22440086276E+03  0.17196178680E+03 0.  0.
         24    2    3    3    0    0  0.10864874610E+03  0.15731481722E+02 -0.53053661633E+02  0.14651078465E+03  0.81232317817E+02 0.  0.
         -6    2    1    2    0  502 -0.11204894427E+03  0.60582157105E+02  0.30121941943E+03  0.36978044742E+03  0.17256673197E+03 0.  0.
        -24    2    5    5    0    0 -0.17261334072E+02 -0.34578963919E+01  0.19392206534E+03  0.21287081836E+03  0.86013412794E+02 0.  0.
          5    1    3    3  501    0  0.34001981673E+01 -0.76313638827E+02 -0.14472092097E+02  0.77890078111E+02  0.47000000000E+01 0. -1.
        -13    1    4    4    0    0  0.94050190529E+02 -0.21245267802E+02 -0.32445752136E+02  0.10173262296E+03  0.00000000000E+00 0.  1.
         14    1    4    4    0    0  0.14598555573E+02  0.36976749523E+02 -0.20607909497E+02  0.44778161686E+02  0.00000000000E+00 0. -1.
         -5    1    5    5    0  502 -0.94787610198E+02  0.64040053497E+02  0.10729735409E+03  0.15690962906E+03  0.47000000000E+01 0.  1.
         11    1    6    6    0    0  0.23720182849E+02  0.10151412568E+02  0.17342694454E+02  0.31088057231E+02  0.00000000000E+00 0. -1.
        -12    1    6    6    0    0 -0.40981516920E+02 -0.13609308960E+02  0.17657937089E+03  0.18178276113E+03  0.00000000000E+00 0.  1.
</event>
<event>
12    1  0.8451514E-002  0.2140477E+03  0.7818608E-02  0.1139323E+00
         21   -1    0    0  503  502  0.00000000000E+00  0.00000000000E+00  0.25213465321E+03  0.25213465321E+03  0.00000000000E+00 0.  1.
         21   -1    0    0  501  503 -0.00000000000E+00 -0.00000000000E+00 -0.20792961712E+03  0.20792961712E+03  0.00000000000E+00 0. -1.
          6    2    1    2  501    0  0.12003569696E+03  0.10765338348E+02  0.10997992793E+03  0.24064916002E+03  0.17689537195E+03 0.  0.
         24    2    3    3    0    0  0.93684364050E+02 -0.60904621982E+02  0.86543260561E+02  0.16063451550E+03  0.76338578558E+02 0.  0.
         -6    2    1    2    0  502 -0.12003569696E+03 -0.10765338348E+02 -0.65774891843E+02  0.21941511031E+03  0.17114962221E+03 0.  0.
        -24    2    5    5    0    0 -0.31797896014E+02  0.23439794695E+02  0.23164190188E+02  0.89460691553E+02  0.76851190361E+02 0.  0.
          5    1    3    3  501    0  0.26351332907E+02  0.71669960330E+02  0.23436667369E+02  0.80014644516E+02  0.47000000000E+01 0. -1.
        -13    1    4    4    0    0  0.36888104373E+02 -0.33404174082E+02  0.83810097265E+02  0.97471552229E+02  0.00000000000E+00 0.  1.
         14    1    4    4    0    0  0.56796259677E+02 -0.27500447899E+02  0.27331632953E+01  0.63162963274E+02  0.00000000000E+00 0. -1.
         -5    1    5    5    0  502 -0.88237800942E+02 -0.34205133043E+02 -0.88939082031E+02  0.12995441876E+03  0.47000000000E+01 0.  1.
         11    1    6    6    0    0  0.13242659716E+02  0.32017672194E+02 -0.59395202276E+01  0.35153623847E+02  0.00000000000E+00 0. -1.
        -12    1    6    6    0    0 -0.45040555730E+02 -0.85778774992E+01  0.29103710416E+02  0.54307067706E+02  0.00000000000E+00 0.  1.
</event>
<event>
12    1  0.8451514E-002  0.1885780E+03  0.7818608E-02  0.1160207E+00
         21   -1    0    0  503  502  0.00000000000E+00  0.00000000000E+00  0.55693601003E+03  0.55693601003E+03  0.00000000000E+00 0. -1.
         21   -1    0    0  501  503 -0.00000000000E+00 -0.00000000000E+00 -0.74437389555E+02  0.74437389555E+02  0.00000000000E+00 0. -1.
          6    2    1    2  501    0  0.76025464785E+02 -0.66871966177E+01  0.36511297461E+03  0.41093692030E+03  0.17244442103E+03 0.  0.
         24    2    3    3    0    0  0.94628826039E+02  0.13889407531E+00  0.14894575680E+03  0.19381244766E+03  0.80148564490E+02 0.  0.
         -6    2    1    2    0  502 -0.76025464785E+02  0.66871966177E+01  0.11738564587E+03  0.22043647929E+03  0.17025939519E+03 0.  0.
        -24    2    5    5    0    0  0.23778148527E+02  0.23541380728E+01  0.32258284826E+02  0.89103717860E+02  0.79548307858E+02 0.  0.
          5    1    3    3  501    0 -0.18603361254E+02 -0.68260906930E+01  0.21616721781E+03  0.21712447264E+03  0.47000000000E+01 0. -1.
        -11    1    4    4    0    0  0.10481619566E+03 -0.22422513718E+01  0.15031107679E+03  0.18326178644E+03  0.00000000000E+00 0.  1.
         12    1    4    4    0    0 -0.10187369618E+02  0.23811454471E+01 -0.13653199970E+01  0.10550661214E+02  0.00000000000E+00 0. -1.
         -5    1    5    5    0  502 -0.99803613312E+02  0.43330585449E+01  0.85127361044E+02  0.13133276143E+03  0.47000000000E+01 0.  1.
         11    1    6    6    0    0  0.95884118410E+00  0.17378722092E+02 -0.22180143141E+02  0.28193937429E+02  0.00000000000E+00 0. -1.
        -12    1    6    6    0    0  0.22819307343E+02 -0.15024584020E+02  0.54438427967E+02  0.60909780431E+02  0.00000000000E+00 0.  1.
</event>
<event>
12    1  0.8451514E-002  0.2843709E+03  0.7818608E-02  0.1093942E+00
         21   -1    0    0  501  502  0.00000000000E+00  0.00000000000E+00  0.55932107334E+03  0.55932107334E+03  0.00000000000E+00 0.  1.
         21   -1    0    0  502  503 -0.00000000000E+00 -0.00000000000E+00 -0.14521781826E+03  0.14521781826E+03  0.00000000000E+00 0.  1.
         -6    2    1    2    0  503  0.16194425830E+03 -0.15012314327E+03  0.25560605552E+03  0.37898065520E+03  0.17183998503E+03 0.  0.
        -24    2    3    3    0    0  0.84253905344E+01 -0.70947970653E+02  0.94954949863E+02  0.14304079322E+03  0.79621757563E+02 0.  0.
          6    2    1    2  501    0 -0.16194425830E+03  0.15012314327E+03  0.15849719956E+03  0.32555823640E+03  0.17917561798E+03 0.  0.
         24    2    5    5    0    0 -0.56667019594E+02  0.29189584984E+02  0.36009217467E+01  0.10257130990E+03  0.80279038339E+02 0.  0.
          5    1    5    5  501    0 -0.10527723871E+03  0.12093355829E+03  0.15489627781E+03  0.22298692650E+03  0.47000000000E+01 0. -1.
        -11    1    6    6    0    0 -0.67385392685E+02  0.36764295595E+02  0.22108470583E+02  0.79882345042E+02  0.00000000000E+00 0.  1.
         12    1    6    6    0    0  0.10718373091E+02 -0.75747106107E+01 -0.18507548836E+02  0.22688964861E+02  0.00000000000E+00 0. -1.
         -5    1    3    3    0  503  0.15351886777E+03 -0.79175172620E+02  0.16065110565E+03  0.23593986197E+03  0.47000000000E+01 0.  1.
         11    1    4    4    0    0  0.33247155088E+02 -0.17360846287E+02  0.86953328026E+01  0.38501702791E+02  0.00000000000E+00 0. -1.
        -12    1    4    4    0    0 -0.24821764553E+02 -0.53587124366E+02  0.86259617060E+02  0.10453909043E+03  0.00000000000E+00 0.  1.
</event>
<event>
12    1  0.8451514E-002  0.3957236E+03  0.7818608E-02  0.1045336E+00
         21   -1    0    0  501  502  0.00000000000E+00  0.00000000000E+00  0.78901233313E+03  0.78901233313E+03  0.00000000000E+00 0.  1.
         21   -1    0    0  502  503 -0.00000000000E+00 -0.00000000000E+00 -0.20316139788E+03  0.20316139788E+03  0.00000000000E+00 0.  1.
         -6    2    1    2    0  503  0.68935967952E+02 -0.34886671626E+03  0.37096637186E+03  0.54187103851E+03  0.17189537499E+03 0.  0.
        -24    2    3    3    0    0  0.59622488423E+02 -0.90644642374E+02  0.12306762893E+03  0.18376315381E+03  0.82776585404E+02 0.  0.
          6    2    1    2  501    0 -0.68935967952E+02  0.34886671626E+03  0.21488456339E+03  0.45030269250E+03  0.17360007459E+03 0.  0.
         24    2    5    5    0    0 -0.55614390360E+02  0.29441387195E+03  0.23695503761E+03  0.38987279497E+03  0.77978317503E+02 0.  0.
          5    1    5    5  501    0 -0.13321577592E+02  0.54452844305E+02 -0.22070474218E+02  0.60429897523E+02  0.47000000000E+01 0. -1.
        -13    1    6    6    0    0 -0.47635512308E+02  0.19470506338E+03  0.11133097468E+03  0.22928975044E+03  0.00000000000E+00 0.  1.
         14    1    6    6    0    0 -0.79788780518E+01  0.99708808575E+02  0.12562406293E+03  0.16058304453E+03  0.00000000000E+00 0. -1.
         -5    1    3    3    0  503  0.93134795291E+01 -0.25822207388E+03  0.24789874293E+03  0.35810788470E+03  0.47000000000E+01 0.  1.
         13    1    4    4    0    0 -0.16435605364E+02 -0.81634554807E+01  0.40488073308E+02  0.44452842533E+02  0.00000000000E+00 0. -1.
        -14    1    4    4    0    0  0.76058093786E+02 -0.82481186893E+02  0.82579555625E+02  0.13931031128E+03  0.00000000000E+00 0.  1.
</event>
<event>
12    1  0.8451514E-002  0.2331722E+03  0.7818608E-02  0.1124766E+00
         21   -1    0    0  501  502  0.00000000000E+00  0.00000000000E+00  0.10269263788E+04  0.10269263788E+04  0.00000000000E+00 0.  1.
         21   -1    0    0  502  503 -0.00000000000E+00 -0.00000000000E+00 -0.55602746919E+02  0.55602746919E+02  0.00000000000E+00 0.  1.
         -6    2    1    2    0  503  0.11248214408E+03  0.11029455792E+03  0.61157971644E+03  0.65382766919E+03  0.16924464300E+03 0.  0.
        -24    2    3    3    0    0  0.36819957036E+02  0.89902840894E+02  0.51169019631E+03  0.52678202816E+03  0.78957065272E+02 0.  0.
          6    2    1    2  501    0 -0.11248214408E+03 -0.11029455792E+03  0.35974391543E+03  0.42870145653E+03  0.17190733520E+03 0.  0.
         24    2    5    5    0    0 -0.13058366454E+03 -0.10735353241E+03  0.22727402959E+03  0.29488563038E+03  0.82019364241E+02 0.  0.
          5    1    5    5  501    0  0.18101520462E+02 -0.29410255057E+01  0.13246988584E+03  0.13381582615E+03  0.47000000000E+01 0. -1.
        -11    1    6    6    0    0 -0.75347538979E+01 -0.51031263285E+02  0.49773046724E+02  0.71682065602E+02  0.00000000000E+00 0.  1.
         12    1    6    6    0    0 -0.12304891064E+03 -0.56322269127E+02  0.17750098287E+03  0.22320356478E+03  0.00000000000E+00 0. -1.
         -5    1    3    3    0  503  0.75662187040E+02  0.20391717023E+02  0.99889520134E+02  0.12704564102E+03  0.47000000000E+01 0.  1.
         11    1    4    4    0    0 -0.61124968685E+01 -0.10948246026E+02  0.98728357671E+02  0.99521431448E+02  0.00000000000E+00 0. -1.
        -12    1    4    4    0    0  0.42932453905E+02  0.10085108692E+03  0.41296183864E+03  0.42726059671E+03  0.00000000000E+00 0.  1.
</event>
<event>
12    1  0.8451514E-002  0.1986637E+03  0.7818608E-02  0.1151717E+00
         21   -1    0    0  501  502  0.00000000000E+00  0.00000000000E+00  0.19457057914E+03  0.19457057914E+03  0.00000000000E+00 0.  1.
         21   -1    0    0  502  503 -0.00000000000E+00 -0.00000000000E+00 -0.21925067586E+03  0.21925067586E+03  0.00000000000E+00 0.  1.
         -6    2    1    2    0  503 -0.85345079266E+02  0.25315149084E+02  0.50665152034E+02  0.20502251812E+03  0.17760246613E+03 0.  0.
        -24    2    3    3    0    0 -0.77403738411E+02  0.63467518528E+02  0.85711284369E+02  0.15240132865E+03  0.76552440061E+02 0.  0.
          6    2    1    2  501    0  0.85345079266E+02 -0.25315149084E+02 -0.75345248751E+02  0.20879873688E+03  0.17319170502E+03 0.  0.
         24    2    5    5    0    0  0.44258077596E+02 -0.76189773812E+02 -0.15287324852E+02  0.11988634534E+03  0.79845941858E+02 0.  0.
          5    1    5    5  501    0  0.41087001671E+02  0.50874624728E+02 -0.60057923898E+02  0.88912391546E+02  0.47000000000E+01 0. -1.
        -13    1    6    6    0    0  0.54301948467E+02 -0.15248997423E+02 -0.13982011551E+02  0.58109639275E+02  0.00000000000E+00 0.  1.
         14    1    6    6    0    0 -0.10043870871E+02 -0.60940776390E+02 -0.13053133017E+01  0.61776706062E+02  0.00000000000E+00 0. -1.
         -5    1    3    3    0  503 -0.79413408552E+01 -0.38152369443E+02 -0.35046132335E+02  0.52621189462E+02  0.47000000000E+01 0.  1.
         11    1    4    4    0    0 -0.61670032309E+01  0.53763677990E+02  0.36208487512E+02  0.65112361098E+02  0.00000000000E+00 0. -1.
        -12    1    4    4    0    0 -0.71236735180E+02  0.97038405379E+01  0.49502796857E+02  0.87288967556E+02  0.00000000000E+00 0.  1.
</event>
<event>
12    1  0.8451514E-002  0.1841251E+03  0.7818608E-02  0.1163942E+00
         21   -1    0    0  503  502  0.00000000000E+00  0.00000000000E+00  0.55650523981E+02  0.55650523981E+02  0.00000000000E+00 0.  1.
         21   -1    0    0  501  503 -0.00000000000E+00 -0.00000000000E+00 -0.60821649244E+03  0.60821649244E+03  0.00000000000E+00 0.  1.
          6    2    1    2  501    0 -0.41971248541E+02  0.49474976976E+02 -0.27370873020E+03  0.32987651751E+03  0.17231566605E+03 0.  0.
         24    2    3    3    0    0  0.38465047452E+02  0.33968944370E+02 -0.10260919928E+03  0.14011989907E+03  0.80445567197E+02 0.  0.
         -6    2    1    2    0  502  0.41971248541E+02 -0.49474976976E+02 -0.27885723826E+03  0.33399049891E+03  0.17198527548E+03 0.  0.
        -24    2    5    5    0    0  0.71142747197E+02  0.14970883969E+02 -0.20379814728E+03  0.23074224243E+03  0.80142870948E+02 0.  0.
          5    1    3    3  501    0 -0.80436295993E+02  0.15506032606E+02 -0.17109953092E+03  0.18975661844E+03  0.47000000000E+01 0. -1.
        -11    1    4    4    0    0  0.38239305853E+02 -0.18662755922E+02 -0.50806049819E+02  0.66270639569E+02  0.00000000000E+00 0.  1.
         12    1    4    4    0    0  0.22574159924E+00  0.52631700292E+02 -0.51803149464E+02  0.73849259504E+02  0.00000000000E+00 0. -1.
         -5    1    5    5    0  502 -0.29171498656E+02 -0.64445860945E+02 -0.75059090981E+02  0.10324825648E+03  0.47000000000E+01 0.  1.
         13    1    6    6    0    0  0.48731279221E+02 -0.24384995630E+02 -0.15435677904E+03  0.16369294677E+03  0.00000000000E+00 0. -1.
        -14    1    6    6    0    0  0.22411467976E+02  0.39355879599E+02 -0.49441368237E+02  0.67049295664E+02  0.00000000000E+00 0.  1.
</event>
<event>
12    1  0.8451514E-002  0.1846515E+03  0.7818608E-02  0.1163515E+00
         21   -1    0    0  501  502  0.00000000000E+00  0.00000000000E+00  0.28531115550E+03  0.28531115550E+03  0.00000000000E+00 0.  1.
         21   -1    0    0  502  503 -0.00000000000E+00 -0.00000000000E+00 -0.17388549970E+03  0.17388549970E+03  0.00000000000E+00 0.  1.
         -6    2    1    2    0  503  0.25248450107E+02 -0.61255279429E+02 -0.73197739241E+02  0.19807984982E+03  0.17172077446E+03 0.  0.
        -24    2    3    3    0    0  0.50616745293E+02 -0.84949341984E+01 -0.96543025070E+02  0.13487940045E+03  0.78978972933E+02 0.  0.
          6    2    1    2  501    0 -0.25248450107E+02  0.61255279429E+02  0.18462339504E+03  0.26111680538E+03  0.17235572102E+03 0.  0.
         24    2    5    5    0    0  0.83849733038E+01 -0.30782769545E+02  0.11466900047E+03  0.14062648648E+03  0.74892872516E+02 0.  0.
          5    1    5    5  501    0 -0.33633423411E+02  0.92038048973E+02  0.69954394572E+02  0.12049031890E+03  0.47000000000E+01 0. -1.
        -11    1    6    6    0    0  0.38222533536E+02 -0.20232035194E+02  0.92122143288E+02  0.10176829861E+03  0.00000000000E+00 0.  1.
         12    1    6    6    0    0 -0.29837560233E+02 -0.10550734351E+02  0.22546857180E+02  0.38858187872E+02  0.00000000000E+00 0. -1.
         -5    1    3    3    0  503 -0.25368295186E+02 -0.52760345230E+02  0.23345285829E+02  0.63200449365E+02  0.47000000000E+01 0.  1.
         13    1    4    4    0    0  0.16239845862E+02 -0.38562131756E+01 -0.98721494620E+02  0.10012260721E+03  0.00000000000E+00 0. -1.
        -14    1    4    4    0    0  0.34376899431E+02 -0.46387210228E+01  0.21784695500E+01  0.34756793246E+02  0.00000000000E+00 0.  1.
</event>
<event>
12    1  0.8451514E-002  0.2231016E+03  0.7818608E-02  0.1131625E+00
         21   -1    0    0  503  502  0.00000000000E+00  0.00000000000E+00  0.34086954171E+03  0.34086954171E+03  0.00000000000E+00 0. -1.
         21   -1    0    0  501  503 -0.00000000000E+00 -0.00000000000E+00 -0.15487623959E+03  0.15487623959E+03  0.00000000000E+00 0.  1.
          6    2    1    2  501    0 -0.58777492584E+02 -0.12979213668E+03  0.15263043596E+03  0.27016343467E+03  0.17143931601E+03 0.  0.
         24    2    3    3    0    0 -0.25759897003E+02  0.88844378493E+01  0.56036568057E+02  0.97902530060E+02  0.75513594160E+02 0.  0.
         -6    2    1    2    0  502  0.58777492584E+02  0.12979213668E+03  0.33362866169E+02  0.22558234663E+03  0.17167854232E+03 0.  0.
        -24    2    5    5    0    0  0.15565472544E+02 -0.16579235712E+01  0.28972501858E+02  0.87062448010E+02  0.80594238897E+02 0.  0.
          5    1    3    3  501    0 -0.33017595581E+02 -0.13867657453E+03  0.96593867898E+02  0.17226090461E+03  0.47000000000E+01 0. -1.
        -11    1    4    4    0    0  0.95982919159E+00  0.16197305706E+02 -0.14725265363E+02  0.21911353774E+02  0.00000000000E+00 0.  1.
         12    1    4    4    0    0 -0.26719726195E+02 -0.73128678565E+01  0.70761833421E+02  0.75991176285E+02  0.00000000000E+00 0. -1.
         -5    1    5    5    0  502  0.43212020040E+02  0.13145006025E+03  0.43903643109E+01  0.13851989862E+03  0.47000000000E+01 0.  1.
         13    1    6    6    0    0 -0.32341290279E+02  0.44256428708E+01  0.18941207836E+02  0.37740094410E+02  0.00000000000E+00 0. -1.
        -14    1    6    6    0    0  0.47906762824E+02 -0.60835664420E+01  0.10031294022E+02  0.49322353600E+02  0.00000000000E+00 0.  1.
</event>
<event>
12    1  0.8451514E-002  0.1915742E+03  0.7818608E-02  0.1157175E+00
         21   -1    0    0  503  502  0.00000000000E+00  0.00000000000E+00  0.32688101797E+02  0.32688101797E+02  0.00000000000E+00 0. -1.
         21   -1    0    0  501  503 -0.00000000000E+00 -0.00000000000E+00 -0.18765077971E+04  0.18765077971E+04  0.00000000000E+00 0. -1.
          6    2    1    2  501    0 -0.23501148579E+02 -0.81316246406E+02 -0.15274278607E+04  0.15393250444E+04  0.17123401094E+03 0.  0.
         24    2    3    3    0    0 -0.64490099502E+02 -0.78239144882E+02 -0.78092289941E+03  0.79167451774E+03  0.81410260402E+02 0.  0.
         -6    2    1    2    0  502  0.23501148579E+02  0.81316246406E+02 -0.31639183455E+03  0.36987085453E+03  0.17186046708E+03 0.  0.
        -24    2    5    5    0    0 -0.52323305504E+02  0.43999284486E+02 -0.18007032549E+03  0.20941043163E+03  0.82181150025E+02 0.  0.
          5    1    3    3  501    0  0.40988950922E+02 -0.30771015243E+01 -0.74650496134E+03  0.74765052662E+03  0.47000000000E+01 0. -1.
        -13    1    4    4    0    0 -0.66364395757E+02 -0.20867414948E+02 -0.34113171362E+03  0.34815302392E+03  0.00000000000E+00 0.  1.
         14    1    4    4    0    0  0.18742962547E+01 -0.57371729934E+02 -0.43979118579E+03  0.44352149382E+03  0.00000000000E+00 0. -1.
         -5    1    5    5    0  502  0.75824454084E+02  0.37316961921E+02 -0.13632150906E+03  0.16046042290E+03  0.47000000000E+01 0.  1.
         11    1    6    6    0    0 -0.20403519910E+02  0.35352078132E+02 -0.19076887134E+02  0.45055528802E+02  0.00000000000E+00 0. -1.
        -12    1    6    6    0    0 -0.31919785594E+02  0.86472063540E+01 -0.16099343835E+03  0.16435490282E+03  0.00000000000E+00 0.  1.
</event>
<event>
12    1  0.8451514E-002  0.2631927E+03  0.7818608E-02  0.1106090E+00
         21   -1    0    0  501  502  0.00000000000E+00  0.00000000000E+00  0.69416765921E+02  0.69416765921E+02  0.00000000000E+00 0. -1.
         21   -1    0    0  502  503 -0.00000000000E+00 -0.00000000000E+00 -0.99162752090E+03  0.99162752090E+03  0.00000000000E+00 0. -1.
         -6    2    1    2    0  503  0.17812548698E+03  0.70868632670E+02 -0.53163870205E+03  0.59322012143E+03  0.18033122511E+03 0.  0.
        -24    2    3    3    0    0  0.16721429790E+03  0.96858747984E+02 -0.52351487064E+03  0.56351108614E+03  0.78324235940E+02 0.  0.
          6    2    1    2  501    0 -0.17812548698E+03 -0.70868632670E+02 -0.39057205294E+03  0.46782416539E+03  0.17193565362E+03 0.  0.
         24    2    5    5    0    0 -0.12094373758E+03 -0.30717783466E+02 -0.12539337096E+03  0.19355483330E+03  0.78543020891E+02 0.  0.
          5    1    5    5  501    0 -0.57181749397E+02 -0.40150849203E+02 -0.26517868197E+03  0.27426933210E+03  0.47000000000E+01 0. -1.
        -11    1    6    6    0    0 -0.18651339411E+02  0.22730471185E+02 -0.12001634380E+02  0.31758243180E+02  0.00000000000E+00 0.  1.
         12    1    6    6    0    0 -0.10229239817E+03 -0.53448254651E+02 -0.11339173658E+03  0.16179659012E+03  0.00000000000E+00 0. -1.
         -5    1    3    3    0  503  0.10911189076E+02 -0.25990115315E+02 -0.81238314038E+01  0.29709035289E+02  0.47000000000E+01 0.  1.
         11    1    4    4    0    0  0.10906323845E+03  0.34082529383E+02 -0.21661703624E+03  0.24490681734E+03  0.00000000000E+00 0. -1.
        -12    1    4    4    0    0  0.58151059453E+02  0.62776218601E+02 -0.30689783440E+03  0.31860426880E+03  0.00000000000E+00 0.  1.
</event>
<event>
12    1  0.8451514E-002  0.2394975E+03  0.7818608E-02  0.1120147E+00
         21   -1    0    0  503  502  0.00000000000E+00  0.00000000000E+00  0.87522947334E+03  0.87522947334E+03  0.00000000000E+00 0.  1.
         21   -1    0    0  501  503 -0.00000000000E+00 -0.00000000000E+00 -0.90387604147E+02  0.90387604147E+02  0.00000000000E+00 0.  1.
          6    2    1    2  501    0  0.15705902504E+03 -0.55926252711E+02  0.13916672862E+03  0.27699540311E+03  0.17194124550E+03 0.  0.
         24    2    3    3    0    0  0.72000057981E+02 -0.86253637597E+02  0.12388437808E+03  0.18528706985E+03  0.79751243097E+02 0.  0.
         -6    2    1    2    0  502 -0.15705902504E+03  0.55926252711E+02  0.64567514057E+03  0.68862167437E+03  0.17177933571E+03 0.  0.
        -24    2    5    5    0    0 -0.10543277379E+03 -0.28203319166E+02  0.45547216604E+03  0.47428008671E+03  0.74667326248E+02 0.  0.
          5    1    3    3  501    0  0.85058967057E+02  0.30327384887E+02  0.15282350542E+02  0.91708333258E+02  0.47000000000E+01 0. -1.
        -13    1    4    4    0    0  0.43064751778E+02 -0.74479499795E+02  0.38288624565E+02  0.94168930686E+02  0.00000000000E+00 0.  1.
         14    1    4    4    0    0  0.28935306203E+02 -0.11774137802E+02  0.85595753513E+02  0.91118139168E+02  0.00000000000E+00 0. -1.
         -5    1    5    5    0  502 -0.51626251245E+02  0.84129571877E+02  0.19020297453E+03  0.21434158766E+03  0.47000000000E+01 0.  1.
         11    1    6    6    0    0 -0.72597711870E+02 -0.53677897718E+02  0.29444568554E+03  0.30797728197E+03  0.00000000000E+00 0. -1.
        -12    1    6    6    0    0 -0.32835061924E+02  0.25474578552E+02  0.16102648050E+03  0.16630280474E+03  0.00000000000E+00 0.  1.
</event>
<event>
12    1  0.8451514E-002  0.2035848E+03  0.7818608E-02  0.1147654E+00
         21   -1    0    0  503  502  0.00000000000E+00  0.00000000000E+00  0.10551586255E+03  0.10551586255E+03  0.00000000000E+00 0. -1.
         21   -1    0    0  501  503 -0.00000000000E+00 -0.00000000000E+00 -0.60722756208E+03  0.60722756208E+03  0.00000000000E+00 0. -1.
          6    2    1    2  501    0  0.89690020599E+01 -0.97658671139E+02 -0.46498106930E+03  0.50587168124E+03  0.17343904989E+03 0.  0.
         24    2    3    3    0    0  0.33041139958E+01 -0.12661551156E+03 -0.27341408484E+03  0.31198875497E+03  0.80866040463E+02 0.  0.
         -6    2    1    2    0  502 -0.89690020599E+01  0.97658671139E+02 -0.36730630229E+02  0.20687174339E+03  0.17840717466E+03 0.  0.
        -24    2    5    5    0    0 -0.21331164575E+02  0.10345794507E+03  0.32489020411E+02  0.13616173933E+03  0.79535638734E+02 0.  0.
          5    1    3    3  501    0  0.56648880640E+01  0.28956840425E+02 -0.19156698446E+03  0.19388292627E+03  0.47000000000E+01 0. -1.
        -13    1    4    4    0    0  0.41902049779E+02 -0.68832069020E+02 -0.15481017624E+03  0.17452743672E+03  0.00000000000E+00 0.  1.
         14    1    4    4    0    0 -0.38597935784E+02 -0.57783442543E+02 -0.11860390860E+03  0.13746131825E+03  0.00000000000E+00 0. -1.
         -5    1    5    5    0  502  0.12362162515E+02 -0.57992739334E+01 -0.69219650640E+02  0.70710004065E+02  0.47000000000E+01 0.  1.
         13    1    6    6    0    0  0.13068542800E+02  0.31450065288E+02 -0.21073923749E+02  0.40050014728E+02  0.00000000000E+00 0. -1.
        -14    1    6    6    0    0 -0.34399707374E+02  0.72007879784E+02  0.53562944160E+02  0.96111724599E+02  0.00000000000E+00 0.  1.
</event>
<event>
12    1  0.8451514E-002  0.2249561E+03  0.7818608E-02  0.1130695E+00
         21   -1    0    0  503  502  0.00000000000E+00  0.00000000000E+00  0.67214978154E+03  0.67214978154E+03  0.00000000000E+00 0. -1.
         21   -1    0    0  501  503 -0.00000000000E+00 -0.00000000000E+00 -0.19401520094E+03  0.19401520094E+03  0.00000000000E+00 0. -1.
          6    2    1    2  501    0 -0.26178813241E+02 -0.14199761888E+03 -0.10141445623E+03  0.24448795580E+03  0.16923597303E+03 0.  0.
         24    2    3    3    0    0 -0.64466217828E+02 -0.11677242707E+03 -0.30015672416E+02  0.15950494584E+03  0.82153479483E+02 0.  0.
         -6    2    1    2    0  502  0.26178813241E+02  0.14199761888E+03  0.57954903684E+03  0.62167702668E+03  0.17250097210E+03 0.  0.
        -24    2    5    5    0    0  0.51791611388E+02  0.31704778586E+02  0.36941493248E+03  0.38293248148E+03  0.80512912244E+02 0.  0.
          5    1    3    3  501    0  0.38287404587E+02 -0.25225191815E+02 -0.71398783812E+02  0.84983009961E+02  0.47000000000E+01 0. -1.
        -13    1    4    4    0    0 -0.27735402713E+02  0.21629167774E+01 -0.20705599623E+02  0.34679282409E+02  0.00000000000E+00 0.  1.
         14    1    4    4    0    0 -0.36730815115E+02 -0.11893534385E+03 -0.93100727930E+01  0.12482566343E+03  0.00000000000E+00 0. -1.
         -5    1    5    5    0  502 -0.25612798147E+02  0.11029284030E+03  0.21013410436E+03  0.23874454521E+03  0.47000000000E+01 0.  1.
         13    1    6    6    0    0  0.25650847484E+02 -0.24319814339E+02  0.18740681857E+03  0.19071112971E+03  0.00000000000E+00 0. -1.
        -14    1    6    6    0    0  0.26140763904E+02  0.56024592925E+02  0.18200811390E+03  0.19222135177E+03  0.00000000000E+00 0.  1.
</event>
<event>
12    1  0.8451514E-002  0.1756821E+03  0.7818608E-02  0.1172658E+00
         21   -1    0    0  501  502  0.00000000000E+00  0.00000000000E+00  0.26988132373E+02  0.26988132373E+02  0.00000000000E+00 0. -1.
         21   -1    0    0  502  503 -0.00000000000E+00 -0.00000000000E+00 -0.14583919013E+04  0.14583919013E+04  0.00000000000E+00 0. -1.
         -6    2    1    2    0  503  0.11790966534E+02 -0.12874956758E+02 -0.10653958052E+04  0.10793923196E+04  0.17237971636E+03 0.  0.
        -24    2    3    3    0    0 -0.26884082479E+02  0.46881360917E+02 -0.46366980214E+03  0.47345267772E+03  0.79038830552E+02 0.  0.
          6    2    1    2  501    0 -0.11790966534E+02  0.12874956758E+02 -0.36600796374E+03  0.40598771402E+03  0.17481247956E+03 0.  0.
         24    2    5    5    0    0  0.12357955777E+02  0.43070001948E+02 -0.35320557501E+03  0.36498890477E+03  0.80342879244E+02 0.  0.
          5    1    5    5  501    0 -0.24148922310E+02 -0.30195045189E+02 -0.12802388725E+02  0.40998809249E+02  0.47000000000E+01 0. -1.
        -11    1    6    6    0    0  0.33486266737E+02 -0.66836968186E+01 -0.89332399374E+02  0.95636182698E+02  0.00000000000E+00 0.  1.
         12    1    6    6    0    0 -0.21128310961E+02  0.49753698766E+02 -0.26387317564E+03  0.26935272207E+03  0.00000000000E+00 0. -1.
         -5    1    3    3    0  503  0.38675049013E+02 -0.59756317676E+02 -0.60172600304E+03  0.60593964192E+03  0.47000000000E+01 0.  1.
         13    1    4    4    0    0  0.27641917163E+02  0.13253408947E+02 -0.11934157516E+03  0.12321582689E+03  0.00000000000E+00 0. -1.
        -14    1    4    4    0    0 -0.54525999642E+02  0.33627951970E+02 -0.34432822698E+03  0.35023685084E+03  0.00000000000E+00 0.  1.
</event>
<event>
12    1  0.8451514E-002  0.2275484E+03  0.7818608E-02  0.1128778E+00
         21   -1    0    0  501  502  0.00000000000E+00  0.00000000000E+00  0.16009713791E+03  0.16009713791E+03  0.00000000000E+00 0. -1.
         21   -1    0    0  502  503 -0.00000000000E+00 -0.00000000000E+00 -0.46476614957E+03  0.46476614957E+03  0.00000000000E+00 0.  1.
         -6    2    1    2    0  503  0.14562067835E+03 -0.26365842367E+02  0.21364150670E+02  0.22854916007E+03  0.17285182101E+03 0.  0.
        -24    2    3    3    0    0  0.21210442750E+02 -0.24739752562E+02  0.52290506589E+02  0.10025621256E+03  0.79089018442E+02 0.  0.
          6    2    1    2  501    0 -0.14562067835E+03  0.26365842367E+02 -0.32603316234E+03  0.39631412742E+03  0.16990210428E+03 0.  0.
         24    2    5    5    0    0 -0.11302695336E+03  0.36408426884E+02 -0.33223524553E+03  0.36133184263E+03  0.77972920884E+02 0.  0.
          5    1    5    5  501    0 -0.32593724995E+02 -0.10042584517E+02  0.62020831950E+01  0.34982284785E+02  0.47000000000E+01 0. -1.
        -11    1    6    6    0    0 -0.85768238837E+02 -0.10109972605E+02 -0.23133404868E+03  0.24692882460E+03  0.00000000000E+00 0.  1.
         12    1    6    6    0    0 -0.27258714519E+02  0.46518399489E+02 -0.10090119685E+03  0.11440301803E+03  0.00000000000E+00 0. -1.
         -5    1    3    3    0  503  0.12441023560E+03 -0.16260898057E+01 -0.30926355920E+02  0.12829294751E+03  0.47000000000E+01 0.  1.
         13    1    4    4    0    0 -0.95668489233E+01  0.92222810317E+01  0.52773449862E+02  0.54420695293E+02  0.00000000000E+00 0. -1.
        -14    1    4    4    0    0  0.30777291673E+02 -0.33962033593E+02 -0.48294327298E+00  0.45835517263E+02  0.00000000000E+00 0.  1.
</event>
<event>
12    1  0.8451514E-002  0.1841800E+03  0.7818608E-02  0.1163995E+00
         21   -1    0    0  503  502  0.00000000000E+00  0.00000000000E+00  0.13811034840E+04  0.13811034840E+04  0.00000000000E+00 0. -1.
         21   -1    0    0  501  503 -0.00000000000E+00 -0.00000000000E+00 -0.73655662388E+02  0.73655662388E+02  0.00000000000E+00 0.  1.
          6    2    1    2  501    0  0.63579137660E+02 -0.14463123496E+02  0.59718895158E+02  0.19361981278E+03  0.17225213141E+03 0.  0.
         24    2    3    3    0    0 -0.95598919019E+01 -0.41065126177E+02 -0.24956538966E+02  0.78515497765E+02  0.61352411778E+02 0.  0.
         -6    2    1    2    0  502 -0.63579137660E+02  0.14463123496E+02  0.12477289265E+04  0.12611393336E+04  0.17144519873E+03 0.  0.
        -24    2    5    5    0    0 -0.93627524680E+02 -0.21937275737E+02  0.10760879004E+04  0.10830645559E+04  0.76264706322E+02 0.  0.
          5    1    3    3  501    0  0.73139029561E+02  0.26602002680E+02  0.84675434125E+02  0.11510431502E+03  0.47000000000E+01 0. -1.
        -13    1    4    4    0    0  0.34666683282E+01  0.10167957046E+02 -0.23264701024E+02  0.25625211288E+02  0.00000000000E+00 0.  1.
         14    1    4    4    0    0 -0.13026560230E+02 -0.51233083223E+02 -0.16918379423E+01  0.52890286477E+02  0.00000000000E+00 0. -1.
         -5    1    5    5    0  502  0.30048387020E+02  0.36400399234E+02  0.17164102605E+03  0.17807477769E+03  0.47000000000E+01 0.  1.
         11    1    6    6    0    0 -0.55641271103E+02 -0.28298641320E+02  0.92640735579E+03  0.92850813298E+03  0.00000000000E+00 0. -1.
        -12    1    6    6    0    0 -0.37986253577E+02  0.63613655825E+01  0.14968054461E+03  0.15455642293E+03  0.00000000000E+00 0.  1.
</event>
<event>
12    1  0.8451514E-002  0.2156702E+03  0.7818608E-02  0.1137309E+00
         21   -1    0    0  503  502  0.00000000000E+00  0.00000000000E+00  0.69871112172E+03  0.69871112172E+03  0.00000000000E+00 0. -1.
         21   -1    0    0  501  503 -0.00000000000E+00 -0.00000000000E+00 -0.10208342468E+03  0.10208342468E+03  0.00000000000E+00 0. -1.
          6    2    1    2  501    0 -0.12461531275E+03 -0.34038114528E+02  0.53567460380E+03  0.57746073472E+03  0.17270219913E+03 0.  0.
         24    2    3    3    0    0 -0.13357712826E+02 -0.32642026667E+02  0.35331267660E+03  0.36378302158E+03  0.79147387516E+02 0.  0.
         -6    2    1    2    0  502  0.12461531275E+03  0.34038114528E+02  0.60953093239E+02  0.22333381167E+03  0.17168326200E+03 0.  0.
        -24    2    5    5    0    0  0.62835862341E+02  0.65519995285E+02  0.93918857710E+02  0.14641410720E+03  0.66144716922E+02 0.  0.
          5    1    3    3  501    0 -0.11125759992E+03 -0.13960878611E+01  0.18236192720E+03  0.21367771314E+03  0.47000000000E+01 0. -1.
        -13    1    4    4    0    0  0.14217444117E+02  0.16507935326E+02  0.18516427238E+03  0.18644156032E+03  0.00000000000E+00 0.  1.
         14    1    4    4    0    0 -0.27575156943E+02 -0.49149961993E+02  0.16814840421E+03  0.17734146126E+03  0.00000000000E+00 0. -1.
         -5    1    5    5    0  502  0.61779450406E+02 -0.31481880756E+02 -0.32965764471E+02  0.76919704469E+02  0.47000000000E+01 0.  1.
         13    1    6    6    0    0  0.45316552174E+02  0.79788419612E+01  0.17653843588E+02  0.49283973191E+02  0.00000000000E+00 0. -1.
        -14    1    6    6    0    0  0.17519310166E+02  0.57541153323E+02  0.76265014121E+02  0.97130134013E+02  0.00000000000E+00 0.  1.
</event>
<event>
12    1  0.8451514E-002  0.1777827E+03  0.7818608E-02  0.1170132E+00
         21   -1    0    0  503  502  0.00000000000E+00  0.00000000000E+00  0.35838097935E+03  0.35838097935E+03  0.00000000000E+00 0. -1.
         21   -1    0    0  501  503 -0.00000000000E+00 -0.00000000000E+00 -0.95916558186E+02  0.95916558186E+02  0.00000000000E+00 0. -1.
          6    2    1    2  501    0 -0.21688209177E+02  0.39242280047E+02  0.65628857950E+02  0.18950943713E+03  0.17203588231E+03 0.  0.
         24    2    3    3    0    0  0.45422932814E+02  0.21095503365E+02  0.13975805141E+02  0.10277225509E+03  0.88648464165E+02 0.  0.
         -6    2    1    2    0  502  0.21688209177E+02 -0.39242280047E+02  0.19683556322E+03  0.26478810041E+03  0.17134224293E+03 0.  0.
        -24    2    5    5    0    0  0.73111124853E+01  0.20113405233E+02  0.18402874441E+03  0.20221092492E+03  0.81022700237E+02 0.  0.
          5    1    3    3  501    0 -0.67111141991E+02  0.18146776682E+02  0.51653052809E+02  0.86737182037E+02  0.47000000000E+01 0. -1.
        -13    1    4    4    0    0 -0.23108387170E+02 -0.86541039026E+01  0.13358790386E+02  0.28059728304E+02  0.00000000000E+00 0.  1.
         14    1    4    4    0    0  0.68531319983E+02  0.29749607267E+02  0.61701475535E+00  0.74712526784E+02  0.00000000000E+00 0. -1.
         -5    1    5    5    0  502  0.14377096692E+02 -0.59355685280E+02  0.12806818808E+02  0.62577175490E+02  0.47000000000E+01 0.  1.
         13    1    6    6    0    0  0.30661169086E+02 -0.20482021869E+02  0.76272578552E+02  0.84717924600E+02  0.00000000000E+00 0. -1.
        -14    1    6    6    0    0 -0.23350056600E+02  0.40595427102E+02  0.10775616586E+03  0.11749300032E+03  0.00000000000E+00 0.  1.
</event>
<event>
12    1  0.8451514E-002  0.2139661E+03  0.7818608E-02  0.1138866E+00
         21   -1    0    0  501  502  0.00000000000E+00  0.00000000000E+00  0.31903516373E+03  0.31903516373E+03  0.00000000000E+00 0. -1.
         21   -1    0    0  502  503 -0.00000000000E+00 -0.00000000000E+00 -0.17387654668E+03  0.17387654668E+03  0.00000000000E+00 0.  1.
         -6    2    1    2    0  503  0.29020594300E+02  0.11813309064E+03 -0.33045176017E+02  0.21445512742E+03  0.17349753895E+03 0.  0.
        -24    2    3    3    0    0 -0.51258358977E+02  0.27407195312E+02 -0.20334987378E+02  0.92555425549E+02  0.69097187836E+02 0.  0.
          6    2    1    2  501    0 -0.29020594300E+02 -0.11813309064E+03  0.17820379306E+03  0.27845658298E+03  0.17602231321E+03 0.  0.
         24    2    5    5    0    0 -0.15500385256E+02 -0.10468648406E+03  0.39649619980E+02  0.13851746708E+03  0.80096656819E+02 0.  0.
          5    1    5    5  501    0 -0.13520209044E+02 -0.13446606576E+02  0.13855417308E+03  0.13993911590E+03  0.47000000000E+01 0. -1.
        -13    1    6    6    0    0  0.22218456219E+01  0.11662865545E+02  0.13458848404E+02  0.17947134341E+02  0.00000000000E+00 0.  1.
         14    1    6    6    0    0 -0.17722230878E+02 -0.11634934961E+03  0.26190771576E+02  0.12057033274E+03  0.00000000000E+00 0. -1.
         -5    1    3    3    0  503  0.80278953277E+02  0.90725895328E+02 -0.12710188639E+02  0.12189970188E+03  0.47000000000E+01 0.  1.
         11    1    4    4    0    0 -0.53626215017E+02  0.46416011090E+02 -0.13372922871E+02  0.72173763161E+02  0.00000000000E+00 0. -1.
        -12    1    4    4    0    0  0.23678560402E+01 -0.19008815778E+02 -0.69620645063E+01  0.20381662388E+02  0.00000000000E+00 0.  1.
</event>
<event>
12    1  0.8451514E-002  0.2651272E+03  0.7818608E-02  0.1104293E+00
         21   -1    0    0  501  502  0.00000000000E+00  0.00000000000E+00  0.19179443342E+04  0.19179443342E+04  0.00000000000E+00 0. -1.
         21   -1    0    0  502  503 -0.00000000000E+00 -0.00000000000E+00 -0.36639368354E+02  0.36639368354E+02  0.00000000000E+00 0. -1.
         -6    2    1    2    0  503 -0.18246535465E+03 -0.84757576871E+02  0.87191704087E+03  0.91095712833E+03  0.17066373668E+03 0.  0.
        -24    2    3    3    0    0 -0.25069681034E+02 -0.71981283782E+02  0.27036427099E+03  0.28900499458E+03  0.67950377034E+02 0.  0.
          6    2    1    2  501    0  0.18246535465E+03  0.84757576871E+02  0.10093879250E+04  0.10436265743E+04  0.17267017939E+03 0.  0.
         24    2    5    5    0    0  0.48439436951E+02  0.79273071758E+02  0.35169367314E+03  0.37237636356E+03  0.79656245554E+02 0.  0.
          5    1    5    5  501    0  0.13402591770E+03  0.54845051131E+01  0.65769425187E+03  0.67125021069E+03  0.47000000000E+01 0. -1.
        -13    1    6    6    0    0  0.61597966451E+02  0.84064840354E+02  0.26857645088E+03  0.28808768947E+03  0.00000000000E+00 0.  1.
         14    1    6    6    0    0 -0.13158529500E+02 -0.47917685960E+01  0.83117222257E+02  0.84288674094E+02  0.00000000000E+00 0. -1.
         -5    1    3    3    0  503 -0.15739567361E+03 -0.12776293089E+02  0.60155276988E+03  0.62195213376E+03  0.47000000000E+01 0.  1.
         13    1    4    4    0    0 -0.45402739109E+02 -0.45708952676E+02  0.21492864671E+03  0.22437700473E+03  0.00000000000E+00 0. -1.
        -14    1    4    4    0    0  0.20333058076E+02 -0.26272331106E+02  0.55435624278E+02  0.64627989846E+02  0.00000000000E+00 0.  1.
</event>
<event>
12    1  0.8451514E-002  0.2026111E+03  0.7818608E-02  0.1148170E+00
         21   -1    0    0  503  502  0.00000000000E+00  0.00000000000E+00  0.54194267794E+03  0.54194267794E+03  0.00000000000E+00 0. -1.
         21   -1    0    0  501  503 -0.00000000000E+00 -0.00000000000E+00 -0.14934251421E+03  0.14934251421E+03  0.00000000000E+00 0. -1.
          6    2    1    2  501    0 -0.97381630740E+02  0.79363820499E+01 -0.48854068383E+02  0.20555575083E+03  0.17412719069E+03 0.  0.
         24    2    3    3    0    0  0.18925823222E+02  0.10968112623E+02 -0.13022341560E+02  0.83725467714E+02  0.79761433570E+02 0.  0.
         -6    2    1    2    0  502  0.97381630740E+02 -0.79363820499E+01  0.44145423211E+03  0.48572944132E+03  0.17749671251E+03 0.  0.
        -24    2    5    5    0    0  0.11477350170E+03 -0.50314007305E+02  0.38567536152E+03  0.41339886202E+03  0.80303664997E+02 0.  0.
          5    1    3    3  501    0 -0.11630745396E+03 -0.30317305730E+01 -0.35831726823E+02  0.12183028312E+03  0.47000000000E+01 0. -1.
        -13    1    4    4    0    0 -0.26874829415E+02 -0.10948016656E+02  0.57661221216E+01  0.29586545744E+02  0.00000000000E+00 0.  1.
         14    1    4    4    0    0  0.45800652636E+02  0.21916129279E+02 -0.18788463682E+02  0.54138921969E+02  0.00000000000E+00 0. -1.
         -5    1    5    5    0  502 -0.17391870960E+02  0.42377625255E+02  0.55778870591E+02  0.72330579302E+02  0.47000000000E+01 0.  1.
         13    1    6    6    0    0  0.10311495133E+03 -0.72482064365E+01  0.28883670482E+03  0.30677658277E+03  0.00000000000E+00 0. -1.
        -14    1    6    6    0    0  0.11658550373E+02 -0.43065800869E+02  0.96838656698E+02  0.10662227925E+03  0.00000000000E+00 0.  1.
</event>
<event>
12    1  0.8451514E-002  0.1838247E+03  0.7818608E-02  0.1164399E+00
         21   -1    0    0  503  502  0.00000000000E+00  0.00000000000E+00  0.11435906397E+03  0.11435906397E+03  0.00000000000E+00 0. -1.
         21   -1    0    0  501  503 -0.00000000000E+00 -0.00000000000E+00 -0.29400647236E+03  0.29400647236E+03  0.00000000000E+00 0. -1.
          6    2    1    2  501    0  0.57992083566E+02  0.28826141799E+02 -0.94894850644E+02  0.20594394921E+03  0.17092059364E+03 0.  0.
         24    2    3    3    0    0  0.25843594971E+02 -0.31383130203E+02 -0.10408093389E+03  0.13691384072E+03  0.79118687540E+02 0.  0.
         -6    2    1    2    0  502 -0.57992083566E+02 -0.28826141799E+02 -0.84752557748E+02  0.20242158711E+03  0.17203916611E+03 0.  0.
        -24    2    5    5    0    0 -0.70096237162E+02  0.34238682574E+02 -0.25217715396E+02  0.11472797240E+03  0.80254623749E+02 0.  0.
          5    1    3    3  501    0  0.32148488595E+02  0.60209272002E+02  0.91860832440E+01  0.69030108498E+02  0.47000000000E+01 0. -1.
        -11    1    4    4    0    0  0.83788579431E+01 -0.30290695165E+02 -0.56898101169E-01  0.31428247030E+02  0.00000000000E+00 0.  1.
         12    1    4    4    0    0  0.17464737028E+02 -0.10924350385E+01 -0.10402403579E+03  0.10548559369E+03  0.00000000000E+00 0. -1.
         -5    1    5    5    0  502  0.12104153596E+02 -0.63064824372E+02 -0.59534842351E+02  0.87693614711E+02  0.47000000000E+01 0.  1.
         11    1    6    6    0    0  0.17198122819E+02  0.49652673661E+01 -0.12382011260E+02  0.21765649803E+02  0.00000000000E+00 0. -1.
        -12    1    6    6    0    0 -0.87294359980E+02  0.29273415208E+02 -0.12835704136E+02  0.92962322599E+02  0.00000000000E+00 0.  1.
</event>
<event>
12    1  0.8451514E-002  0.2833394E+03  0.7818608E-02  0.1093919E+00
         21   -1    0    0  501  502  0.00000000000E+00  0.00000000000E+00  0.21314375631E+03  0.21314375631E+03  0.00000000000E+00 0.  1.
         21   -1    0    0  502  503 -0.00000000000E+00 -0.00000000000E+00 -0.48101197884E+03  0.48101197884E+03  0.00000000000E+00 0.  1.
         -6    2    1    2    0  503  0.76195114956E+02 -0.21157019782E+03 -0.29584837149E+03  0.40943813629E+03  0.17188858131E+03 0.  0.
        -24    2    3    3    0    0  0.76010965570E+02 -0.60444163773E+02 -0.87764820652E+02  0.15222233933E+03  0.77703365596E+02 0.  0.
          6    2    1    2  501    0 -0.76195114956E+02  0.21157019782E+03  0.27980148964E+02  0.28471759886E+03  0.17237626931E+03 0.  0.
         24    2    5    5    0    0 -0.19991413929E+02  0.86347386393E+02 -0.45889181912E+02  0.12877409450E+03  0.81372124401E+02 0.  0.
          5    1    5    5  501    0 -0.56203701027E+02  0.12522281142E+03  0.73869330876E+02  0.15594350437E+03  0.47000000000E+01 0. -1.
        -13    1    6    6    0    0 -0.38565465628E+02  0.90282225985E+02 -0.26612353928E+02  0.10171722002E+03  0.00000000000E+00 0.  1.
         14    1    6    6    0    0  0.18574051700E+02 -0.39348395922E+01 -0.19276827984E+02  0.27056874473E+02  0.00000000000E+00 0. -1.
         -5    1    3    3    0  503  0.18414938648E+00 -0.15112603404E+03 -0.20808355084E+03  0.25721579696E+03  0.47000000000E+01 0.  1.
         11    1    4    4    0    0  0.89513877765E+02 -0.36690103529E+02 -0.72764580097E+02  0.12105198109E+03  0.00000000000E+00 0. -1.
        -12    1    4    4    0    0 -0.13502912195E+02 -0.23754060243E+02 -0.15000240555E+02  0.31170358235E+02  0.00000000000E+00 0.  1.
</event>
<event>
12    1  0.8451514E-002  0.1863472E+03  0.7818608E-02  0.1161980E+00
         21   -1    0    0  503  502  0.00000000000E+00  0.00000000000E+00  0.27843961615E+03  0.27843961615E+03  0.00000000000E+00 0. -1.
         21   -1    0    0  501  503 -0.00000000000E+00 -0.00000000000E+00 -0.15050300647E+03  0.15050300647E+03  0.00000000000E+00 0. -1.
          6    2    1    2  501    0  0.36233065258E+02 -0.55425713113E+02 -0.25825980157E+02  0.18734746751E+03  0.17334141928E+03 0.  0.
         24    2    3    3    0    0 -0.23917188571E+01 -0.98795669894E+02 -0.13110924405E+02  0.12771031682E+03  0.79823079211E+02 0.  0.
         -6    2    1    2    0  502 -0.36233065258E+02  0.55425713113E+02  0.15376258983E+03  0.24159515512E+03  0.17418507471E+03 0.  0.
        -24    2    5    5    0    0  0.24261366191E+02 -0.20597440164E+02  0.95752753454E+02  0.12834177906E+03  0.79310491287E+02 0.  0.
          5    1    3    3  501    0  0.38624784115E+02  0.43369956780E+02 -0.12715055752E+02  0.59637150685E+02  0.47000000000E+01 0. -1.
        -13    1    4    4    0    0  0.22989667965E+02 -0.26433249718E+02  0.24053186610E+02  0.42494673901E+02  0.00000000000E+00 0.  1.
         14    1    4    4    0    0 -0.25381386822E+02 -0.72362420175E+02 -0.37164111016E+02  0.85215642920E+02  0.00000000000E+00 0. -1.
         -5    1    5    5    0  502 -0.60494431449E+02  0.76023153278E+02  0.58009836378E+02  0.11325337605E+03  0.47000000000E+01 0.  1.
         13    1    6    6    0    0 -0.16893818760E+02  0.20968336068E+02  0.31961002283E+02  0.41792079354E+02  0.00000000000E+00 0. -1.
        -14    1    6    6    0    0  0.41155184952E+02 -0.41565776233E+02  0.63791751171E+02  0.86549699709E+02  0.00000000000E+00 0.  1.
</event>
<event>
12    1  0.8451514E-002  0.2746254E+03  0.7818608E-02  0.1098802E+00
         21   -1    0    0  503  502  0.00000000000E+00  0.00000000000E+00  0.78656481874E+03  0.78656481874E+03  0.00000000000E+00 0.  1.
         21   -1    0    0  501  503 -0.00000000000E+00 -0.00000000000E+00 -0.21501599013E+03  0.21501599013E+03  0.00000000000E+00 0. -1.
          6    2    1    2  501    0 -0.21288818701E+03  0.14496788149E+01  0.65931948207E+03  0.71422777505E+03  0.17348098880E+03 0.  0.
         24    2    3    3    0    0 -0.86290845723E+02 -0.61072559578E+02  0.31197228911E+03  0.33925033630E+03  0.81167197293E+02 0.  0.
         -6    2    1    2    0  502  0.21288818701E+03 -0.14496788149E+01 -0.87770653462E+02  0.28735303382E+03  0.17188541737E+03 0.  0.
        -24    2    5    5    0    0  0.16635388378E+03 -0.62926551400E+02 -0.81987362665E+02  0.20989089022E+03  0.75491010324E+02 0.  0.
          5    1    3    3  501    0 -0.12659734128E+03  0.62522238393E+02  0.34734719296E+03  0.37497743875E+03  0.47000000000E+01 0. -1.
        -11    1    4    4    0    0 -0.99455210540E+02 -0.52278805881E+02  0.23261765670E+03  0.25833193116E+03  0.00000000000E+00 0.  1.
         12    1    4    4    0    0  0.13164364817E+02 -0.87937536964E+01  0.79354632411E+02  0.80918405139E+02  0.00000000000E+00 0. -1.
         -5    1    5    5    0  502  0.46534303222E+02  0.61476872585E+02 -0.57832907971E+01  0.77462143604E+02  0.47000000000E+01 0.  1.
         13    1    6    6    0    0  0.81511483177E+02 -0.64604099224E+02 -0.22936115887E+02  0.10650763793E+03  0.00000000000E+00 0. -1.
        -14    1    6    6    0    0  0.84842400608E+02  0.16775478237E+01 -0.59051246777E+02  0.10338325229E+03  0.00000000000E+00 0.  1.
</event>
<event>
12    1  0.8451514E-002  0.2028733E+03  0.7818608E-02  0.1147903E+00
         21   -1    0    0  501  502  0.00000000000E+00  0.00000000000E+00  0.32451905800E+02  0.32451905800E+02  0.00000000000E+00 0. -1.
         21   -1    0    0  502  503 -0.00000000000E+00 -0.00000000000E+00 -0.14016582539E+04  0.14016582539E+04  0.00000000000E+00 0. -1.
         -6    2    1    2    0  503 -0.62860382493E+02 -0.85346068586E+02 -0.92351972669E+03  0.94554019216E+03  0.17298031766E+03 0.  0.
        -24    2    3    3    0    0 -0.90406171703E+02 -0.10533576653E+03 -0.83535355188E+03  0.85091607839E+03  0.83508779351E+02 0.  0.
          6    2    1    2  501    0  0.62860382493E+02  0.85346068586E+02 -0.44568662142E+03  0.48856996754E+03  0.16979007499E+03 0.  0.
         24    2    5    5    0    0  0.42608878209E+02  0.10583150160E+02 -0.36541466603E+03  0.37692188552E+03  0.81330867866E+02 0.  0.
          5    1    5    5  501    0  0.20251504285E+02  0.74762918426E+02 -0.80271955390E+02  0.11164808202E+03  0.47000000000E+01 0. -1.
        -11    1    6    6    0    0  0.54054545702E+02  0.35378694537E+02 -0.27413759778E+03  0.28164688611E+03  0.00000000000E+00 0.  1.
         12    1    6    6    0    0 -0.11445667493E+02 -0.24795544377E+02 -0.91277068241E+02  0.95274999407E+02  0.00000000000E+00 0. -1.
         -5    1    3    3    0  503  0.27545789209E+02  0.19989697939E+02 -0.88166174805E+02  0.94624113769E+02  0.47000000000E+01 0.  1.
         11    1    4    4    0    0 -0.55271614797E+02 -0.69232095245E+02 -0.71467105215E+03  0.72014078290E+03  0.00000000000E+00 0. -1.
        -12    1    4    4    0    0 -0.35134556906E+02 -0.36103671280E+02 -0.12068249973E+03  0.13077529549E+03  0.00000000000E+00 0.  1.
</event>
<event>
12    1  0.8451514E-002  0.2382999E+03  0.7818608E-02  0.1121097E+00
         21   -1    0    0  501  502  0.00000000000E+00  0.00000000000E+00  0.14345667083E+03  0.14345667083E+03  0.00000000000E+00 0. -1.
         21   -1    0    0  502  503 -0.00000000000E+00 -0.00000000000E+00 -0.63264221721E+03  0.63264221721E+03  0.00000000000E+00 0. -1.
         -6    2    1    2    0  503 -0.14462311439E+03  0.76241352518E+02 -0.48313433735E+03  0.53870735293E+03  0.17337310958E+03 0.  0.
        -24    2    3    3    0    0 -0.14161830103E+03  0.84835625010E+00 -0.34292824405E+03  0.37941839730E+03  0.79385620515E+02 0.  0.
          6    2    1    2  501    0  0.14462311439E+03 -0.76241352518E+02 -0.60512090311E+01  0.23739153511E+03  0.17201608867E+03 0.  0.
         24    2    5    5    0    0  0.55889610569E+02  0.12769891641E+02 -0.41982012337E+02  0.10658729621E+03  0.79445853588E+02 0.  0.
          5    1    5    5  501    0  0.88733503824E+02 -0.89011244159E+02  0.35930803305E+02  0.13080423890E+03  0.47000000000E+01 0. -1.
        -11    1    6    6    0    0 -0.17160747200E+02  0.15044474976E+02 -0.11084309724E+01  0.22848546803E+02  0.00000000000E+00 0.  1.
         12    1    6    6    0    0  0.73050357769E+02 -0.22745833352E+01 -0.40873581364E+02  0.83738749411E+02  0.00000000000E+00 0. -1.
         -5    1    3    3    0  503 -0.30048133655E+01  0.75392996268E+02 -0.14020609329E+03  0.15928895563E+03  0.47000000000E+01 0.  1.
         13    1    4    4    0    0 -0.50205175795E+02  0.36517733667E+02 -0.16387570942E+03  0.17524084195E+03  0.00000000000E+00 0. -1.
        -14    1    4    4    0    0 -0.91413125232E+02 -0.35669377417E+02 -0.17905253464E+03  0.20417755535E+03  0.00000000000E+00 0.  1.
</event>
<event>
12    1  0.8451514E-002  0.1827636E+03  0.7818608E-02  0.1165694E+00
         21   -1    0    0  501  502  0.00000000000E+00  0.00000000000E+00  0.10404189831E+04  0.10404189831E+04  0.00000000000E+00 0.  1.
         21   -1    0    0  502  503 -0.00000000000E+00 -0.00000000000E+00 -0.33637213619E+02  0.33637213619E+02  0.00000000000E+00 0.  1.
         -6    2    1    2    0  503  0.34062992319E+02 -0.50335253532E+02  0.62900371642E+03  0.65439108863E+03  0.16996498586E+03 0.  0.
        -24    2    3    3    0    0 -0.39849420184E+02  0.40902970033E+00  0.26061472900E+03  0.27522019965E+03  0.78980869379E+02 0.  0.
          6    2    1    2  501    0 -0.34062992319E+02  0.50335253532E+02  0.37777805309E+03  0.41966510811E+03  0.17236188783E+03 0.  0.
         24    2    5    5    0    0  0.23654011273E+02  0.47398814324E+02  0.11368831427E+03  0.14928508790E+03  0.80961996146E+02 0.  0.
          5    1    5    5  501    0 -0.57717003593E+02  0.29364392080E+01  0.26408973882E+03  0.27038002021E+03  0.47000000000E+01 0. -1.
        -11    1    6    6    0    0  0.92128607682E+01  0.69393628092E+02  0.76068630577E+02  0.10337692673E+03  0.00000000000E+00 0.  1.
         12    1    6    6    0    0  0.14441150505E+02 -0.21994813769E+02  0.37619683692E+02  0.45908161166E+02  0.00000000000E+00 0. -1.
         -5    1    3    3    0  503  0.73912412503E+02 -0.50744283232E+02  0.36838898742E+03  0.37917088898E+03  0.47000000000E+01 0.  1.
         11    1    4    4    0    0 -0.29348721726E+02  0.17651195901E+02  0.25014537677E+03  0.25247895300E+03  0.00000000000E+00 0. -1.
        -12    1    4    4    0    0 -0.10500698457E+02 -0.17242166201E+02  0.10469352230E+02  0.22741246657E+02  0.00000000000E+00 0.  1.
</event>
<event>
12    1  0.8451514E-002  0.2282211E+03  0.7818608E-02  0.1128722E+00
         21   -1    0    0  501  502  0.00000000000E+00  0.00000000000E+00  0.86372540613E+02  0.86372540613E+02  0.00000000000E+00 0.  1.
         21   -1    0    0  502  503 -0.00000000000E+00 -0.00000000000E+00 -0.97708937429E+03  0.97708937429E+03  0.00000000000E+00 0.  1.
         -6    2    1    2    0  503 -0.70873003282E+02  0.12375159956E+03 -0.77687441774E+03  0.80842273650E+03  0.17226728931E+03 0.  0.
        -24    2    3    3    0    0 -0.60029371120E+02  0.18373701970E+02 -0.23338136354E+03  0.25468193466E+03  0.80342446279E+02 0.  0.
          6    2    1    2  501    0  0.70873003282E+02 -0.12375159956E+03 -0.11384241594E+03  0.25503917841E+03  0.17817812960E+03 0.  0.
         24    2    5    5    0    0  0.44163988862E+02 -0.13174078934E+03 -0.14523135167E+03  0.21279519788E+03  0.69882453061E+02 0.  0.
          5    1    5    5  501    0  0.26709014420E+02  0.79891897815E+01  0.31388935725E+02  0.42243980525E+02  0.47000000000E+01 0. -1.
        -11    1    6    6    0    0  0.52312245544E+02 -0.88520877052E+02 -0.66020917634E+02  0.12219360979E+03  0.00000000000E+00 0.  1.
         12    1    6    6    0    0 -0.81482566818E+01 -0.43219912289E+02 -0.79210434033E+02  0.90601588093E+02  0.00000000000E+00 0. -1.
         -5    1    3    3    0  503 -0.10843632162E+02  0.10537789759E+03 -0.54349305419E+03  0.55374080183E+03  0.47000000000E+01 0.  1.
         13    1    4    4    0    0 -0.44535983251E+02 -0.25428438230E+02 -0.85786006306E+02  0.99946476440E+02  0.00000000000E+00 0. -1.
        -14    1    4    4    0    0 -0.15493387869E+02  0.43802140200E+02 -0.14759535724E+03  0.15473545822E+03  0.00000000000E+00 0.  1.
</event>
<event>
12    1  0.8451514E-002  0.1755954E+03  0.7818608E-02  0.1173297E+00
         21   -1    0    0  501  502  0.00000000000E+00  0.00000000000E+00  0.13573503227E+03  0.13573503227E+03  0.00000000000E+00 0. -1.
         21   -1    0    0  502  503 -0.00000000000E+00 -0.00000000000E+00 -0.22527656649E+03  0.22527656649E+03  0.00000000000E+00 0. -1.
         -6    2    1    2    0  503  0.11334500976E+02  0.74328693843E+01 -0.68259084384E+02  0.18413120299E+03  0.17047368963E+03 0.  0.
        -24    2    3    3    0    0  0.59674601445E+02 -0.35733754063E+02 -0.35369007485E+02  0.11130284415E+03  0.79368741885E+02 0.  0.
          6    2    1    2  501    0 -0.11334500976E+02 -0.74328693843E+01 -0.21282449833E+02  0.17688039576E+03  0.17507145191E+03 0.  0.
         24    2    5    5    0    0  0.53762127430E+02  0.21395825584E+02 -0.57787386576E+01  0.10386587841E+03  0.86061484882E+02 0.  0.
          5    1    5    5  501    0 -0.65096628406E+02 -0.28828694968E+02 -0.15503711175E+02  0.73014517348E+02  0.47000000000E+01 0. -1.
        -11    1    6    6    0    0  0.55867840687E+02 -0.22873802974E+01  0.28019388972E+02  0.62542256835E+02  0.00000000000E+00 0.  1.
         12    1    6    6    0    0 -0.21057132572E+01  0.23683205881E+02 -0.33798127630E+02  0.41323621579E+02  0.00000000000E+00 0. -1.
         -5    1    3    3    0  503 -0.48340100469E+02  0.43166623448E+02 -0.32890076900E+02  0.72828358843E+02  0.47000000000E+01 0.  1.
         13    1    4    4    0    0  0.19239684591E+02  0.25619948187E+02 -0.11582234249E+02  0.34068979416E+02  0.00000000000E+00 0. -1.
        -14    1    4    4    0    0  0.40434916854E+02 -0.61353702250E+02 -0.23786773236E+02  0.77233864734E+02  0.00000000000E+00 0.  1.
</event>
<event>
12    1  0.8451514E-002  0.2324778E+03  0.7818608E-02  0.1125076E+00
         21   -1    0    0  501  502  0.00000000000E+00  0.00000000000E+00  0.69765692304E+03  0.69765692304E+03  0.00000000000E+00 0. -1.
         21   -1    0    0  502  503 -0.00000000000E+00 -0.00000000000E+00 -0.78576624174E+02  0.78576624174E+02  0.00000000000E+00 0.  1.
         -6    2    1    2    0  503  0.55717852905E+02 -0.14459576834E+03  0.25780982148E+03  0.34714815521E+03  0.17330182416E+03 0.  0.
        -24    2    3    3    0    0 -0.34982029532E+02 -0.46921287589E+02  0.11854213900E+03  0.15431571434E+03  0.79597433103E+02 0.  0.
          6    2    1    2  501    0 -0.55717852905E+02  0.14459576834E+03  0.36127047738E+03  0.42908539201E+03  0.17200436173E+03 0.  0.
         24    2    5    5    0    0 -0.63152370141E+02  0.75352029486E+02  0.32878249790E+03  0.35209496255E+03  0.78783129729E+02 0.  0.
          5    1    5    5  501    0  0.74345172358E+01  0.69243738849E+02  0.32487979481E+02  0.76990429451E+02  0.47000000000E+01 0. -1.
        -11    1    6    6    0    0 -0.89730493252E+01  0.63004542103E+02  0.11750439721E+03  0.13363147572E+03  0.00000000000E+00 0.  1.
         12    1    6    6    0    0 -0.54179320816E+02  0.12347487384E+02  0.21127810069E+03  0.21846348684E+03  0.00000000000E+00 0. -1.
         -5    1    3    3    0  503  0.90699882437E+02 -0.97674480746E+02  0.13926768249E+03  0.19283244086E+03  0.47000000000E+01 0.  1.
         11    1    4    4    0    0  0.21637565771E+02 -0.34320536121E+02  0.43753210133E+02  0.59669312457E+02  0.00000000000E+00 0. -1.
        -12    1    4    4    0    0 -0.56619595302E+02 -0.12600751468E+02  0.74788928864E+02  0.94646401888E+02  0.00000000000E+00 0.  1.
</event>
<event>
12    1  0.8451514E-002  0.1922310E+03  0.7818608E-02  0.1156533E+00
         21   -1    0    0  501  502  0.00000000000E+00  0.00000000000E+00  0.25833380472E+03  0.25833380472E+03  0.00000000000E+00 0. -1.
         21   -1    0    0  502  503 -0.00000000000E+00 -0.00000000000E+00 -0.15068555418E+03  0.15068555418E+03  0.00000000000E+00 0. -1.
         -6    2    1    2    0  503 -0.36557413517E+02  0.77710897571E+02  0.10053112812E+03  0.21665665317E+03  0.17163382405E+03 0.  0.
        -24    2    3    3    0    0 -0.79341253460E+02  0.96895066797E+02  0.80252793869E+02  0.16535567707E+03  0.72237805501E+02 0.  0.
          6    2    1    2  501    0  0.36557413517E+02 -0.77710897571E+02  0.71171224151E+01  0.19236270573E+03  0.17198060658E+03 0.  0.
         24    2    5    5    0    0  0.28969705359E+02 -0.61495725836E+02  0.70578072593E+02  0.12625758258E+03  0.79616233916E+02 0.  0.
          5    1    5    5  501    0  0.75877081573E+01 -0.16215171735E+02 -0.63460950178E+02  0.66105123152E+02  0.47000000000E+01 0. -1.
        -13    1    6    6    0    0  0.94132542411E+01  0.12818018409E+02  0.40897774506E+02  0.43880962967E+02  0.00000000000E+00 0.  1.
         14    1    6    6    0    0  0.19556451118E+02 -0.74313744245E+02  0.29680298087E+02  0.82376619612E+02  0.00000000000E+00 0. -1.
         -5    1    3    3    0  503  0.42783839944E+02 -0.19184169226E+02  0.20278334249E+02  0.51300976103E+02  0.47000000000E+01 0.  1.
         11    1    4    4    0    0 -0.91381841329E+02  0.70247218676E+02  0.61900172239E+02  0.13083173919E+03  0.00000000000E+00 0. -1.
        -12    1    4    4    0    0  0.12040587868E+02  0.26647848121E+02  0.18352621629E+02  0.34523937875E+02  0.00000000000E+00 0.  1.
</event>
<event>
12    1  0.8451514E-002  0.2083123E+03  0.7818608E-02  0.1142967E+00
         21   -1    0    0  501  502  0.00000000000E+00  0.00000000000E+00  0.24517624606E+03  0.24517624606E+03  0.00000000000E+00 0. -1.
         21   -1    0    0  502  503 -0.00000000000E+00 -0.00000000000E+00 -0.32320918487E+03  0.32320918487E+03  0.00000000000E+00 0. -1.
         -6    2    1    2    0  503  0.78815144611E+02  0.87645976884E+02 -0.23033794011E+03  0.31056329755E+03  0.17175666173E+03 0.  0.
        -24    2    3    3    0    0  0.84394006804E+02  0.96892779932E+01 -0.84527762895E+02  0.14506082511E+03  0.81740258067E+02 0.  0.
          6    2    1    2  501    0 -0.78815144611E+02 -0.87645976884E+02  0.15230500129E+03  0.25782213338E+03  0.17141118621E+03 0.  0.
         24    2    5    5    0    0 -0.56654825824E+02  0.18225037183E+02  0.39523387692E+02  0.10148425021E+03  0.72076581469E+02 0.  0.
          5    1    5    5  501    0 -0.22160318788E+02 -0.10587101407E+03  0.11278161360E+03  0.15633788317E+03  0.47000000000E+01 0. -1.
        -11    1    6    6    0    0  0.83456350735E+00  0.50642543854E+01  0.42138306809E+02  0.42449735800E+02  0.00000000000E+00 0.  1.
         12    1    6    6    0    0 -0.57489389331E+02  0.13160782798E+02 -0.26149191172E+01  0.59034514409E+02  0.00000000000E+00 0. -1.
         -5    1    3    3    0  503 -0.55788621925E+01  0.77956698890E+02 -0.14581017721E+03  0.16550247244E+03  0.47000000000E+01 0.  1.
         11    1    4    4    0    0  0.51798481233E+02 -0.21463074579E+02 -0.85577741026E+01  0.56718442556E+02  0.00000000000E+00 0. -1.
        -12    1    4    4    0    0  0.32595525571E+02  0.31152352572E+02 -0.75969988792E+02  0.88342382553E+02  0.00000000000E+00 0.  1.
</event>
<event>
12    1  0.8451514E-002  0.2336438E+03  0.7818608E-02  0.1124152E+00
         21   -1    0    0  501  502  0.00000000000E+00  0.00000000000E+00  0.12245719014E+03  0.12245719014E+03  0.00000000000E+00 0.  1.
         21   -1    0    0  502  503 -0.00000000000E+00 -0.00000000000E+00 -0.59810259436E+03  0.59810259436E+03  0.00000000000E+00 0. -1.
         -6    2    1    2    0  503  0.10210043509E+03 -0.12278690001E+03 -0.41986096024E+03  0.48034880061E+03  0.17014882502E+03 0.  0.
        -24    2    3    3    0    0  0.49530560328E+02 -0.13767263485E+03 -0.23947382503E+03  0.29181024916E+03  0.79990485975E+02 0.  0.
          6    2    1    2  501    0 -0.10210043509E+03  0.12278690001E+03 -0.55784443978E+02  0.24021098388E+03  0.17055289774E+03 0.  0.
         24    2    5    5    0    0 -0.42242774433E+02  0.80946408698E+02  0.31567079039E+02  0.12625509406E+03  0.81284040400E+02 0.  0.
          5    1    5    5  501    0 -0.59857660654E+02  0.41840491311E+02 -0.87351523017E+02  0.11395588982E+03  0.47000000000E+01 0. -1.
        -11    1    6    6    0    0  0.70608635354E+01  0.26150941791E+02  0.43835657886E+02  0.51529529910E+02  0.00000000000E+00 0.  1.
         12    1    6    6    0    0 -0.49303637968E+02  0.54795466907E+02 -0.12268578846E+02  0.74725564149E+02  0.00000000000E+00 0. -1.
         -5    1    3    3    0  503  0.52569874759E+02  0.14885734845E+02 -0.18038713521E+03  0.18853855146E+03  0.47000000000E+01 0.  1.
         11    1    4    4    0    0  0.60225479295E+02 -0.10186932930E+03 -0.12838693456E+03  0.17460719795E+03  0.00000000000E+00 0. -1.
        -12    1    4    4    0    0 -0.10694918967E+02 -0.35803305556E+02 -0.11108689047E+03  0.11720305121E+03  0.00000000000E+00 0.  1.
</event>
<event>
12    1  0.8451514E-002  0.1995224E+03  0.7818608E-02  0.1150343E+00
         21   -1    0    0  503  502  0.00000000000E+00  0.00000000000E+00  0.38995373756E+03  0.38995373756E+03  0.00000000000E+00 0. -1.
         21   -1    0    0  501  503 -0.00000000000E+00 -0.00000000000E+00 -0.19132179638E+03  0.19132179638E+03  0.00000000000E+00 0.  1.
          6    2    1    2  501    0 -0.67488191394E+02  0.72630716361E+02 -0.99834767450E+02  0.22226079782E+03  0.17205523682E+03 0.  0.
         24    2    3    3    0    0 -0.58574296732E+02  0.10603130314E+03 -0.11399466876E+03  0.18460911099E+03  0.80075925672E+02 0.  0.
         -6    2    1    2    0  502  0.67488191394E+02 -0.72630716361E+02  0.29846670864E+03  0.35901473613E+03  0.17314539455E+03 0.  0.
        -24    2    5    5    0    0  0.71552874327E+02 -0.11409260981E+03  0.23778711650E+03  0.28526032502E+03  0.81815663653E+02 0.  0.
          5    1    3    3  501    0 -0.89138946626E+01 -0.33400586781E+02  0.14159901312E+02  0.37651686822E+02  0.47000000000E+01 0. -1.
        -13    1    4    4    0    0 -0.36462930813E+02  0.12675348759E+01 -0.17470845158E+02  0.40452223655E+02  0.00000000000E+00 0.  1.
         14    1    4    4    0    0 -0.22111365919E+02  0.10476376827E+03 -0.96523823604E+02  0.14415688734E+03  0.00000000000E+00 0. -1.
         -5    1    5    5    0  502 -0.40646829323E+01  0.41461893450E+02  0.60679592139E+02  0.73754411109E+02  0.47000000000E+01 0.  1.
         13    1    6    6    0    0  0.76153182830E+02 -0.45282986068E+02  0.13566583233E+03  0.16203417586E+03  0.00000000000E+00 0. -1.
        -14    1    6    6    0    0 -0.46003085035E+01 -0.68809623744E+02  0.10212128416E+03  0.12322614916E+03  0.00000000000E+00 0.  1.
</event>
<event>
12    1  0.8451514E-002  0.1809477E+03  0.7818608E-02  0.1169577E+00
         21   -1    0    0  501  502  0.00000000000E+00  0.00000000000E+00  0.28319915003E+03  0.28319915003E+03  0.00000000000E+00 0.  1.
         21   -1    0    0  502  503 -0.00000000000E+00 -0.00000000000E+00 -0.20606458955E+03  0.20606458955E+03  0.00000000000E+00 0.  1.
         -6    2    1    2    0  503  0.51290280927E+01  0.20511071512E+02 -0.12882871438E+03  0.22212365957E+03  0.17970829561E+03 0.  0.
        -24    2    3    3    0    0  0.39095611323E+02  0.22983822158E+02 -0.39001023460E+01  0.92550933370E+02  0.80583754961E+02 0.  0.
          6    2    1    2  501    0 -0.51290280927E+01 -0.20511071512E+02  0.20596327485E+03  0.26714008000E+03  0.16880740734E+03 0.  0.
         24    2    5    5    0    0  0.65025752231E+02 -0.33246901592E+02  0.10497184466E+03  0.14342567687E+03  0.64947145404E+02 0.  0.
          5    1    5    5  501    0 -0.70154780324E+02  0.12735830081E+02  0.10099143019E+03  0.12371440313E+03  0.47000000000E+01 0. -1.
        -13    1    6    6    0    0  0.14298876470E+02 -0.22109957985E+02  0.82924780331E+02  0.87004754488E+02  0.00000000000E+00 0.  1.
         14    1    6    6    0    0  0.50726875761E+02 -0.11136943607E+02  0.22047064332E+02  0.56420922387E+02  0.00000000000E+00 0. -1.
         -5    1    3    3    0  503 -0.33966583230E+02 -0.24727506464E+01 -0.12492861203E+03  0.12957272620E+03  0.47000000000E+01 0.  1.
         13    1    4    4    0    0  0.21148966875E+02 -0.29800546467E+02 -0.43244036965E+01  0.36797443347E+02  0.00000000000E+00 0. -1.
        -14    1    4    4    0    0  0.17946644448E+02  0.52784368625E+02  0.42430135051E+00  0.55753490022E+02  0.00000000000E+00 0.  1.
</event>
<event>
12    1  0.8451514E-002  0.2833790E+03  0.7818608E-02  0.1094046E+00
         21   -1    0    0  503  502  0.00000000000E+00  0.00000000000E+00  0.26665765296E+03  0.26665765296E+03  0.00000000000E+00 0.  1.
         21   -1    0    0  501  503 -0.00000000000E+00 -0.00000000000E+00 -0.30076734393E+03  0.30076734393E+03  0.00000000000E+00 0. -1.
          6    2    1    2  501    0 -0.21832828711E+03  0.52565636108E+02  0.17180179306E+00  0.28197997591E+03  0.17053530498E+03 0.  0.
         24    2    3    3    0    0 -0.20804112122E+03  0.80579571635E+02  0.26159457861E+02  0.24212957273E+03  0.90378300881E+02 0.  0.
         -6    2    1    2    0  502  0.21832828711E+03 -0.52565636108E+02 -0.34281492764E+02  0.28544502098E+03  0.17283880411E+03 0.  0.
        -24    2    5    5    0    0  0.44120005366E+02  0.16435007564E+02 -0.33526459774E+02  0.98008967004E+02  0.79152067320E+02 0.  0.
          5    1    3    3  501    0 -0.10287165893E+02 -0.28013935527E+02 -0.25987656068E+02  0.39850403182E+02  0.47000000000E+01 0. -1.
        -13    1    4    4    0    0 -0.16015668699E+03  0.21976359841E+02  0.36558809227E+02  0.16573976985E+03  0.00000000000E+00 0.  1.
         14    1    4    4    0    0 -0.47884434229E+02  0.58603211793E+02 -0.10399351366E+02  0.76389802871E+02  0.00000000000E+00 0. -1.
         -5    1    5    5    0  502  0.17420828175E+03 -0.69000643672E+02 -0.75503298937E+00  0.18743605398E+03  0.47000000000E+01 0.  1.
         13    1    6    6    0    0  0.66012028339E+02  0.71073284494E+01 -0.33150720692E+02  0.74209650892E+02  0.00000000000E+00 0. -1.
        -14    1    6    6    0    0 -0.21892022973E+02  0.93276791148E+01 -0.37573908220E+00  0.23799316112E+02  0.00000000000E+00 0.  1.
</event>
<event>
12    1  0.8451514E-002  0.2301065E+03  0.7818608E-02  0.1126763E+00
         21   -1    0    0  501  502  0.00000000000E+00  0.00000000000E+00  0.41334143019E+02  0.41334143019E+02  0.00000000000E+00 0. -1.
         21   -1    0    0  502  503 -0.00000000000E+00 -0.00000000000E+00 -0.12747524480E+04  0.12747524480E+04  0.00000000000E+00 0.  1.
         -6    2    1    2    0  503 -0.12919932998E+02 -0.15099990888E+03 -0.61804559736E+03  0.65949173759E+03  0.17315049635E+03 0.  0.
        -24    2    3    3    0    0  0.40861386742E+02 -0.10939720996E+03 -0.27535554634E+03  0.31008971129E+03  0.81838558631E+02 0.  0.
          6    2    1    2  501    0  0.12919932998E+02  0.15099990888E+03 -0.61537270759E+03  0.65659485340E+03  0.17165469731E+03 0.  0.
         24    2    5    5    0    0 -0.45662657146E+01  0.17132239282E+03 -0.58973519677E+03  0.61920311020E+03  0.79073866107E+02 0.  0.
          5    1    5    5  501    0  0.17486198712E+02 -0.20322483935E+02 -0.25637510820E+02  0.37391743203E+02  0.47000000000E+01 0. -1.
        -13    1    6    6    0    0  0.16820183875E+02  0.16275896846E+03 -0.48147658822E+03  0.50852050638E+03  0.00000000000E+00 0.  1.
         14    1    6    6    0    0 -0.21386449590E+02  0.85634243542E+01 -0.10825860855E+03  0.11068260382E+03  0.00000000000E+00 0. -1.
         -5    1    3    3    0  503 -0.53781319739E+02 -0.41602698919E+02 -0.34269005102E+03  0.34940202630E+03  0.47000000000E+01 0.  1.
         13    1    4    4    0    0  0.55625813486E+02 -0.10614921337E+03 -0.26735518967E+03  0.29298580865E+03  0.00000000000E+00 0. -1.
        -14    1    4    4    0    0 -0.14764426745E+02 -0.32479965911E+01 -0.80003566644E+01  0.17103902646E+02  0.00000000000E+00 0.  1.
</event>
<event>
12    1  0.8451514E-002  0.1926123E+03  0.7818608E-02  0.1156416E+00
         21   -1    0    0  501  502  0.00000000000E+00  0.00000000000E+00  0.34641313552E+02  0.34641313552E+02  0.00000000000E+00 0.  1.
         21   -1    0    0  502  503 -0.00000000000E+00 -0.00000000000E+00 -0.24784449780E+04  0.24784449780E+04  0.00000000000E+00 0.  1.
         -6    2    1    2    0  503 -0.13633604901E+02 -0.82685790046E+02 -0.21730243231E+04  0.21815439928E+04  0.17342626285E+03 0.  0.
        -24    2    3    3    0    0  0.28610235724E+02 -0.94083784109E+02 -0.19552416591E+04  0.19593597560E+04  0.80314406773E+02 0.  0.
          6    2    1    2  501    0  0.13633604901E+02  0.82685790046E+02 -0.27077934137E+03  0.33154229878E+03  0.17197682725E+03 0.  0.
         24    2    5    5    0    0  0.16153118361E+02  0.97912888488E+02 -0.10699576053E+03  0.16696598266E+03  0.81127613235E+02 0.  0.
          5    1    5    5  501    0 -0.25195134599E+01 -0.15227098442E+02 -0.16378358085E+03  0.16457631613E+03  0.47000000000E+01 0. -1.
        -13    1    6    6    0    0 -0.26926305513E+02  0.73322725146E+02 -0.58435484456E+02  0.97549750359E+02  0.00000000000E+00 0.  1.
         14    1    6    6    0    0  0.43079423874E+02  0.24590163341E+02 -0.48560276069E+02  0.69416232298E+02  0.00000000000E+00 0. -1.
         -5    1    3    3    0  503 -0.42243840626E+02  0.11397994063E+02 -0.21778266397E+03  0.22218423676E+03  0.47000000000E+01 0.  1.
         11    1    4    4    0    0 -0.13206343227E+02 -0.82490682837E+02 -0.12656815853E+04  0.12684356490E+04  0.00000000000E+00 0. -1.
        -12    1    4    4    0    0  0.41816578952E+02 -0.11593101272E+02 -0.68956007379E+03  0.69092410700E+03  0.00000000000E+00 0.  1.
</event>
<event>
12    1  0.8451514E-002  0.1883390E+03  0.7818608E-02  0.1160162E+00
         21   -1    0    0  503  502  0.00000000000E+00  0.00000000000E+00  0.16293620679E+03  0.16293620679E+03  0.00000000000E+00 0. -1.
         21   -1    0    0  501  503 -0.00000000000E+00 -0.00000000000E+00 -0.58983705575E+03  0.58983705575E+03  0.00000000000E+00 0.  1.
          6    2    1    2  501    0 -0.18299625303E+02  0.75541682148E+02 -0.51262987562E+03  0.54584079590E+03  0.17062052357E+03 0.  0.
         24    2    3    3    0    0  0.16468424590E+02  0.97610094916E+02 -0.26075052639E+03  0.29057401643E+03  0.81507560210E+02 0.  0.
         -6    2    1    2    0  502  0.18299625303E+02 -0.75541682148E+02  0.85729026661E+02  0.20693246664E+03  0.17155220112E+03 0.  0.
        -24    2    5    5    0    0 -0.57093220791E+02 -0.11650063265E+02  0.75412535444E+02  0.10746015795E+03  0.49651537840E+02 0.  0.
          5    1    3    3  501    0 -0.34768049894E+02 -0.22068412768E+02 -0.25187934923E+03  0.25526677948E+03  0.47000000000E+01 0. -1.
        -13    1    4    4    0    0 -0.95734309111E+01  0.67458389467E+02 -0.23103350588E+03  0.24087084864E+03  0.00000000000E+00 0.  1.
         14    1    4    4    0    0  0.26041855502E+02  0.30151705449E+02 -0.29717020516E+02  0.49703167784E+02  0.00000000000E+00 0. -1.
         -5    1    5    5    0  502  0.75392846094E+02 -0.63891618883E+02  0.10316491216E+02  0.99472308693E+02  0.47000000000E+01 0.  1.
         13    1    6    6    0    0  0.68025999749E+01 -0.50679293281E+01  0.23135840819E+02  0.24641964299E+02  0.00000000000E+00 0. -1.
        -14    1    6    6    0    0 -0.63895820766E+02 -0.65821339373E+01  0.52276694625E+02  0.82818193650E+02  0.00000000000E+00 0.  1.
</event>
<event>
12    1  0.8451514E-002  0.1797909E+03  0.7818608E-02  0.1168342E+00
         21   -1    0    0  501  502  0.00000000000E+00  0.00000000000E+00  0.72601123625E+02  0.72601123625E+02  0.00000000000E+00 0. -1.
         21   -1    0    0  502  503 -0.00000000000E+00 -0.00000000000E+00 -0.57583811407E+03  0.57583811407E+03  0.00000000000E+00 0. -1.
         -6    2    1    2    0  503  0.48628913868E+02 -0.95486886042E+01 -0.40877354741E+03  0.44656531208E+03  0.17282597077E+03 0.  0.
        -24    2    3    3    0    0  0.47488701551E+02  0.54646667905E+02 -0.31327023971E+03  0.33139015997E+03  0.80248114927E+02 0.  0.
          6    2    1    2  501    0 -0.48628913868E+02  0.95486886042E+01 -0.94463443040E+02  0.20187392562E+03  0.17138783812E+03 0.  0.
         24    2    5    5    0    0 -0.24898913745E+02  0.79771418657E+01 -0.13148089716E+03  0.15762503214E+03  0.82914617168E+02 0.  0.
          5    1    5    5  501    0 -0.23730000123E+02  0.15715467385E+01  0.37017454120E+02  0.44248893484E+02  0.47000000000E+01 0. -1.
        -11    1    6    6    0    0 -0.12429462276E+02  0.22445774171E+02 -0.91953590311E+00  0.25673913938E+02  0.00000000000E+00 0.  1.
         12    1    6    6    0    0 -0.12469451468E+02 -0.14468632305E+02 -0.13056136126E+03  0.13195111820E+03  0.00000000000E+00 0. -1.
         -5    1    3    3    0  503  0.11402123172E+01 -0.64195356510E+02 -0.95503307700E+02  0.11517515211E+03  0.47000000000E+01 0.  1.
         13    1    4    4    0    0  0.75550921439E+01  0.15356884075E+02 -0.23229767390E+03  0.23292729038E+03  0.00000000000E+00 0. -1.
        -14    1    4    4    0    0  0.39933609407E+02  0.39289783830E+02 -0.80972565812E+02  0.98462869590E+02  0.00000000000E+00 0.  1.
</event>
<event>
12    1  0.8451514E-002  0.1991186E+03  0.7818608E-02  0.1151067E+00
         21   -1    0    0  501  502  0.00000000000E+00  0.00000000000E+00  0.35178158271E+03  0.35178158271E+03  0.00000000000E+00 0. -1.
         21   -1    0    0  502  503 -0.00000000000E+00 -0.00000000000E+00 -0.15362852615E+03  0.15362852615E+03  0.00000000000E+00 0.  1.
         -6    2    1    2    0  503 -0.90946895176E+02 -0.41056960639E+02 -0.33276013966E+02  0.20187993623E+03  0.17231135711E+03 0.  0.
        -24    2    3    3    0    0 -0.79840483019E+02 -0.75250610546E+02  0.18165066237E+02  0.13894478852E+03  0.83297824153E+02 0.  0.
          6    2    1    2  501    0  0.90946895176E+02  0.41056960639E+02  0.23142907052E+03  0.30353017263E+03  0.16915714368E+03 0.  0.
         24    2    5    5    0    0  0.37711861436E+02  0.16420765901E+02  0.22744450816E+03  0.24454816143E+03  0.79880992238E+02 0.  0.
          5    1    5    5  501    0  0.53235033739E+02  0.24636194739E+02  0.39845623627E+01  0.58982011204E+02  0.47000000000E+01 0. -1.
        -11    1    6    6    0    0 -0.62143565015E+01  0.19570859961E+02  0.10280119456E+02  0.22963397884E+02  0.00000000000E+00 0.  1.
         12    1    6    6    0    0  0.43926217938E+02 -0.31500940597E+01  0.21716438870E+03  0.22158476354E+03  0.00000000000E+00 0. -1.
         -5    1    3    3    0  503 -0.11106412156E+02  0.34193649907E+02 -0.51441080204E+02  0.62935147711E+02  0.47000000000E+01 0.  1.
         11    1    4    4    0    0 -0.13856770028E+02 -0.12856217841E+02  0.41136949854E+02  0.45271857219E+02  0.00000000000E+00 0. -1.
        -12    1    4    4    0    0 -0.65983712991E+02 -0.62394392705E+02 -0.22971883617E+02  0.93672931299E+02  0.00000000000E+00 0.  1.
</event>
<event>
12    1  0.8451514E-002  0.2000634E+03  0.7818608E-02  0.1150026E+00
         21   -1    0    0  503  502  0.00000000000E+00  0.00000000000E+00  0.16429191910E+03  0.16429191910E+03  0.00000000000E+00 0. -1.
         21   -1    0    0  501  503 -0.00000000000E+00 -0.00000000000E+00 -0.24781410573E+03  0.24781410573E+03  0.00000000000E+00 0. -1.
          6    2    1    2  501    0  0.94274249906E+02 -0.34459881860E+02 -0.91499383416E+01  0.19866611887E+03  0.17119984743E+03 0.  0.
         24    2    3    3    0    0 -0.16554472463E+02 -0.17427064528E+01 -0.13105383041E+02  0.82945961541E+02  0.80194724808E+02 0.  0.
         -6    2    1    2    0  502 -0.94274249906E+02  0.34459881860E+02 -0.74372248281E+02  0.21343990596E+03  0.17306138937E+03 0.  0.
        -24    2    5    5    0    0 -0.53835102722E+01  0.62110852985E+02 -0.64323329951E+02  0.11968911633E+03  0.79380435569E+02 0.  0.
          5    1    3    3  501    0  0.11082872237E+03 -0.32717175407E+02  0.39554446991E+01  0.11572015732E+03  0.47000000000E+01 0. -1.
        -13    1    4    4    0    0  0.23548439344E+02  0.20771380718E+02  0.79101940196E+01  0.32381328291E+02  0.00000000000E+00 0.  1.
         14    1    4    4    0    0 -0.40102911807E+02 -0.22514087171E+02 -0.21015577060E+02  0.50564633250E+02  0.00000000000E+00 0. -1.
         -5    1    5    5    0  502 -0.88890739634E+02 -0.27650971125E+02 -0.10048918330E+02  0.93750789631E+02  0.47000000000E+01 0.  1.
         13    1    6    6    0    0 -0.23917698570E+02  0.66257305749E+02 -0.70555512142E+02  0.99700386978E+02  0.00000000000E+00 0. -1.
        -14    1    6    6    0    0  0.18534188297E+02 -0.41464527638E+01  0.62321821904E+01  0.19988729355E+02  0.00000000000E+00 0.  1.
</event>
<event>
12    1  0.8451514E-002  0.3171906E+03  0.7818608E-02  0.1077100E+00
         21   -1    0    0  501  502  0.00000000000E+00  0.00000000000E+00  0.13776171563E+04  0.13776171563E+04  0.00000000000E+00 0. -1.
         21   -1    0    0  502  503 -0.00000000000E+00 -0.00000000000E+00 -0.90227601900E+02  0.90227601900E+02  0.00000000000E+00 0.  1.
         -6    2    1    2    0  503 -0.26284368260E+03  0.44090626225E+02  0.32159586401E+03  0.45170098918E+03  0.17198575255E+03 0.  0.
        -24    2    3    3    0    0 -0.25415592286E+03  0.80660453468E+02  0.26298601184E+03  0.38191535882E+03  0.74808802980E+02 0.  0.
          6    2    1    2  501    0  0.26284368260E+03 -0.44090626225E+02  0.96579369040E+03  0.10161437690E+04  0.16958750576E+03 0.  0.
         24    2    5    5    0    0  0.11407659137E+03  0.20117403211E+02  0.59834071485E+03  0.61452442473E+03  0.78806591878E+02 0.  0.
          5    1    5    5  501    0  0.14876709123E+03 -0.64208029437E+02  0.36745297555E+03  0.40161934430E+03  0.47000000000E+01 0. -1.
        -13    1    6    6    0    0  0.70225763925E+02  0.34837118907E+02  0.22367729951E+03  0.23701649118E+03  0.00000000000E+00 0.  1.
         14    1    6    6    0    0  0.43850827443E+02 -0.14719715696E+02  0.37466341534E+03  0.37750793355E+03  0.00000000000E+00 0. -1.
         -5    1    3    3    0  503 -0.86877597383E+01 -0.36569827243E+02  0.58609852168E+02  0.69785630362E+02  0.47000000000E+01 0.  1.
         13    1    4    4    0    0 -0.45075889866E+02  0.46312353198E+02  0.52638098520E+02  0.83351300660E+02  0.00000000000E+00 0. -1.
        -14    1    4    4    0    0 -0.20908003299E+03  0.34348100270E+02  0.21034791332E+03  0.29856405816E+03  0.00000000000E+00 0.  1.
</event>
<event>
12    1  0.8451514E-002  0.1801864E+03  0.7818608E-02  0.1167677E+00
         21   -1    0    0  503  502  0.00000000000E+00  0.00000000000E+00  0.83571067605E+02  0.83571067605E+02  0.00000000000E+00 0. -1.
         21   -1    0    0  501  503 -0.00000000000E+00 -0.00000000000E+00 -0.71599300295E+03  0.71599300295E+03  0.00000000000E+00 0. -1.
          6    2    1    2  501    0 -0.42081538776E+02 -0.30415413384E+02 -0.58668184632E+03  0.61366275627E+03  0.17230913024E+03 0.  0.
         24    2    3    3    0    0 -0.61408431841E+02 -0.75955829170E+02 -0.47031022045E+03  0.48712460562E+03  0.80983914763E+02 0.  0.
         -6    2    1    2    0  502  0.42081538776E+02  0.30415413384E+02 -0.45740089031E+02  0.18590131428E+03  0.17254329784E+03 0.  0.
        -24    2    5    5    0    0  0.56101085348E+02  0.73962488979E+02 -0.30538752950E+01  0.12315501302E+03  0.80870572675E+02 0.  0.
          5    1    3    3  501    0  0.19326893065E+02  0.45540415785E+02 -0.11637162587E+03  0.12653815066E+03  0.47000000000E+01 0. -1.
        -13    1    4    4    0    0 -0.55923456929E+02 -0.53776087088E+02 -0.18117435964E+03  0.19708741504E+03  0.00000000000E+00 0.  1.
         14    1    4    4    0    0 -0.54849749125E+01 -0.22179742081E+02 -0.28913586081E+03  0.29003719058E+03  0.00000000000E+00 0. -1.
         -5    1    5    5    0  502 -0.14019546572E+02 -0.43547075595E+02 -0.42686213736E+02  0.62746301262E+02  0.47000000000E+01 0.  1.
         11    1    6    6    0    0  0.76050720726E+02  0.58476473789E+02 -0.11280024624E+02  0.96594249649E+02  0.00000000000E+00 0. -1.
        -12    1    6    6    0    0 -0.19949635377E+02  0.15486015190E+02  0.82261493287E+01  0.26560763372E+02  0.00000000000E+00 0.  1.
</event>
<event>
12    1  0.8451514E-002  0.2389326E+03  0.7818608E-02  0.1120987E+00
         21   -1    0    0  503  502  0.00000000000E+00  0.00000000000E+00  0.48172453325E+03  0.48172453325E+03  0.00000000000E+00 0.  1.
         21   -1    0    0  501  503 -0.00000000000E+00 -0.00000000000E+00 -0.13969107432E+03  0.13969107432E+03  0.00000000000E+00 0.  1.
          6    2    1    2  501    0  0.16118404053E+03 -0.25684990387E+02  0.45197600203E+02  0.24036404529E+03  0.17056388115E+03 0.  0.
         24    2    3    3    0    0  0.16043539312E+03 -0.41387951027E+01 -0.10797412029E+02  0.18017824631E+03  0.81184797502E+02 0.  0.
         -6    2    1    2    0  502 -0.16118404053E+03  0.25684990387E+02  0.29683585873E+03  0.38105156228E+03  0.17449570894E+03 0.  0.
        -24    2    5    5    0    0 -0.18569732920E+03 -0.19376502474E+01  0.24173403026E+03  0.31455183974E+03  0.77590372723E+02 0.  0.
          5    1    3    3  501    0  0.74864740246E+00 -0.21546195284E+02  0.55995012232E+02  0.60185798981E+02  0.47000000000E+01 0. -1.
        -11    1    4    4    0    0  0.13439025911E+03 -0.11192032867E+00  0.24010871427E+02  0.13651840981E+03  0.00000000000E+00 0.  1.
         12    1    4    4    0    0  0.26045134011E+02 -0.40268747740E+01 -0.34808283455E+02  0.43659836500E+02  0.00000000000E+00 0. -1.
         -5    1    5    5    0  502  0.24513288673E+02  0.27622640634E+02  0.55101828464E+02  0.66499722535E+02  0.47000000000E+01 0.  1.
         13    1    6    6    0    0 -0.83185506971E+02  0.77128651476E+01  0.51220403639E+02  0.97994115169E+02  0.00000000000E+00 0. -1.
        -14    1    6    6    0    0 -0.10251182223E+03 -0.96505153949E+01  0.19051362662E+03  0.21655772457E+03  0.00000000000E+00 0.  1.
</event>
<event>
12    1  0.8451514E-002  0.1886174E+03  0.7818608E-02  0.1159820E+00
         21   -1    0    0  501  502  0.00000000000E+00  0.00000000000E+00  0.17548472802E+03  0.17548472802E+03  0.00000000000E+00 0. -1.
         21   -1    0    0  502  503 -0.00000000000E+00 -0.00000000000E+00 -0.52373343750E+03  0.52373343750E+03  0.00000000000E+00 0. -1.
         -6    2    1    2    0  503 -0.62676050830E+02 -0.46291500704E+02 -0.44795789470E+03  0.48586760388E+03  0.17125963534E+03 0.  0.
        -24    2    3    3    0    0  0.99818876686E+01 -0.26506967223E+02 -0.35916551656E+03  0.36934816256E+03  0.81338425756E+02 0.  0.
          6    2    1    2  501    0  0.62676050830E+02  0.46291500704E+02  0.99709185210E+02  0.21335056164E+03  0.17177121456E+03 0.  0.
         24    2    5    5    0    0 -0.33323657546E+02  0.43319550137E+02  0.23732809726E+02  0.90797405297E+02  0.68511845507E+02 0.  0.
          5    1    5    5  501    0  0.95999708376E+02  0.29719505662E+01  0.75976375484E+02  0.12255315634E+03  0.47000000000E+01 0. -1.
        -13    1    6    6    0    0 -0.38405797504E+02  0.48775798847E+02  0.39342853422E+02  0.73497918001E+02  0.00000000000E+00 0.  1.
         14    1    6    6    0    0  0.50821399578E+01 -0.54562487101E+01 -0.15610043695E+02  0.17299487296E+02  0.00000000000E+00 0. -1.
         -5    1    3    3    0  503 -0.72657938498E+02 -0.19784533480E+02 -0.88792378132E+02  0.11651944132E+03  0.47000000000E+01 0.  1.
         13    1    4    4    0    0 -0.30577658283E+02 -0.28927492188E+02 -0.23391058777E+03  0.23766774300E+03  0.00000000000E+00 0. -1.
        -14    1    4    4    0    0  0.40559545952E+02  0.24205249647E+01 -0.12525492879E+03  0.13168041956E+03  0.00000000000E+00 0.  1.
</event>
<event>
12    1  0.8451514E-002  0.1825474E+03  0.7818608E-02  0.1165533E+00
         21   -1    0    0  503  502  0.00000000000E+00  0.00000000000E+00  0.24500220654E+03  0.24500220654E+03  0.00000000000E+00 0. -1.
         21   -1    0    0  501  503 -0.00000000000E+00 -0.00000000000E+00 -0.17043764558E+03  0.17043764558E+03  0.00000000000E+00 0. -1.
          6    2    1    2  501    0 -0.13754454809E+02  0.58138186194E+02 -0.56861644722E+02  0.19050341005E+03  0.17172381570E+03 0.  0.
         24    2    3    3    0    0 -0.51308641226E+02  0.20195192892E+02  0.18290553480E+02  0.98199940164E+02  0.79172352632E+02 0.  0.
         -6    2    1    2    0  502  0.13754454809E+02 -0.58138186194E+02  0.13142620568E+03  0.22493644207E+03  0.17249441067E+03 0.  0.
        -24    2    5    5    0    0  0.54650433958E+02 -0.54717835376E+02  0.29666530144E+02  0.11511248532E+03  0.79937912324E+02 0.  0.
          5    1    3    3  501    0  0.37554186417E+02  0.37942993302E+02 -0.75152198203E+02  0.92303469885E+02  0.47000000000E+01 0. -1.
        -11    1    4    4    0    0 -0.98703641498E+01 -0.28747092990E+02  0.15234222200E+02  0.33998543643E+02  0.00000000000E+00 0.  1.
         12    1    4    4    0    0 -0.41438277076E+02  0.48942285882E+02  0.30563312801E+01  0.64201396521E+02  0.00000000000E+00 0. -1.
         -5    1    5    5    0  502 -0.40895979149E+02 -0.34203508182E+01  0.10175967554E+03  0.10982395675E+03  0.47000000000E+01 0.  1.
         11    1    6    6    0    0  0.15912295265E+02 -0.67393254248E+02  0.26803780576E+02  0.74252909114E+02  0.00000000000E+00 0. -1.
        -12    1    6    6    0    0  0.38738138693E+02  0.12675418872E+02  0.28627495678E+01  0.40859576210E+02  0.00000000000E+00 0.  1.
</event>
<event>
12    1  0.8451514E-002  0.1819006E+03  0.7818608E-02  0.1166912E+00
         21   -1    0    0  503  502  0.00000000000E+00  0.00000000000E+00  0.11254246892E+04  0.11254246892E+04  0.00000000000E+00 0.  1.
         21   -1    0    0  501  503 -0.00000000000E+00 -0.00000000000E+00 -0.95143508140E+02  0.95143508140E+02  0.00000000000E+00 0.  1.
          6    2    1    2  501    0  0.47212103233E+02  0.15559540942E+02  0.37700838356E+01  0.17806502121E+03  0.17094401493E+03 0.  0.
         24    2    3    3    0    0  0.52562623084E+02  0.72658624082E+02 -0.10558983720E+01  0.12032150675E+03  0.80212499440E+02 0.  0.
         -6    2    1    2    0  502 -0.47212103233E+02 -0.15559540942E+02  0.10265110972E+04  0.10425031761E+04  0.17497644843E+03 0.  0.
        -24    2    5    5    0    0 -0.53555341177E+02 -0.12797306363E+02  0.10291884979E+04  0.10337210874E+04  0.79488218018E+02 0.  0.
          5    1    3    3  501    0 -0.53505198506E+01 -0.57099083141E+02  0.48259822076E+01  0.57743514462E+02  0.47000000000E+01 0. -1.
        -13    1    4    4    0    0  0.43260164347E+02  0.19666121819E+02 -0.32902978692E+02  0.57799690082E+02  0.00000000000E+00 0.  1.
         14    1    4    4    0    0  0.93024587366E+01  0.52992502264E+02  0.31847080320E+02  0.62521816669E+02  0.00000000000E+00 0. -1.
         -5    1    5    5    0  502  0.63432379435E+01 -0.27622345789E+01 -0.26774006640E+01  0.87820886919E+01  0.47000000000E+01 0.  1.
         13    1    6    6    0    0  0.28640838348E+01 -0.33894661496E+02  0.26738789816E+03  0.26954283358E+03  0.00000000000E+00 0. -1.
        -14    1    6    6    0    0 -0.56419425011E+02  0.21097355133E+02  0.76180059974E+03  0.76417825386E+03  0.00000000000E+00 0.  1.
</event>
<event>
12    1  0.8451514E-002  0.1823753E+03  0.7818608E-02  0.1165670E+00
         21   -1    0    0  501  502  0.00000000000E+00  0.00000000000E+00  0.13241463194E+03  0.13241463194E+03  0.00000000000E+00 0. -1.
         21   -1    0    0  502  503 -0.00000000000E+00 -0.00000000000E+00 -0.51413480996E+03  0.51413480996E+03  0.00000000000E+00 0. -1.
         -6    2    1    2    0  503 -0.59285556755E+02  0.34257937500E+01 -0.42226436816E+03  0.45972179919E+03  0.17178597944E+03 0.  0.
        -24    2    3    3    0    0 -0.41638583681E+02 -0.63681824905E+02 -0.28864206285E+03  0.30908362801E+03  0.80182929502E+02 0.  0.
          6    2    1    2  501    0  0.59285556755E+02 -0.34257937500E+01  0.40544190142E+02  0.18682764271E+03  0.17243614303E+03 0.  0.
         24    2    5    5    0    0  0.25456164016E+02  0.58071146569E+02 -0.66653708192E+01  0.10210967456E+03  0.79760166246E+02 0.  0.
          5    1    5    5  501    0  0.33829392739E+02 -0.61496940319E+02  0.47209560962E+02  0.84717968153E+02  0.47000000000E+01 0. -1.
        -13    1    6    6    0    0  0.25799393279E+02  0.67767319962E+02  0.18756944034E+02  0.74898873809E+02  0.00000000000E+00 0.  1.
         14    1    6    6    0    0 -0.34322926395E+00 -0.96961733923E+01 -0.25422314854E+02  0.27210800747E+02  0.00000000000E+00 0. -1.
         -5    1    3    3    0  503 -0.17646973074E+02  0.67107618655E+02 -0.13362230531E+03  0.15063817118E+03  0.47000000000E+01 0.  1.
         11    1    4    4    0    0 -0.27258534332E+01  0.17552203658E+02 -0.26534066892E+02  0.31930656680E+02  0.00000000000E+00 0. -1.
        -12    1    4    4    0    0 -0.38912730247E+02 -0.81234028563E+02 -0.26210799596E+03  0.27715297133E+03  0.00000000000E+00 0.  1.
</event>
<event>
12    1  0.8451514E-002  0.4107520E+03  0.7818608E-02  0.1040125E+00
         21   -1    0    0  503  502  0.00000000000E+00  0.00000000000E+00  0.14687511731E+03  0.14687511731E+03  0.00000000000E+00 0.  1.
         21   -1    0    0  501  503 -0.00000000000E+00 -0.00000000000E+00 -0.13661139021E+04  0.13661139021E+04  0.00000000000E+00 0. -1.
          6    2    1    2  501    0  0.57379301865E+02  0.36858089865E+03 -0.91158452375E+03  0.99985178054E+03  0.17196795040E+03 0.  0.
         24    2    3    3    0    0  0.37807806295E+02  0.33933679470E+03 -0.67319685981E+03  0.75883512266E+03  0.77832132644E+02 0.  0.
         -6    2    1    2    0  502 -0.57379301865E+02 -0.36858089865E+03 -0.30765426106E+03  0.51313723890E+03  0.17179760902E+03 0.  0.
        -24    2    5    5    0    0 -0.98879933449E+02 -0.31347760340E+03 -0.27962214087E+03  0.43852782038E+03  0.77927264236E+02 0.  0.
          5    1    3    3  501    0  0.19571495570E+02  0.29244103955E+02 -0.23838766394E+03  0.24101665787E+03  0.47000000000E+01 0. -1.
        -11    1    4    4    0    0  0.27730532396E+02  0.10072139932E+03 -0.27920162818E+03  0.29810624261E+03  0.00000000000E+00 0.  1.
         12    1    4    4    0    0  0.10077273899E+02  0.23861539538E+03 -0.39399523164E+03  0.46072888005E+03  0.00000000000E+00 0. -1.
         -5    1    5    5    0  502  0.41500631584E+02 -0.55103295257E+02 -0.28032120186E+02  0.74609418521E+02  0.47000000000E+01 0.  1.
         13    1    6    6    0    0  0.11204704636E+02 -0.53764882762E+02 -0.34767645563E+02  0.64999978480E+02  0.00000000000E+00 0. -1.
        -14    1    6    6    0    0 -0.11008463808E+03 -0.25971272063E+03 -0.24485449531E+03  0.37352784190E+03  0.00000000000E+00 0.  1.
</event>
<event>
12    1  0.8451514E-002  0.1825034E+03  0.7818608E-02  0.1165609E+00
         21   -1    0    0  501  502  0.00000000000E+00  0.00000000000E+00  0.47028588338E+03  0.47028588338E+03  0.00000000000E+00 0. -1.
         21   -1    0    0  502  503 -0.00000000000E+00 -0.00000000000E+00 -0.72594231142E+02  0.72594231142E+02  0.00000000000E+00 0. -1.
         -6    2    1    2    0  503  0.61566432176E+02  0.10425656554E+02  0.15305627156E+03  0.23818837934E+03  0.17148866407E+03 0.  0.
        -24    2    3    3    0    0  0.59386131925E+02 -0.22670810815E+02  0.42265555530E+02  0.12244382171E+03  0.95736272978E+02 0.  0.
          6    2    1    2  501    0 -0.61566432176E+02 -0.10425656554E+02  0.24463538068E+03  0.30469173518E+03  0.17056220016E+03 0.  0.
         24    2    5    5    0    0 -0.27076543092E+02 -0.56125063705E+02  0.21825341494E+03  0.24147712944E+03  0.82422624000E+02 0.  0.
          5    1    5    5  501    0 -0.34489889084E+02  0.45699407152E+02  0.26381965737E+02  0.63214605742E+02  0.47000000000E+01 0. -1.
        -11    1    6    6    0    0 -0.91113149188E+01 -0.60621417553E+02  0.74242946373E+02  0.96280773843E+02  0.00000000000E+00 0.  1.
         12    1    6    6    0    0 -0.17965228173E+02  0.44963538478E+01  0.14401046857E+03  0.14519635559E+03  0.00000000000E+00 0. -1.
         -5    1    3    3    0  503  0.21803002506E+01  0.33096467369E+02  0.11079071603E+03  0.11574455763E+03  0.47000000000E+01 0.  1.
         13    1    4    4    0    0  0.83610820123E+02 -0.15730202804E+02  0.16999564522E+02  0.86759401311E+02  0.00000000000E+00 0. -1.
        -14    1    4    4    0    0 -0.24224688198E+02 -0.69406080116E+01  0.25265991008E+02  0.35684420403E+02  0.00000000000E+00 0.  1.
</event>
<event>
12    1  0.8451514E-002  0.1760790E+03  0.7818608E-02  0.1171813E+00
         21   -1    0    0  501  502  0.00000000000E+00  0.00000000000E+00  0.14469277358E+03  0.14469277358E+03  0.00000000000E+00 0.  1.
         21   -1    0    0  502  503 -0.00000000000E+00 -0.00000000000E+00 -0.57564620494E+03  0.57564620494E+03  0.00000000000E+00 0.  1.
         -6    2    1    2    0  503 -0.21812452861E+02 -0.24366690565E+02 -0.50130084733E+03  0.53132508530E+03  0.17301528266E+03 0.  0.
        -24    2    3    3    0    0  0.33230044372E+02  0.32974852713E+02 -0.17187863091E+03  0.19241681489E+03  0.72735068075E+02 0.  0.
          6    2    1    2  501    0  0.21812452861E+02  0.24366690565E+02  0.70347415971E+02  0.18901389322E+03  0.17236001330E+03 0.  0.
         24    2    5    5    0    0  0.66220603061E+02  0.20499926856E+02 -0.65502693628E-01  0.10554470860E+03  0.79588101822E+02 0.  0.
          5    1    5    5  501    0 -0.44408150200E+02  0.38667637094E+01  0.70412918664E+02  0.83469184617E+02  0.47000000000E+01 0. -1.
        -11    1    6    6    0    0  0.70858667070E+02  0.42661370582E+02  0.25723312587E+01  0.82749985662E+02  0.00000000000E+00 0.  1.
         12    1    6    6    0    0 -0.46380640090E+01 -0.22161443726E+02 -0.26378339523E+01  0.22794722936E+02  0.00000000000E+00 0. -1.
         -5    1    3    3    0  503 -0.55042497232E+02 -0.57341543278E+02 -0.32942221642E+03  0.33890827042E+03  0.47000000000E+01 0.  1.
         11    1    4    4    0    0  0.25417210347E+01  0.18367295388E+02 -0.14131266273E+01  0.18596096703E+02  0.00000000000E+00 0. -1.
        -12    1    4    4    0    0  0.30688323337E+02  0.14607557325E+02 -0.17046550428E+03  0.17382071819E+03  0.00000000000E+00 0.  1.
</event>
<event>
12    1  0.8451514E-002  0.1732198E+03  0.7818608E-02  0.1174592E+00
         21   -1    0    0  501  502  0.00000000000E+00  0.00000000000E+00  0.23421691146E+03  0.23421691146E+03  0.00000000000E+00 0. -1.
         21   -1    0    0  502  503 -0.00000000000E+00 -0.00000000000E+00 -0.12911614906E+03  0.12911614906E+03  0.00000000000E+00 0. -1.
         -6    2    1    2    0  503 -0.17810551410E+02 -0.17510437833E+02  0.35185649296E+02  0.17675723851E+03  0.17140962714E+03 0.  0.
        -24    2    3    3    0    0 -0.50822124587E+02  0.20211286677E+02  0.64044735411E+02  0.11872595975E+03  0.83682381226E+02 0.  0.
          6    2    1    2  501    0  0.17810551410E+02  0.17510437833E+02  0.69915113108E+02  0.18657582200E+03  0.17116828895E+03 0.  0.
         24    2    5    5    0    0  0.16390865199E+01  0.32396432781E+02 -0.23780944567E+02  0.90221526063E+02  0.80759983774E+02 0.  0.
          5    1    5    5  501    0  0.16171464890E+02 -0.14885994948E+02  0.93696057675E+02  0.96354295940E+02  0.47000000000E+01 0. -1.
        -13    1    6    6    0    0  0.26219575267E+02  0.48940180700E+02 -0.64470843309E+01  0.55894295867E+02  0.00000000000E+00 0.  1.
         14    1    6    6    0    0 -0.24580488747E+02 -0.16543747919E+02 -0.17333860236E+02  0.34327230196E+02  0.00000000000E+00 0. -1.
         -5    1    3    3    0  503  0.33011573176E+02 -0.37721724510E+02 -0.28859086115E+02  0.58031278764E+02  0.47000000000E+01 0.  1.
         13    1    4    4    0    0  0.16842766892E+02  0.26770711660E+02  0.15729328377E+02  0.35323668702E+02  0.00000000000E+00 0. -1.
        -14    1    4    4    0    0 -0.67664891479E+02 -0.65594249831E+01  0.48315407034E+02  0.83402291046E+02  0.00000000000E+00 0.  1.
</event>
<event>
12    1  0.8451514E-002  0.1852726E+03  0.7818608E-02  0.1162973E+00
         21   -1    0    0  503  502  0.00000000000E+00  0.00000000000E+00  0.25622747924E+02  0.25622747924E+02  0.00000000000E+00 0. -1.
         21   -1    0    0  501  503 -0.00000000000E+00 -0.00000000000E+00 -0.14022739026E+04  0.14022739026E+04  0.00000000000E+00 0. -1.
          6    2    1    2  501    0  0.57004957136E+02 -0.35493103172E+02 -0.84699887208E+03  0.86702539780E+03  0.17267491309E+03 0.  0.
         24    2    3    3    0    0  0.63076957846E+02  0.27457351388E+02 -0.35218945801E+03  0.36816862960E+03  0.82329318799E+02 0.  0.
         -6    2    1    2    0  502 -0.57004957136E+02  0.35493103172E+02 -0.52965228256E+03  0.56087125269E+03  0.17185952450E+03 0.  0.
        -24    2    5    5    0    0  0.17567926776E+02  0.60479887082E+02 -0.23344403380E+03  0.25436371442E+03  0.78983121629E+02 0.  0.
          5    1    3    3  501    0 -0.60720007099E+01 -0.62950454559E+02 -0.49480941407E+03  0.49885676819E+03  0.47000000000E+01 0. -1.
        -13    1    4    4    0    0  0.68431811722E+02  0.42850509727E+02 -0.33453877389E+03  0.34414425795E+03  0.00000000000E+00 0.  1.
         14    1    4    4    0    0 -0.53548538760E+01 -0.15393158340E+02 -0.17650684117E+02  0.24024371657E+02  0.00000000000E+00 0. -1.
         -5    1    5    5    0  502 -0.74572883912E+02 -0.24986783910E+02 -0.29620824876E+03  0.30650753827E+03  0.47000000000E+01 0.  1.
         13    1    6    6    0    0 -0.16099766309E+02  0.23372711567E+02 -0.19023506205E+02  0.34166941764E+02  0.00000000000E+00 0. -1.
        -14    1    6    6    0    0  0.33667693085E+02  0.37107175515E+02 -0.21442052759E+03  0.22019677265E+03  0.00000000000E+00 0.  1.
</event>
<event>
12    1  0.8451514E-002  0.3142941E+03  0.7818608E-02  0.1078743E+00
         21   -1    0    0  501  502  0.00000000000E+00  0.00000000000E+00  0.12852820013E+04  0.12852820013E+04  0.00000000000E+00 0. -1.
         21   -1    0    0  502  503 -0.00000000000E+00 -0.00000000000E+00 -0.14584993283E+03  0.14584993283E+03  0.00000000000E+00 0.  1.
         -6    2    1    2    0  503  0.25036874481E+03 -0.66221666884E+02  0.10668253788E+04  0.11121587827E+04  0.17807569017E+03 0.  0.
        -24    2    3    3    0    0  0.19487550271E+03 -0.73537126151E+02  0.10018411005E+04  0.10262631350E+04  0.78398093746E+02 0.  0.
          6    2    1    2  501    0 -0.25036874481E+03  0.66221666884E+02  0.72606689626E+02  0.31897315143E+03  0.17147105415E+03 0.  0.
         24    2    5    5    0    0 -0.26934330399E+03  0.53338887707E+02  0.73909435131E+02  0.29552561337E+03  0.80510441641E+02 0.  0.
          5    1    5    5  501    0  0.18974559173E+02  0.12882779177E+02 -0.13027455050E+01  0.23447538058E+02  0.47000000000E+01 0. -1.
        -13    1    6    6    0    0 -0.43738562483E+02  0.37425885389E+02 -0.79633259672E-01  0.57565311488E+02  0.00000000000E+00 0.  1.
         14    1    6    6    0    0 -0.22560474150E+03  0.15913002318E+02  0.73989068390E+02  0.23796030188E+03  0.00000000000E+00 0. -1.
         -5    1    3    3    0  503  0.55493242100E+02  0.73154592669E+01  0.64984278353E+02  0.85895647713E+02  0.47000000000E+01 0.  1.
         11    1    4    4    0    0  0.73472405946E+02 -0.49112741279E+02  0.27217985219E+03  0.28616800613E+03  0.00000000000E+00 0. -1.
        -12    1    4    4    0    0  0.12140309677E+03 -0.24424384872E+02  0.72966124828E+03  0.74009512884E+03  0.00000000000E+00 0.  1.
</event>
<event>
12    1  0.8451514E-002  0.2475459E+03  0.7818608E-02  0.1114938E+00
         21   -1    0    0  501  502  0.00000000000E+00  0.00000000000E+00  0.18257297630E+04  0.18257297630E+04  0.00000000000E+00 0. -1.
         21   -1    0    0  502  503 -0.00000000000E+00 -0.00000000000E+00 -0.49659252585E+02  0.49659252585E+02  0.00000000000E+00 0. -1.
         -6    2    1    2    0  503 -0.16361625660E+03 -0.67126201824E+02  0.35262637156E+03  0.43058031698E+03  0.17256258301E+03 0.  0.
        -24    2    3    3    0    0 -0.64667445352E+01 -0.15352872941E+02  0.11892317052E+03  0.14419644365E+03  0.79827090530E+02 0.  0.
          6    2    1    2  501    0  0.16361625660E+03  0.67126201824E+02  0.14234441388E+04  0.14448086986E+04  0.17321302700E+03 0.  0.
         24    2    5    5    0    0  0.64046645406E+02 -0.35530373858E+01  0.92230094785E+03  0.92898290415E+03  0.90860337556E+02 0.  0.
          5    1    5    5  501    0  0.99569611198E+02  0.70679239210E+02  0.50114319098E+03  0.51582579442E+03  0.47000000000E+01 0. -1.
        -13    1    6    6    0    0  0.33981078994E+02 -0.36637188862E+02  0.23624261101E+03  0.24146960180E+03  0.00000000000E+00 0.  1.
         14    1    6    6    0    0  0.30065566412E+02  0.33084151476E+02  0.68605833684E+03  0.68751330235E+03  0.00000000000E+00 0. -1.
         -5    1    3    3    0  503 -0.15714951207E+03 -0.51773328883E+02  0.23370320104E+03  0.28638387333E+03  0.47000000000E+01 0.  1.
         11    1    4    4    0    0 -0.29931796112E+02 -0.16319981304E+01  0.11228223926E+03  0.11621478860E+03  0.00000000000E+00 0. -1.
        -12    1    4    4    0    0  0.23465051577E+02 -0.13720874811E+02  0.66409312543E+01  0.27981655044E+02  0.00000000000E+00 0.  1.
</event>
<event>
12    1  0.8451514E-002  0.1879174E+03  0.7818608E-02  0.1160562E+00
         21   -1    0    0  503  502  0.00000000000E+00  0.00000000000E+00  0.10665808175E+04  0.10665808175E+04  0.00000000000E+00 0.  1.
         21   -1    0    0  501  503 -0.00000000000E+00 -0.00000000000E+00 -0.37446646156E+02  0.37446646156E+02  0.00000000000E+00 0.  1.
          6    2    1    2  501    0 -0.65666129569E+02  0.31712146774E+02  0.32214910561E+03  0.37249425170E+03  0.17220400831E+03 0.  0.
         24    2    3    3    0    0 -0.59123643392E+01 -0.90530176584E+01  0.23293311675E+03  0.25754254984E+03  0.10933167392E+03 0.  0.
         -6    2    1    2    0  502  0.65666129569E+02 -0.31712146774E+02  0.70698506576E+03  0.73153321198E+03  0.17319138604E+03 0.  0.
        -24    2    5    5    0    0 -0.62193637604E+01  0.20252467046E+02  0.50211265055E+03  0.50823376784E+03  0.75733783889E+02 0.  0.
          5    1    3    3  501    0 -0.59753765230E+02  0.40765164433E+02  0.89215988860E+02  0.11495170185E+03  0.47000000000E+01 0. -1.
        -13    1    4    4    0    0 -0.17623711534E+02  0.38320729734E+02  0.38598461432E+02  0.57174424007E+02  0.00000000000E+00 0.  1.
         14    1    4    4    0    0  0.11711347195E+02 -0.47373747392E+02  0.19433465532E+03  0.20036812584E+03  0.00000000000E+00 0. -1.
         -5    1    5    5    0  502  0.71885493330E+02 -0.51964613820E+02  0.20487241520E+03  0.22329944414E+03  0.47000000000E+01 0.  1.
         11    1    6    6    0    0 -0.24203158983E+02  0.18644892034E+02  0.78489940908E+02  0.84226455033E+02  0.00000000000E+00 0. -1.
        -12    1    6    6    0    0  0.17983795223E+02  0.16075750117E+01  0.42362270964E+03  0.42400731281E+03  0.00000000000E+00 0.  1.
</event>
<event>
12    1  0.8451514E-002  0.2219872E+03  0.7818608E-02  0.1132491E+00
         21   -1    0    0  503  502  0.00000000000E+00  0.00000000000E+00  0.16895732338E+03  0.16895732338E+03  0.00000000000E+00 0.  1.
         21   -1    0    0  501  503 -0.00000000000E+00 -0.00000000000E+00 -0.29318497178E+03  0.29318497178E+03  0.00000000000E+00 0.  1.
          6    2    1    2  501    0 -0.88450595674E+02 -0.10796942809E+03 -0.42498500978E+02  0.22558795047E+03  0.17205492011E+03 0.  0.
         24    2    3    3    0    0 -0.33371332183E+02 -0.73714208235E+01  0.26812383545E+02  0.91499274417E+02  0.80530923569E+02 0.  0.
         -6    2    1    2    0  502  0.88450595674E+02  0.10796942809E+03 -0.81729147416E+02  0.23655434469E+03  0.17261923178E+03 0.  0.
        -24    2    5    5    0    0  0.87540714976E+02  0.13370015470E+03 -0.99676150767E+02  0.20481977200E+03  0.80477921361E+02 0.  0.
          5    1    3    3  501    0 -0.55079263491E+02 -0.10059800726E+03 -0.69310884523E+02  0.13408867605E+03  0.47000000000E+01 0. -1.
        -13    1    4    4    0    0 -0.37577992615E+02 -0.37985235426E+02  0.28488673539E+02  0.60552358825E+02  0.00000000000E+00 0.  1.
         14    1    4    4    0    0  0.42066604321E+01  0.30613814602E+02 -0.16762899938E+01  0.30946915592E+02  0.00000000000E+00 0. -1.
         -5    1    5    5    0  502  0.90988069722E+00 -0.25730726609E+02  0.17947003351E+02  0.31734572693E+02  0.47000000000E+01 0.  1.
         13    1    6    6    0    0  0.56574779982E+02  0.21581297618E+02 -0.19754645275E+02  0.63692261279E+02  0.00000000000E+00 0. -1.
        -14    1    6    6    0    0  0.30965934994E+02  0.11211885708E+03 -0.79921505492E+02  0.14112751072E+03  0.00000000000E+00 0.  1.
</event>
<event>
12    1  0.8451514E-002  0.1754913E+03  0.7818608E-02  0.1172411E+00
         21   -1    0    0  501  502  0.00000000000E+00  0.00000000000E+00  0.41304248115E+02  0.41304248115E+02  0.00000000000E+00 0. -1.
         21   -1    0    0  502  503 -0.00000000000E+00 -0.00000000000E+00 -0.75766716552E+03  0.75766716552E+03  0.00000000000E+00 0. -1.
         -6    2    1    2    0  503 -0.27862838750E+01 -0.32184161602E+02 -0.30272902565E+03  0.34991719774E+03  0.17249231481E+03 0.  0.
        -24    2    3    3    0    0  0.51835874783E+01  0.34708165248E+02 -0.24871591707E+03  0.26344403347E+03  0.79445736536E+02 0.  0.
          6    2    1    2  501    0  0.27862838750E+01  0.32184161602E+02 -0.41363389175E+03  0.44905421589E+03  0.17179379723E+03 0.  0.
         24    2    5    5    0    0  0.53846677491E+02 -0.20564752970E+02 -0.20203119569E+03  0.22502876473E+03  0.80616171978E+02 0.  0.
          5    1    5    5  501    0 -0.51060393616E+02  0.52748914572E+02 -0.21160269607E+03  0.22402545116E+03  0.47000000000E+01 0. -1.
        -13    1    6    6    0    0  0.62180406252E+02  0.11587937046E+02 -0.10624867349E+03  0.12365057147E+03  0.00000000000E+00 0.  1.
         14    1    6    6    0    0 -0.83337287611E+01 -0.32152690016E+02 -0.95782522198E+02  0.10137819326E+03  0.00000000000E+00 0. -1.
         -5    1    3    3    0  503 -0.79698713533E+01 -0.66892326849E+02 -0.54013108583E+02  0.86473164274E+02  0.47000000000E+01 0.  1.
         13    1    4    4    0    0 -0.25762319659E+02  0.21791893707E+02 -0.41285052434E+02  0.53320158477E+02  0.00000000000E+00 0. -1.
        -14    1    4    4    0    0  0.30945907137E+02  0.12916271540E+02 -0.20743086463E+03  0.21012387499E+03  0.00000000000E+00 0.  1.
</event>
<event>
12    1  0.8451514E-002  0.2545685E+03  0.7818608E-02  0.1110511E+00
         21   -1    0    0  501  502  0.00000000000E+00  0.00000000000E+00  0.65965514302E+03  0.65965514302E+03  0.00000000000E+00 0.  1.
         21   -1    0    0  502  503 -0.00000000000E+00 -0.00000000000E+00 -0.10778347138E+03  0.10778347138E+03  0.00000000000E+00 0.  1.
         -6    2    1    2    0  503  0.18659017535E+03  0.23119842313E+02  0.16067703035E+03  0.30070702299E+03  0.17104731786E+03 0.  0.
        -24    2    3    3    0    0  0.14331879859E+03  0.20391173810E+02  0.36985424425E+02  0.16955230117E+03  0.80149754922E+02 0.  0.
          6    2    1    2  501    0 -0.18659017535E+03 -0.23119842313E+02  0.39119464129E+03  0.46673159141E+03  0.17162374659E+03 0.  0.
         24    2    5    5    0    0 -0.72756623383E+02 -0.70919761109E+02  0.22749196763E+03  0.26163755162E+03  0.79865351183E+02 0.  0.
          5    1    5    5  501    0 -0.11383355197E+03  0.47799918797E+02  0.16370267366E+03  0.20509403979E+03  0.47000000000E+01 0. -1.
        -13    1    6    6    0    0 -0.59884651557E+02 -0.57168154946E+02  0.22823479475E+03  0.24278692503E+03  0.00000000000E+00 0.  1.
         14    1    6    6    0    0 -0.12871971826E+02 -0.13751606164E+02 -0.74282711615E+00  0.18850626591E+02  0.00000000000E+00 0. -1.
         -5    1    3    3    0  503  0.43271376762E+02  0.27286685029E+01  0.12369160593E+03  0.13115472182E+03  0.47000000000E+01 0.  1.
         13    1    4    4    0    0 -0.45489216569E+01  0.13032091478E+02 -0.64863424378E+01  0.15251253547E+02  0.00000000000E+00 0. -1.
        -14    1    4    4    0    0  0.14786772025E+03  0.73590823316E+01  0.43471766862E+02  0.15430104763E+03  0.00000000000E+00 0.  1.
</event>
<event>
12    1  0.8451514E-002  0.1971270E+03  0.7818608E-02  0.1152315E+00
         21   -1    0    0  503  502  0.00000000000E+00  0.00000000000E+00  0.47671229830E+03  0.47671229830E+03  0.00000000000E+00 0. -1.
         21   -1    0    0  501  503 -0.00000000000E+00 -0.00000000000E+00 -0.86996340768E+02  0.86996340768E+02  0.00000000000E+00 0. -1.
          6    2    1    2  501    0 -0.53462689874E+02  0.80285867773E+02  0.12224443492E+03  0.23144357745E+03  0.17122601408E+03 0.  0.
         24    2    3    3    0    0 -0.28570566549E+02  0.10440452655E+03  0.14156196931E+03  0.19148629226E+03  0.70075862683E+02 0.  0.
         -6    2    1    2    0  502  0.53462689874E+02 -0.80285867773E+02  0.26747152261E+03  0.33226506162E+03  0.17191560719E+03 0.  0.
        -24    2    5    5    0    0 -0.25455825428E+02 -0.77809210322E+02  0.12797876871E+03  0.17190738553E+03  0.80444463467E+02 0.  0.
          5    1    3    3  501    0 -0.24892123324E+02 -0.24118658777E+02 -0.19317534385E+02  0.39957285187E+02  0.47000000000E+01 0. -1.
        -13    1    4    4    0    0 -0.12590753634E+02  0.47064709496E+02  0.11764895822E+03  0.12733770584E+03  0.00000000000E+00 0.  1.
         14    1    4    4    0    0 -0.15979812915E+02  0.57339817054E+02  0.23913011089E+02  0.64148586422E+02  0.00000000000E+00 0. -1.
         -5    1    5    5    0  502  0.78918515301E+02 -0.24766574509E+01  0.13949275390E+03  0.16035767609E+03  0.47000000000E+01 0.  1.
         11    1    6    6    0    0 -0.53051025326E+01 -0.39918743556E+02  0.12212681680E+03  0.12859474943E+03  0.00000000000E+00 0. -1.
        -12    1    6    6    0    0 -0.20150722895E+02 -0.37890466766E+02  0.58519519062E+01  0.43312636101E+02  0.00000000000E+00 0.  1.
</event>
<event>
12    1  0.8451514E-002  0.1783540E+03  0.7818608E-02  0.1169500E+00
         21   -1    0    0  503  502  0.00000000000E+00  0.00000000000E+00  0.73671356879E+02  0.73671356879E+02  0.00000000000E+00 0.  1.
         21   -1    0    0  501  503 -0.00000000000E+00 -0.00000000000E+00 -0.56683968178E+03  0.56683968178E+03  0.00000000000E+00 0.  1.
          6    2    1    2  501    0 -0.37738811389E+02  0.25893046021E+02 -0.40324250977E+03  0.44076922013E+03  0.17198347597E+03 0.  0.
         24    2    3    3    0    0 -0.66706192090E+02  0.66752687896E+02 -0.32292886909E+03  0.34600113289E+03  0.80796609240E+02 0.  0.
         -6    2    1    2    0  502  0.37738811389E+02 -0.25893046021E+02 -0.89925815131E+02  0.19974181854E+03  0.17238176855E+03 0.  0.
        -24    2    5    5    0    0 -0.14769926070E+02  0.39709933494E+02 -0.17492716789E+02  0.88703256918E+02  0.75942367049E+02 0.  0.
          5    1    3    3  501    0  0.28967380701E+02 -0.40859641875E+02 -0.80313640686E+02  0.94768087240E+02  0.47000000000E+01 0. -1.
        -11    1    4    4    0    0 -0.73870803475E+02  0.24137835000E+02 -0.24319377531E+03  0.25530911271E+03  0.00000000000E+00 0.  1.
         12    1    4    4    0    0  0.71646113853E+01  0.42614852896E+02 -0.79735093775E+02  0.90692020173E+02  0.00000000000E+00 0. -1.
         -5    1    5    5    0  502  0.52508737459E+02 -0.65602979515E+02 -0.72433098342E+02  0.11103856162E+03  0.47000000000E+01 0.  1.
         11    1    6    6    0    0 -0.45981502930E+02  0.22977171540E+02 -0.78390635321E+01  0.51997114735E+02  0.00000000000E+00 0. -1.
        -12    1    6    6    0    0  0.31211576861E+02  0.16732761954E+02 -0.96536532566E+01  0.36706142183E+02  0.00000000000E+00 0.  1.
</event>
<event>
12    1  0.8451514E-002  0.2417212E+03  0.7818608E-02  0.1119528E+00
         21   -1    0    0  501  502  0.00000000000E+00  0.00000000000E+00  0.31511388351E+03  0.31511388351E+03  0.00000000000E+00 0.  1.
         21   -1    0    0  502  503 -0.00000000000E+00 -0.00000000000E+00 -0.26154788432E+03  0.26154788432E+03  0.00000000000E+00 0. -1.
         -6    2    1    2    0  503 -0.16706973408E+03  0.35660817878E+01  0.18657287055E+03  0.30534991032E+03  0.17465428344E+03 0.  0.
        -24    2    3    3    0    0 -0.17168414657E+03 -0.42963447964E+02  0.16107519347E+03  0.25188486120E+03  0.78609549706E+02 0.  0.
          6    2    1    2  501    0  0.16706973408E+03 -0.35660817878E+01 -0.13300687135E+03  0.27131185751E+03  0.16731492227E+03 0.  0.
         24    2    5    5    0    0  0.75804781759E+02 -0.32376105106E+02 -0.13223763697E+03  0.17548915306E+03  0.80716002691E+02 0.  0.
          5    1    5    5  501    0  0.91264952323E+02  0.28810023318E+02 -0.76923437540E+00  0.95822704448E+02  0.47000000000E+01 0. -1.
        -11    1    6    6    0    0 -0.16700329125E+02 -0.11609490450E+02 -0.19376659019E+02  0.28091567706E+02  0.00000000000E+00 0.  1.
         12    1    6    6    0    0  0.92505110884E+02 -0.20766614655E+02 -0.11286097796E+03  0.14739758536E+03  0.00000000000E+00 0. -1.
         -5    1    3    3    0  503  0.46144124858E+01  0.46529529752E+02  0.25497677080E+02  0.53465049125E+02  0.47000000000E+01 0.  1.
         11    1    4    4    0    0 -0.88307412037E+02 -0.89258211998E+01  0.31692954800E+02  0.94246022137E+02  0.00000000000E+00 0. -1.
        -12    1    4    4    0    0 -0.83376734531E+02 -0.34037626764E+02  0.12938223867E+03  0.15763883906E+03  0.00000000000E+00 0.  1.
</event>
<event>
12    1  0.8451514E-002  0.2302033E+03  0.7818608E-02  0.1126561E+00
         21   -1    0    0  501  502  0.00000000000E+00  0.00000000000E+00  0.30895260358E+03  0.30895260358E+03  0.00000000000E+00 0. -1.
         21   -1    0    0  502  503 -0.00000000000E+00 -0.00000000000E+00 -0.20824206118E+03  0.20824206118E+03  0.00000000000E+00 0. -1.
         -6    2    1    2    0  503 -0.15099213696E+03 -0.19867671351E+02 -0.58598598207E+02  0.23754443210E+03  0.17262737825E+03 0.  0.
        -24    2    3    3    0    0 -0.13162016310E+03  0.41688152960E+02 -0.64640808339E+02  0.17255988639E+03  0.80849927995E+02 0.  0.
          6    2    1    2  501    0  0.15099213696E+03  0.19867671351E+02  0.15930914061E+03  0.27965023266E+03  0.17213802763E+03 0.  0.
         24    2    5    5    0    0  0.25220496351E+02 -0.36116376910E+02  0.52562075709E+02  0.10538105837E+03  0.80012058738E+02 0.  0.
          5    1    5    5  501    0  0.12577164061E+03  0.55984048262E+02  0.10674706490E+03  0.17426917428E+03  0.47000000000E+01 0. -1.
        -13    1    6    6    0    0 -0.22676956593E+02  0.95922442827E+01  0.94462989176E+01  0.26372107878E+02  0.00000000000E+00 0.  1.
         14    1    6    6    0    0  0.47897452943E+02 -0.45708621193E+02  0.43115776791E+02  0.79008950494E+02  0.00000000000E+00 0. -1.
         -5    1    3    3    0  503 -0.19371973853E+02 -0.61555824311E+02  0.60422101314E+01  0.64984545708E+02  0.47000000000E+01 0.  1.
         11    1    4    4    0    0 -0.94698719338E+01 -0.80598618931E+00 -0.39731198084E+02  0.40852125886E+02  0.00000000000E+00 0. -1.
        -12    1    4    4    0    0 -0.12215029117E+03  0.42494139149E+02 -0.24909610254E+02  0.13170776051E+03  0.00000000000E+00 0.  1.
</event>
<event>
12    1  0.8451514E-002  0.1770517E+03  0.7818608E-02  0.1170863E+00
         21   -1    0    0  503  502  0.00000000000E+00  0.00000000000E+00  0.62213033319E+02  0.62213033319E+02  0.00000000000E+00 0.  1.
         21   -1    0    0  501  503 -0.00000000000E+00 -0.00000000000E+00 -0.88956047596E+03  0.88956047596E+03  0.00000000000E+00 0.  1.
          6    2    1    2  501    0 -0.15265545276E+02  0.38844392024E+02 -0.72831550105E+03  0.74952703581E+03  0.17206215353E+03 0.  0.
         24    2    3    3    0    0  0.16905484597E+01 -0.52083877851E+01 -0.66730684875E+03  0.67224636437E+03  0.81158848911E+02 0.  0.
         -6    2    1    2    0  502  0.15265545276E+02 -0.38844392024E+02 -0.99031941587E+02  0.20224647346E+03  0.17133121989E+03 0.  0.
        -24    2    5    5    0    0  0.60245721366E+02 -0.21281747690E+02 -0.11557159683E+03  0.15098915289E+03  0.73201574908E+02 0.  0.
          5    1    3    3  501    0 -0.16956093735E+02  0.44052779809E+02 -0.61008652298E+02  0.77280671444E+02  0.47000000000E+01 0. -1.
        -11    1    4    4    0    0  0.32913596664E+02 -0.27567326885E+02 -0.35663698677E+03  0.35921191891E+03  0.00000000000E+00 0.  1.
         12    1    4    4    0    0 -0.31223048205E+02  0.22358939100E+02 -0.31066986198E+03  0.31303444546E+03  0.00000000000E+00 0. -1.
         -5    1    5    5    0  502 -0.44980176090E+02 -0.17562644334E+02  0.16539655239E+02  0.51257320575E+02  0.47000000000E+01 0.  1.
         11    1    6    6    0    0  0.43017883754E+02 -0.46335390495E+02 -0.95582905922E+02  0.11460191377E+03  0.00000000000E+00 0. -1.
        -12    1    6    6    0    0  0.17227837612E+02  0.25053642805E+02 -0.19988690904E+02  0.36387239118E+02  0.00000000000E+00 0.  1.
</event>
<event>
12    1  0.8451514E-002  0.2507568E+03  0.7818608E-02  0.1112916E+00
         21   -1    0    0  501  502  0.00000000000E+00  0.00000000000E+00  0.54131774495E+03  0.54131774495E+03  0.00000000000E+00 0.  1.
         21   -1    0    0  502  503 -0.00000000000E+00 -0.00000000000E+00 -0.15910926408E+03  0.15910926408E+03  0.00000000000E+00 0.  1.
         -6    2    1    2    0  503  0.39477900407E+02  0.17743482775E+03  0.87534189377E+01  0.25090951869E+03  0.17273488792E+03 0.  0.
        -24    2    3    3    0    0  0.21965525776E+02  0.28462664789E+02 -0.35415001103E+02  0.94473180419E+02  0.79864584803E+02 0.  0.
          6    2    1    2  501    0 -0.39477900407E+02 -0.17743482775E+03  0.37345506193E+03  0.44951749034E+03  0.17191762017E+03 0.  0.
         24    2    5    5    0    0 -0.74406359206E+01 -0.10545444898E+03  0.33847641004E+03  0.36318581984E+03  0.78496214601E+02 0.  0.
          5    1    5    5  501    0 -0.32037264487E+02 -0.71980378770E+02  0.34978651887E+02  0.86331670501E+02  0.47000000000E+01 0. -1.
        -11    1    6    6    0    0  0.28685813674E+02 -0.85489285100E+02  0.24177996865E+03  0.25804814864E+03  0.00000000000E+00 0.  1.
         12    1    6    6    0    0 -0.36126449595E+02 -0.19965163878E+02  0.96696441387E+02  0.10513767120E+03  0.00000000000E+00 0. -1.
         -5    1    3    3    0  503  0.17512374631E+02  0.14897216296E+03  0.44168420041E+02  0.15643633827E+03  0.47000000000E+01 0.  1.
         11    1    4    4    0    0 -0.64607530490E+01 -0.23261009660E+02  0.25822429176E+01  0.24279289092E+02  0.00000000000E+00 0. -1.
        -12    1    4    4    0    0  0.28426278825E+02  0.51723674449E+02 -0.37997244021E+02  0.70193891326E+02  0.00000000000E+00 0.  1.
</event>
<event>
12    1  0.8451514E-002  0.2727316E+03  0.7818608E-02  0.1100524E+00
         21   -1    0    0  501  502  0.00000000000E+00  0.00000000000E+00  0.34703000194E+03  0.34703000194E+03  0.00000000000E+00 0. -1.
         21   -1    0    0  502  503 -0.00000000000E+00 -0.00000000000E+00 -0.23232479169E+03  0.23232479169E+03  0.00000000000E+00 0.  1.
         -6    2    1    2    0  503 -0.13767824095E+03 -0.15212049004E+03  0.14773604023E+03  0.31017488053E+03  0.17968466102E+03 0.  0.
        -24    2    3    3    0    0 -0.17127566464E+03 -0.13868106281E+03  0.11365990953E+03  0.26024815656E+03  0.79010995942E+02 0.  0.
          6    2    1    2  501    0  0.13767824095E+03  0.15212049004E+03 -0.33030829984E+02  0.26917991310E+03  0.17108725367E+03 0.  0.
         24    2    5    5    0    0  0.45145833916E+02  0.13950560117E+03 -0.47788132577E+02  0.17451603534E+03  0.81683424869E+02 0.  0.
          5    1    5    5  501    0  0.92532407032E+02  0.12614888867E+02  0.14757302593E+02  0.94663877757E+02  0.47000000000E+01 0. -1.
        -11    1    6    6    0    0  0.51709856946E+01  0.24346221839E+02 -0.46347026613E+02  0.52607266482E+02  0.00000000000E+00 0.  1.
         12    1    6    6    0    0  0.39974848222E+02  0.11515937933E+03 -0.14411059644E+01  0.12190876886E+03  0.00000000000E+00 0. -1.
         -5    1    3    3    0  503  0.33597423687E+02 -0.13439427230E+02  0.34076130695E+02  0.49926723965E+02  0.47000000000E+01 0. -1.
         11    1    4    4    0    0 -0.40915580697E+02  0.34632188256E+01  0.16073419616E+02  0.44095730480E+02  0.00000000000E+00 0. -1.
        -12    1    4    4    0    0 -0.13036008394E+03 -0.14214428164E+03  0.97586489918E+02  0.21615242608E+03  0.00000000000E+00 0.  1.
</event>
<event>
12    1  0.8451514E-002  0.2108982E+03  0.7818608E-02  0.1140865E+00
         21   -1    0    0  503  502  0.00000000000E+00  0.00000000000E+00  0.46005865944E+02  0.46005865944E+02  0.00000000000E+00 0. -1.
         21   -1    0    0  501  503 -0.00000000000E+00 -0.00000000000E+00 -0.16186208772E+04  0.16186208772E+04  0.00000000000E+00 0. -1.
          6    2    1    2  501    0 -0.10969449768E+03 -0.52014622322E+02 -0.13145170774E+04  0.13313211943E+04  0.17240235492E+03 0.  0.
         24    2    3    3    0    0 -0.13121152849E+03 -0.11786634934E+02 -0.77352398603E+03  0.78838759943E+03  0.76552334981E+02 0.  0.
         -6    2    1    2    0  502  0.10969449768E+03  0.52014622322E+02 -0.25809793393E+03  0.33330554887E+03  0.17245185314E+03 0.  0.
        -24    2    5    5    0    0  0.96820532011E+01  0.27496012338E+02 -0.19434357834E+03  0.21210175708E+03  0.79799474098E+02 0.  0.
          5    1    3    3  501    0  0.21517030811E+02 -0.40227987388E+02 -0.54099309134E+03  0.54293359489E+03  0.47000000000E+01 0. -1.
        -13    1    4    4    0    0 -0.58165692507E+02  0.32554692206E+02 -0.31630487070E+03  0.32325195591E+03  0.00000000000E+00 0.  1.
         14    1    4    4    0    0 -0.73045835986E+02 -0.44341327140E+02 -0.45721911533E+03  0.46513564352E+03  0.00000000000E+00 0. -1.
         -5    1    5    5    0  502  0.10001244448E+03  0.24518609984E+02 -0.63754355582E+02  0.12120379178E+03  0.47000000000E+01 0.  1.
         13    1    6    6    0    0 -0.17902011929E+02  0.21640470987E+02 -0.17647354945E+02  0.33169581731E+02  0.00000000000E+00 0. -1.
        -14    1    6    6    0    0  0.27584065130E+02  0.58555413512E+01 -0.17669622340E+03  0.17893217535E+03  0.00000000000E+00 0.  1.
</event>
<event>
12    1  0.8451514E-002  0.2486837E+03  0.7818608E-02  0.1116550E+00
         21   -1    0    0  503  502  0.00000000000E+00  0.00000000000E+00  0.21365365003E+03  0.21365365003E+03  0.00000000000E+00 0.  1.
         21   -1    0    0  501  503 -0.00000000000E+00 -0.00000000000E+00 -0.40084810880E+03  0.40084810880E+03  0.00000000000E+00 0.  1.
          6    2    1    2  501    0  0.60760651468E+02  0.14687560225E+03 -0.26537771252E+03  0.35381760901E+03  0.17174769531E+03 0.  0.
         24    2    3    3    0    0  0.42613695392E+02  0.15648645710E+03 -0.27635995265E+03  0.33006092271E+03  0.79129330706E+02 0.  0.
         -6    2    1    2    0  502 -0.60760651468E+02 -0.14687560225E+03  0.78183253741E+02  0.26068414982E+03  0.19125717110E+03 0.  0.
        -24    2    5    5    0    0  0.10543102659E+02 -0.79786919931E+02 -0.27700899250E+02  0.11639741965E+03  0.79397165418E+02 0.  0.
          5    1    3    3  501    0  0.18146956075E+02 -0.96108548568E+01  0.10982240132E+02  0.23756686305E+02  0.47000000000E+01 0. -1.
        -11    1    4    4    0    0  0.21219244758E+02  0.11069949340E+03 -0.11523037528E+03  0.16119141904E+03  0.00000000000E+00 0.  1.
         12    1    4    4    0    0  0.21394450634E+02  0.45786963704E+02 -0.16112957737E+03  0.16886950366E+03  0.00000000000E+00 0. -1.
         -5    1    5    5    0  502 -0.71303754127E+02 -0.67088682316E+02  0.10588415299E+03  0.14428673017E+03  0.47000000000E+01 0.  1.
         13    1    6    6    0    0 -0.20331872443E+02  0.57807592859E+01 -0.11281788187E+02  0.23959986637E+02  0.00000000000E+00 0. -1.
        -14    1    6    6    0    0  0.30874975102E+02 -0.85567679217E+02 -0.16419111063E+02  0.92437433014E+02  0.00000000000E+00 0.  1.
</event>
<event>
12    1  0.8451514E-002  0.1785064E+03  0.7818608E-02  0.1169423E+00
         21   -1    0    0  503  502  0.00000000000E+00  0.00000000000E+00  0.80953334993E+03  0.80953334993E+03  0.00000000000E+00 0. -1.
         21   -1    0    0  501  503 -0.00000000000E+00 -0.00000000000E+00 -0.39627138232E+02  0.39627138232E+02  0.00000000000E+00 0. -1.
          6    2    1    2  501    0  0.42218102542E+02 -0.13158971423E+01  0.34073874038E+03  0.38434950017E+03  0.17273548945E+03 0.  0.
         24    2    3    3    0    0  0.10765264904E+01  0.32872797368E+02  0.31086213798E+03  0.32289872733E+03  0.80910688799E+02 0.  0.
         -6    2    1    2    0  502 -0.42218102542E+02  0.13158971423E+01  0.42916747131E+03  0.46481098799E+03  0.17343712507E+03 0.  0.
        -24    2    5    5    0    0 -0.56383438976E+01  0.54102895885E+02  0.14690534477E+03  0.17529666354E+03  0.78669089621E+02 0.  0.
          5    1    3    3  501    0  0.41141576052E+02 -0.34188694510E+02  0.29876602403E+02  0.61450772847E+02  0.47000000000E+01 0. -1.
        -13    1    4    4    0    0 -0.16441339720E+02 -0.23279059342E+02  0.10468994286E+03  0.10849984512E+03  0.00000000000E+00 0.  1.
         14    1    4    4    0    0  0.17517866211E+02  0.56151856710E+02  0.20617219513E+03  0.21439888221E+03  0.00000000000E+00 0. -1.
         -5    1    5    5    0  502 -0.36579758645E+02 -0.52786998743E+02  0.28226212654E+03  0.28951432445E+03  0.47000000000E+01 0.  1.
         11    1    6    6    0    0 -0.28694664636E+02  0.19059900685E+02  0.16279950721E+02  0.38101186179E+02  0.00000000000E+00 0. -1.
        -12    1    6    6    0    0  0.23056320739E+02  0.35042995200E+02  0.13062539405E+03  0.13719547736E+03  0.00000000000E+00 0.  1.
</event>
<event>
12    1  0.8451514E-002  0.2254828E+03  0.7818608E-02  0.1129976E+00
         21   -1    0    0  503  502  0.00000000000E+00  0.00000000000E+00  0.93299580953E+03  0.93299580953E+03  0.00000000000E+00 0. -1.
         21   -1    0    0  501  503 -0.00000000000E+00 -0.00000000000E+00 -0.60253522553E+02  0.60253522553E+02  0.00000000000E+00 0. -1.
          6    2    1    2  501    0  0.32403419074E+02 -0.14101319981E+03  0.28022488503E+03  0.35927820937E+03  0.17210503028E+03 0.  0.
         24    2    3    3    0    0  0.41441062214E+02 -0.15260935013E+03  0.29039250004E+03  0.34079524178E+03  0.82502226377E+02 0.  0.
         -6    2    1    2    0  502 -0.32403419074E+02  0.14101319981E+03  0.59251740195E+03  0.63397112272E+03  0.17293874275E+03 0.  0.
        -24    2    5    5    0    0 -0.17613540867E+02  0.12420055433E+03  0.59292635903E+03  0.61108744314E+03  0.78295474999E+02 0.  0.
          5    1    3    3  501    0 -0.90376431402E+01  0.11596150322E+02 -0.10167615008E+02  0.18482967585E+02  0.47000000000E+01 0. -1.
        -11    1    4    4    0    0  0.19754346468E+02  0.18637548189E+01  0.17452880921E+02  0.26425571684E+02  0.00000000000E+00 0.  1.
         12    1    4    4    0    0  0.21686715746E+02 -0.15447310495E+03  0.27293961912E+03  0.31436967010E+03  0.00000000000E+00 0. -1.
         -5    1    5    5    0  502 -0.14789878207E+02  0.16812645480E+02 -0.40895708589E+00  0.22883679584E+02  0.47000000000E+01 0.  1.
         11    1    6    6    0    0  0.28163682815E+02  0.70162927404E+02  0.26334544450E+03  0.27398330707E+03  0.00000000000E+00 0. -1.
        -12    1    6    6    0    0 -0.45777223682E+02  0.54037626923E+02  0.32958091453E+03  0.33710413607E+03  0.00000000000E+00 0.  1.
</event>
<event>
12    1  0.8451514E-002  0.1850148E+03  0.7818608E-02  0.1163424E+00
         21   -1    0    0  503  502  0.00000000000E+00  0.00000000000E+00  0.77070291707E+02  0.77070291707E+02  0.00000000000E+00 0. -1.
         21   -1    0    0  501  503 -0.00000000000E+00 -0.00000000000E+00 -0.45490761193E+03  0.45490761193E+03  0.00000000000E+00 0. -1.
          6    2    1    2  501    0  0.14542875863E+02 -0.59382062252E+02 -0.14189493204E+03  0.23316226522E+03  0.17462172152E+03 0.  0.
         24    2    3    3    0    0 -0.50960946829E+02 -0.13595385864E+00 -0.55465317913E+02  0.10949731325E+03  0.79474672270E+02 0.  0.
         -6    2    1    2    0  502 -0.14542875863E+02  0.59382062252E+02 -0.23594238819E+03  0.29881563842E+03  0.17287061829E+03 0.  0.
        -24    2    5    5    0    0 -0.33439088329E+02  0.77911415153E+02 -0.24419654217E+03  0.27069758688E+03  0.80354658229E+02 0.  0.
          5    1    3    3  501    0  0.65503822692E+02 -0.59246108393E+02 -0.86429614126E+02  0.12366495197E+03  0.47000000000E+01 0. -1.
        -11    1    4    4    0    0 -0.76072449846E+01  0.45869035209E+01 -0.64376080785E+02  0.64986072642E+02  0.00000000000E+00 0.  1.
         12    1    4    4    0    0 -0.43353701844E+02 -0.47228573796E+01  0.89107628718E+01  0.44511240607E+02  0.00000000000E+00 0. -1.
         -5    1    5    5    0  502  0.18896212466E+02 -0.18529352901E+02  0.82541539802E+01  0.28118051540E+02  0.47000000000E+01 0.  1.
         11    1    6    6    0    0 -0.31842760324E+02 -0.62498683431E+01 -0.61270650676E+02  0.69333360466E+02  0.00000000000E+00 0. -1.
        -12    1    6    6    0    0 -0.15963280055E+01  0.84161283496E+02 -0.18292589149E+03  0.20136422642E+03  0.00000000000E+00 0.  1.
</event>
<event>
12    1  0.8451514E-002  0.1914726E+03  0.7818608E-02  0.1157472E+00
         21   -1    0    0  501  502  0.00000000000E+00  0.00000000000E+00  0.16301315359E+03  0.16301315359E+03  0.00000000000E+00 0.  1.
         21   -1    0    0  502  503 -0.00000000000E+00 -0.00000000000E+00 -0.22670122327E+03  0.22670122327E+03  0.00000000000E+00 0.  1.
         -6    2    1    2    0  503 -0.60879993161E+02  0.54974443962E+02 -0.73836041919E+01  0.19013489971E+03  0.17137152454E+03 0.  0.
        -24    2    3    3    0    0 -0.31718517476E+02  0.88049889983E+02 -0.44815516129E+02  0.13210374580E+03  0.81756477975E+02 0.  0.
          6    2    1    2  501    0  0.60879993161E+02 -0.54974443962E+02 -0.56304465496E+02  0.19957947714E+03  0.17301217242E+03 0.  0.
         24    2    5    5    0    0  0.67921471923E+02 -0.95829959138E+02 -0.15916776328E+02  0.14151045804E+03  0.77299149734E+02 0.  0.
          5    1    5    5  501    0 -0.70414787614E+01  0.40855515176E+02 -0.40387689168E+02  0.58069019104E+02  0.47000000000E+01 0. -1.
        -13    1    6    6    0    0  0.40568362207E+02 -0.25677129977E+02 -0.39963047734E+02  0.62467209000E+02  0.00000000000E+00 0.  1.
         14    1    6    6    0    0  0.27353109715E+02 -0.70152829160E+02  0.24046271406E+02  0.79043249040E+02  0.00000000000E+00 0. -1.
         -5    1    3    3    0  503 -0.29161475685E+02 -0.33075446021E+02  0.37431911937E+02  0.58031153917E+02  0.47000000000E+01 0.  1.
         13    1    4    4    0    0 -0.29181316585E+02 -0.63247680751E+01 -0.11098247806E+02  0.31854717597E+02  0.00000000000E+00 0. -1.
        -14    1    4    4    0    0 -0.25372008910E+01  0.94374658058E+02 -0.33717268323E+02  0.10024902820E+03  0.00000000000E+00 0.  1.
</event>
<event>
12    1  0.8451514E-002  0.1764214E+03  0.7818608E-02  0.1171464E+00
         21   -1    0    0  503  502  0.00000000000E+00  0.00000000000E+00  0.64732884561E+03  0.64732884561E+03  0.00000000000E+00 0.  1.
         21   -1    0    0  501  503 -0.00000000000E+00 -0.00000000000E+00 -0.12462404039E+03  0.12462404039E+03  0.00000000000E+00 0.  1.
          6    2    1    2  501    0 -0.34395246788E+02 -0.15113027691E+01 -0.41291502942E+02  0.18118910623E+03  0.17302943958E+03 0.  0.
         24    2    3    3    0    0 -0.47463444255E+02  0.56680969236E+02 -0.52622031723E+02  0.12029913013E+03  0.78976526096E+02 0.  0.
         -6    2    1    2    0  502  0.34395246788E+02  0.15113027691E+01  0.56399630816E+03  0.59076377977E+03  0.17240849987E+03 0.  0.
        -24    2    5    5    0    0 -0.35237368765E+02 -0.67510775547E+00  0.17563595354E+03  0.19617622727E+03  0.79968719158E+02 0.  0.
          5    1    3    3  501    0  0.13068197467E+02 -0.58192272005E+02  0.11330528781E+02  0.60889976093E+02  0.47000000000E+01 0. -1.
        -11    1    4    4    0    0  0.41675970477E+01  0.25588896927E+02 -0.54121068621E+02  0.60010420593E+02  0.00000000000E+00 0.  1.
         12    1    4    4    0    0 -0.51631041302E+02  0.31092072308E+02  0.14990368976E+01  0.60288709540E+02  0.00000000000E+00 0. -1.
         -5    1    5    5    0  502  0.69632615553E+02  0.21864105246E+01  0.38836035462E+03  0.39458755249E+03  0.47000000000E+01 0.  1.
         13    1    6    6    0    0 -0.20117275257E+02  0.26874977763E+02  0.23872320926E+02  0.41192922935E+02  0.00000000000E+00 0. -1.
        -14    1    6    6    0    0 -0.15120093508E+02 -0.27550085519E+02  0.15176363261E+03  0.15498330434E+03  0.00000000000E+00 0.  1.
</event>
<event>
12    1  0.8451514E-002  0.2016906E+03  0.7818608E-02  0.1148543E+00
         21   -1    0    0  501  502  0.00000000000E+00  0.00000000000E+00  0.67237541612E+03  0.67237541612E+03  0.00000000000E+00 0.  1.
         21   -1    0    0  502  503 -0.00000000000E+00 -0.00000000000E+00 -0.63226294211E+02  0.63226294211E+02  0.00000000000E+00 0.  1.
         -6    2    1    2    0  503 -0.10143260494E+03  0.20774631122E+02  0.22463962819E+03  0.30189741720E+03  0.17308647930E+03 0.  0.
        -24    2    3    3    0    0 -0.89817642290E+02  0.63343311305E+02  0.10214982608E+03  0.17161755878E+03  0.83297152171E+02 0.  0.
          6    2    1    2  501    0  0.10143260494E+03 -0.20774631122E+02  0.38450949372E+03  0.43370429313E+03  0.17184791088E+03 0.  0.
         24    2    5    5    0    0  0.57601297231E+02 -0.78403241518E+02  0.26960991342E+03  0.29781373486E+03  0.80861223940E+02 0.  0.
          5    1    5    5  501    0  0.43831307713E+02  0.57628610396E+02  0.11489958031E+03  0.13589055827E+03  0.47000000000E+01 0. -1.
        -11    1    6    6    0    0  0.58582357501E+02 -0.12733163842E+02  0.11125492969E+03  0.12637913377E+03  0.00000000000E+00 0.  1.
         12    1    6    6    0    0 -0.98106027008E+00 -0.65670077676E+02  0.15835498372E+03  0.17143460109E+03  0.00000000000E+00 0. -1.
         -5    1    3    3    0  503 -0.11614962653E+02 -0.42568680183E+02  0.12248980211E+03  0.13027985842E+03  0.47000000000E+01 0.  1.
         11    1    4    4    0    0  0.59768291780E+01  0.35313741593E+02  0.41526195961E+02  0.54838014035E+02  0.00000000000E+00 0. -1.
        -12    1    4    4    0    0 -0.95794471468E+02  0.28029569712E+02  0.60623630120E+02  0.11677954475E+03  0.00000000000E+00 0.  1.
</event>
<event>
12    1  0.8451514E-002  0.2146861E+03  0.7818608E-02  0.1137916E+00
         21   -1    0    0  503  502  0.00000000000E+00  0.00000000000E+00  0.29903435422E+03  0.29903435422E+03  0.00000000000E+00 0. -1.
         21   -1    0    0  501  503 -0.00000000000E+00 -0.00000000000E+00 -0.20422010513E+03  0.20422010513E+03  0.00000000000E+00 0. -1.
          6    2    1    2  501    0 -0.42011121928E+02  0.12172463290E+03 -0.77255503989E+02  0.22812151397E+03  0.17172417308E+03 0.  0.
         24    2    3    3    0    0  0.31942293007E+02  0.22918228632E+02 -0.47722919431E+02  0.10113302372E+03  0.80030345256E+02 0.  0.
         -6    2    1    2    0  502  0.42011121928E+02 -0.12172463290E+03  0.17206975308E+03  0.27513294538E+03  0.17177985064E+03 0.  0.
        -24    2    5    5    0    0  0.12353062992E+02 -0.11390792320E+03  0.19239170640E+03  0.23804152862E+03  0.80756346653E+02 0.  0.
          5    1    3    3  501    0 -0.73953414935E+02  0.98806404269E+02 -0.29532584559E+02  0.12698849025E+03  0.47000000000E+01 0. -1.
        -13    1    4    4    0    0 -0.11129737569E+02 -0.91846540738E+01  0.13446207596E+02  0.19723828926E+02  0.00000000000E+00 0.  1.
         14    1    4    4    0    0  0.43072030576E+02  0.32102882706E+02 -0.61169127027E+02  0.81409194795E+02  0.00000000000E+00 0. -1.
         -5    1    5    5    0  502  0.29658058936E+02 -0.78167097064E+01 -0.20321953317E+02  0.37091416758E+02  0.47000000000E+01 0.  1.
         11    1    6    6    0    0 -0.28957238025E+02 -0.24416265931E+02  0.80249335519E+02  0.88739120613E+02  0.00000000000E+00 0. -1.
        -12    1    6    6    0    0  0.41310301017E+02 -0.89491657264E+02  0.11214237088E+03  0.14930240801E+03  0.00000000000E+00 0.  1.
</event>
<event>
12    1  0.8451514E-002  0.1720841E+03  0.7818608E-02  0.1175826E+00
         21   -1    0    0  501  502  0.00000000000E+00  0.00000000000E+00  0.16510715005E+03  0.16510715005E+03  0.00000000000E+00 0.  1.
         21   -1    0    0  502  503 -0.00000000000E+00 -0.00000000000E+00 -0.29209650176E+03  0.29209650176E+03  0.00000000000E+00 0.  1.
         -6    2    1    2    0  503 -0.50540026679E+01  0.69061051063E+01 -0.20591970946E+03  0.26835774458E+03  0.17187121661E+03 0.  0.
        -24    2    3    3    0    0  0.50607445574E+02 -0.37385894869E+02 -0.12858958778E+03  0.16318162656E+03  0.78320766589E+02 0.  0.
          6    2    1    2  501    0  0.50540026679E+01 -0.69061051063E+01  0.78930357747E+02  0.18884590723E+03  0.17134625199E+03 0.  0.
         24    2    5    5    0    0  0.51798119417E+01  0.55852322193E+02  0.14007398103E+02  0.98426237277E+02  0.79656792784E+02 0.  0.
          5    1    5    5  501    0 -0.12580927381E+00 -0.62758427300E+02  0.64922959644E+02  0.90419669951E+02  0.47000000000E+01 0. -1.
        -11    1    6    6    0    0  0.38389895935E+02  0.30601076234E+02  0.25266164265E+02  0.55214029315E+02  0.00000000000E+00 0.  1.
         12    1    6    6    0    0 -0.33210083994E+02  0.25251245960E+02 -0.11258766162E+02  0.43212207961E+02  0.00000000000E+00 0. -1.
         -5    1    3    3    0  503 -0.55661448242E+02  0.44291999975E+02 -0.77330121683E+02  0.10517611802E+03  0.47000000000E+01 0.  1.
         13    1    4    4    0    0  0.42595690013E+02  0.26741427249E+01 -0.11058809194E+03  0.11853805265E+03  0.00000000000E+00 0. -1.
        -14    1    4    4    0    0  0.80117555604E+01 -0.40060037594E+02 -0.18001495841E+02  0.44643573913E+02  0.00000000000E+00 0.  1.
</event>
<event>
12    1  0.8451514E-002  0.2235280E+03  0.7818608E-02  0.1133963E+00
         21   -1    0    0  501  502  0.00000000000E+00  0.00000000000E+00  0.51819203753E+03  0.51819203753E+03  0.00000000000E+00 0.  1.
         21   -1    0    0  502  503 -0.00000000000E+00 -0.00000000000E+00 -0.18256203501E+03  0.18256203501E+03  0.00000000000E+00 0.  1.
         -6    2    1    2    0  503  0.43847734925E+02  0.10705467873E+03 -0.83792342502E+02  0.22548584842E+03  0.17446885992E+03 0.  0.
        -24    2    3    3    0    0  0.49079426021E+02  0.90219690000E+02 -0.12497970842E+03  0.18043835628E+03  0.79935538905E+02 0.  0.
          6    2    1    2  501    0 -0.43847734925E+02 -0.10705467873E+03  0.41942234502E+03  0.47526822412E+03  0.19126278586E+03 0.  0.
         24    2    5    5    0    0  0.46385838054E+02 -0.87918146052E+02  0.28508196364E+03  0.31224143906E+03  0.79635067000E+02 0.  0.
          5    1    5    5  501    0 -0.90233572979E+02 -0.19136532675E+02  0.13434038139E+03  0.16302678506E+03  0.47000000000E+01 0. -1.
        -11    1    6    6    0    0  0.24673308158E+02 -0.69916278927E+02  0.97174630204E+02  0.12222915753E+03  0.00000000000E+00 0.  1.
         12    1    6    6    0    0  0.21712529896E+02 -0.18001867125E+02  0.18790733343E+03  0.19001228153E+03  0.00000000000E+00 0. -1.
         -5    1    3    3    0  503 -0.52316910961E+01  0.16834988727E+02  0.41187365913E+02  0.45047492139E+02  0.47000000000E+01 0.  1.
         11    1    4    4    0    0  0.59520435459E+02  0.98675402812E+02 -0.11925183369E+03  0.16583279891E+03  0.00000000000E+00 0. -1.
        -12    1    4    4    0    0 -0.10441009437E+02 -0.84557128114E+01 -0.57278747292E+01  0.14605557371E+02  0.00000000000E+00 0.  1.
</event>
<event>
12    1  0.8451514E-002  0.1892959E+03  0.7818608E-02  0.1159300E+00
         21   -1    0    0  503  502  0.00000000000E+00  0.00000000000E+00  0.48336728439E+02  0.48336728439E+02  0.00000000000E+00 0.  1.
         21   -1    0    0  501  503 -0.00000000000E+00 -0.00000000000E+00 -0.77405329067E+03  0.77405329067E+03  0.00000000000E+00 0. -1.
          6    2    1    2  501    0 -0.55119247970E+02 -0.54272127849E+02 -0.45098663698E+03  0.48875929154E+03  0.17179378036E+03 0.  0.
         24    2    3    3    0    0 -0.60326335120E+02 -0.10059985516E+03 -0.34640992878E+03  0.37416544365E+03  0.78995841023E+02 0.  0.
         -6    2    1    2    0  502  0.55119247970E+02  0.54272127849E+02 -0.27472992524E+03  0.33363072757E+03  0.17276960148E+03 0.  0.
        -24    2    5    5    0    0 -0.27979364784E+02  0.64395808104E+01 -0.16589951239E+03  0.18851187711E+03  0.84792491081E+02 0.  0.
          5    1    3    3  501    0  0.52070871500E+01  0.46327727312E+02 -0.10457670821E+03  0.11459384789E+03  0.47000000000E+01 0. -1.
        -11    1    4    4    0    0 -0.79552012086E+02 -0.76384918237E+02 -0.26172214540E+03  0.28400996418E+03  0.00000000000E+00 0.  1.
         12    1    4    4    0    0  0.19225676966E+02 -0.24214936924E+02 -0.84687783382E+02  0.90155479474E+02  0.00000000000E+00 0. -1.
         -5    1    5    5    0  502  0.83098612754E+02  0.47832547039E+02 -0.10883041285E+03  0.14511885046E+03  0.47000000000E+01 0.  1.
         11    1    6    6    0    0 -0.38339747853E+02  0.13598329727E+02 -0.26511727907E+02  0.48556385300E+02  0.00000000000E+00 0. -1.
        -12    1    6    6    0    0  0.10360383069E+02 -0.71587489164E+01 -0.13938778448E+03  0.13995549181E+03  0.00000000000E+00 0.  1.
</event>
<event>
12    1  0.8451514E-002  0.1965385E+03  0.7818608E-02  0.1152808E+00
         21   -1    0    0  501  502  0.00000000000E+00  0.00000000000E+00  0.94807517425E+03  0.94807517425E+03  0.00000000000E+00 0. -1.
         21   -1    0    0  502  503 -0.00000000000E+00 -0.00000000000E+00 -0.40632199960E+02  0.40632199960E+02  0.00000000000E+00 0.  1.
         -6    2    1    2    0  503  0.61798421109E+02  0.76211716051E+02  0.45465862815E+03  0.49531993647E+03  0.17029415960E+03 0.  0.
        -24    2    3    3    0    0 -0.23309857310E+02  0.15558423553E+02  0.24232643520E+03  0.25861486447E+03  0.85872771798E+02 0.  0.
          6    2    1    2  501    0 -0.61798421109E+02 -0.76211716051E+02  0.45278434614E+03  0.49338743774E+03  0.16967683725E+03 0.  0.
         24    2    5    5    0    0  0.21689573543E+02 -0.80668396324E+01  0.15782008234E+03  0.17931741951E+03  0.81927083728E+02 0.  0.
          5    1    5    5  501    0 -0.83487994652E+02 -0.68144876419E+02  0.29496426380E+03  0.31407001823E+03  0.47000000000E+01 0. -1.
        -11    1    6    6    0    0  0.18697252937E+02 -0.38118740596E+02  0.42367662228E+02  0.59980367244E+02  0.00000000000E+00 0.  1.
         12    1    6    6    0    0  0.29923206055E+01  0.30051900964E+02  0.11545242011E+03  0.11933705227E+03  0.00000000000E+00 0. -1.
         -5    1    3    3    0  503  0.85108278420E+02  0.60653292498E+02  0.21233219295E+03  0.23670507199E+03  0.47000000000E+01 0.  1.
         13    1    4    4    0    0  0.29766497315E+02  0.14879957071E+02  0.13276531368E+03  0.13687251734E+03  0.00000000000E+00 0. -1.
        -14    1    4    4    0    0 -0.53076354625E+02  0.67846648279E+00  0.10956112152E+03  0.12174234713E+03  0.00000000000E+00 0.  1.
</event>
<event>
12    1  0.8451514E-002  0.1914357E+03  0.7818608E-02  0.1157741E+00
         21   -1    0    0  501  502  0.00000000000E+00  0.00000000000E+00  0.39985803079E+03  0.39985803079E+03  0.00000000000E+00 0. -1.
         21   -1    0    0  502  503 -0.00000000000E+00 -0.00000000000E+00 -0.12805440072E+03  0.12805440072E+03  0.00000000000E+00 0. -1.
         -6    2    1    2    0  503 -0.79913377335E+02  0.19881264863E+02 -0.77805098086E+01  0.18906892691E+03  0.17001502940E+03 0.  0.
        -24    2    3    3    0    0 -0.39230004687E+02  0.75184420861E+02 -0.21581466865E+02  0.11888251591E+03  0.80471128173E+02 0.  0.
          6    2    1    2  501    0  0.79913377335E+02 -0.19881264863E+02  0.27958413988E+03  0.33884350460E+03  0.17281845030E+03 0.  0.
         24    2    5    5    0    0 -0.21289568188E+02  0.41455431306E+01  0.15350018058E+03  0.17532415260E+03  0.81889082322E+02 0.  0.
          5    1    5    5  501    0  0.10120294552E+03 -0.24026807994E+02  0.12608395930E+03  0.16351935200E+03  0.47000000000E+01 0. -1.
        -13    1    6    6    0    0  0.52073758994E+01 -0.33097443000E+02  0.35661533754E+02  0.48931610300E+02  0.00000000000E+00 0.  1.
         14    1    6    6    0    0 -0.26496944087E+02  0.37242986130E+02  0.11783864683E+03  0.12639254230E+03  0.00000000000E+00 0. -1.
         -5    1    3    3    0  503 -0.40683372648E+02 -0.55303155998E+02  0.13800957056E+02  0.70186411000E+02  0.47000000000E+01 0.  1.
         11    1    4    4    0    0 -0.54798033574E+02  0.46482571904E+02  0.11071216609E+02  0.72705060427E+02  0.00000000000E+00 0. -1.
        -12    1    4    4    0    0  0.15568028887E+02  0.28701848957E+02 -0.32652683474E+02  0.46177455485E+02  0.00000000000E+00 0.  1.
</event>
<event>
12    1  0.8451514E-002  0.3048836E+03  0.7818608E-02  0.1082827E+00
         21   -1    0    0  503  502  0.00000000000E+00  0.00000000000E+00  0.29906492094E+02  0.29906492094E+02  0.00000000000E+00 0.  1.
         21   -1    0    0  501  503 -0.00000000000E+00 -0.00000000000E+00 -0.31083216912E+04  0.31083216912E+04  0.00000000000E+00 0. -1.
          6    2    1    2  501    0 -0.20583160559E+03  0.14438852653E+03 -0.15561352783E+04  0.15857209735E+04  0.17245087694E+03 0.  0.
         24    2    3    3    0    0 -0.12132873912E+03  0.12590971534E+03 -0.72577811589E+03  0.75085732710E+03  0.80367485970E+02 0.  0.
         -6    2    1    2    0  502  0.20583160559E+03 -0.14438852653E+03 -0.15222799208E+04  0.15525072098E+04  0.17241746646E+03 0.  0.
        -24    2    5    5    0    0  0.81232621203E+02 -0.40863968191E+02 -0.95361042770E+03  0.96119568152E+03  0.79092905556E+02 0.  0.
          5    1    3    3  501    0 -0.84502866467E+02  0.18478811190E+02 -0.83035716242E+03  0.83486364640E+03  0.47000000000E+01 0. -1.
        -11    1    4    4    0    0 -0.24497503328E+02 -0.38568509168E+01 -0.17581584990E+03  0.17755623348E+03  0.00000000000E+00 0.  1.
         12    1    4    4    0    0 -0.96831235792E+02  0.12976656626E+03 -0.54996226599E+03  0.57330109363E+03  0.00000000000E+00 0. -1.
         -5    1    5    5    0  502  0.12459898438E+03 -0.10352455834E+03 -0.56866949310E+03  0.59131152828E+03  0.47000000000E+01 0.  1.
         13    1    6    6    0    0  0.31832861410E+02 -0.51824656369E+02 -0.33168631404E+03  0.33721645422E+03  0.00000000000E+00 0. -1.
        -14    1    6    6    0    0  0.49399759793E+02  0.10960688178E+02 -0.62192411365E+03  0.62397922730E+03  0.00000000000E+00 0.  1.
</event>
<event>
12    1  0.8451514E-002  0.1758278E+03  0.7818608E-02  0.1172737E+00
         21   -1    0    0  503  502  0.00000000000E+00  0.00000000000E+00  0.36171542583E+02  0.36171542583E+02  0.00000000000E+00 0. -1.
         21   -1    0    0  501  503 -0.00000000000E+00 -0.00000000000E+00 -0.87187699633E+03  0.87187699633E+03  0.00000000000E+00 0. -1.
          6    2    1    2  501    0  0.19899376376E+02 -0.14223985260E+01 -0.51026319567E+03  0.53970728354E+03  0.17469234283E+03 0.  0.
         24    2    3    3    0    0 -0.26670308678E+02  0.55472115665E+02 -0.27972581019E+03  0.29768394289E+03  0.81121760255E+02 0.  0.
         -6    2    1    2    0  502 -0.19899376376E+02  0.14223985260E+01 -0.32544225807E+03  0.36834125538E+03  0.17136104772E+03 0.  0.
        -24    2    5    5    0    0 -0.66677243885E+02  0.15950936758E+02 -0.28746264388E+03  0.30618187631E+03  0.80076728945E+02 0.  0.
          5    1    3    3  501    0  0.46569685054E+02 -0.56894514191E+02 -0.23053738549E+03  0.24202334065E+03  0.47000000000E+01 0. -1.
        -13    1    4    4    0    0  0.46886056218E+01  0.62577685197E+02 -0.12758572910E+03  0.14218321974E+03  0.00000000000E+00 0.  1.
         14    1    4    4    0    0 -0.31358914299E+02 -0.71055695318E+01 -0.15214008109E+03  0.15550072314E+03  0.00000000000E+00 0. -1.
         -5    1    5    5    0  502  0.46777867509E+02 -0.14528538232E+02 -0.37979614194E+02  0.62159379068E+02  0.47000000000E+01 0.  1.
         13    1    6    6    0    0 -0.15171088757E+02  0.33992571364E+02 -0.48898543041E+02  0.61455059625E+02  0.00000000000E+00 0. -1.
        -14    1    6    6    0    0 -0.51506155128E+02 -0.18041634606E+02 -0.23856410084E+03  0.24472681669E+03  0.00000000000E+00 0.  1.
</event>
<event>
12    1  0.8451514E-002  0.1749401E+03  0.7818608E-02  0.1172795E+00
         21   -1    0    0  501  502  0.00000000000E+00  0.00000000000E+00  0.41453212569E+02  0.41453212569E+02  0.00000000000E+00 0. -1.
         21   -1    0    0  502  503 -0.00000000000E+00 -0.00000000000E+00 -0.79597327285E+03  0.79597327285E+03  0.00000000000E+00 0. -1.
         -6    2    1    2    0  503  0.30789017280E+02  0.12240099276E+02 -0.49006037401E+03  0.52034911801E+03  0.17177383625E+03 0.  0.
        -24    2    3    3    0    0  0.36738177898E+02 -0.15247540842E+01 -0.49593764249E+03  0.50357127593E+03  0.79232986266E+02 0.  0.
          6    2    1    2  501    0 -0.30789017280E+02 -0.12240099276E+02 -0.26445968628E+03  0.31707736742E+03  0.17175956348E+03 0.  0.
         24    2    5    5    0    0 -0.47032630082E+02 -0.70600634837E+02 -0.17731007825E+03  0.21083730319E+03  0.76269172251E+02 0.  0.
          5    1    5    5  501    0  0.16243612802E+02  0.58360535561E+02 -0.87149608027E+02  0.10624006423E+03  0.47000000000E+01 0. -1.
        -13    1    6    6    0    0  0.10126418299E+02 -0.23077043551E+02 -0.10181873934E+03  0.10489113388E+03  0.00000000000E+00 0.  1.
         14    1    6    6    0    0 -0.57159048381E+02 -0.47523591286E+02 -0.75491338913E+02  0.10594616931E+03  0.00000000000E+00 0. -1.
         -5    1    3    3    0  503 -0.59491606176E+01  0.13764853360E+02  0.58772684779E+01  0.16777842080E+02  0.47000000000E+01 0.  1.
         13    1    4    4    0    0 -0.51374375671E+01 -0.17034459321E+02 -0.36096641657E+03  0.36140464851E+03  0.00000000000E+00 0. -1.
        -14    1    4    4    0    0  0.41875615465E+02  0.15509705237E+02 -0.13497122591E+03  0.14216662742E+03  0.00000000000E+00 0.  1.
</event>
<event>
12    1  0.8451514E-002  0.1968411E+03  0.7818608E-02  0.1155554E+00
         21   -1    0    0  503  502  0.00000000000E+00  0.00000000000E+00  0.13219680873E+03  0.13219680873E+03  0.00000000000E+00 0. -1.
         21   -1    0    0  501  503 -0.00000000000E+00 -0.00000000000E+00 -0.37670869888E+03  0.37670869888E+03  0.00000000000E+00 0. -1.
          6    2    1    2  501    0  0.31873135141E+02 -0.50576768433E+02  0.81284138913E+01  0.19700880859E+03  0.18754331046E+03 0.  0.
         24    2    3    3    0    0 -0.14188911867E+02  0.34967540131E+01 -0.58411441083E+02  0.99564977053E+02  0.79295243852E+02 0.  0.
         -6    2    1    2    0  502 -0.31873135141E+02  0.50576768433E+02 -0.25264030404E+03  0.31189669903E+03  0.17285404650E+03 0.  0.
        -24    2    5    5    0    0 -0.13305100253E+02  0.22746620240E+02 -0.26406154707E+03  0.27623405947E+03  0.76696287697E+02 0.  0.
          5    1    3    3  501    0  0.46062047008E+02 -0.54073522446E+02  0.66539854974E+02  0.97443831536E+02  0.47000000000E+01 0. -1.
        -13    1    4    4    0    0  0.28091681755E+02 -0.15283747641E+02 -0.36016750735E+02  0.48165774771E+02  0.00000000000E+00 0.  1.
         14    1    4    4    0    0 -0.42280593622E+02  0.18780501654E+02 -0.22394690348E+02  0.51399202282E+02  0.00000000000E+00 0. -1.
         -5    1    5    5    0  502 -0.18568034888E+02  0.27830148193E+02  0.11421243026E+02  0.35662639559E+02  0.47000000000E+01 0.  1.
         11    1    6    6    0    0 -0.14573346110E+02 -0.24866064527E+02 -0.14798466718E+03  0.15076526557E+03  0.00000000000E+00 0. -1.
        -12    1    6    6    0    0  0.12682458573E+01  0.47612684768E+02 -0.11607687988E+03  0.12546879390E+03  0.00000000000E+00 0.  1.
</event>
<event>
12    1  0.8451514E-002  0.4619993E+03  0.7818608E-02  0.1024258E+00
         21   -1    0    0  503  502  0.00000000000E+00  0.00000000000E+00  0.14047717151E+04  0.14047717151E+04  0.00000000000E+00 0. -1.
         21   -1    0    0  501  503 -0.00000000000E+00 -0.00000000000E+00 -0.44409738766E+03  0.44409738766E+03  0.00000000000E+00 0.  1.
          6    2    1    2  501    0 -0.42558291920E+03  0.47040670265E+02 -0.26991407943E+03  0.53441439565E+03  0.17149778490E+03 0.  0.
         24    2    3    3    0    0 -0.40103556165E+03  0.26927208167E+02 -0.19675700243E+03  0.45453215711E+03  0.79571147968E+02 0.  0.
         -6    2    1    2    0  502  0.42558291920E+03 -0.47040670265E+02  0.12305884068E+04  0.13144547071E+04  0.17352148039E+03 0.  0.
        -24    2    5    5    0    0  0.33250708987E+03  0.28096463384E+02  0.87546980903E+03  0.93970144510E+03  0.72395050467E+02 0.  0.
          5    1    3    3  501    0 -0.24547357552E+02  0.20113462097E+02 -0.73157076991E+02  0.79882238540E+02  0.47000000000E+01 0. -1.
        -13    1    4    4    0    0 -0.24690371880E+03  0.30894920243E+02 -0.16063367221E+03  0.29617413645E+03  0.00000000000E+00 0.  1.
         14    1    4    4    0    0 -0.15413184285E+03 -0.39677120763E+01 -0.36123330224E+02  0.15835802066E+03  0.00000000000E+00 0. -1.
         -5    1    5    5    0  502  0.93075829335E+02 -0.75137133648E+02  0.35511859782E+03  0.37475326200E+03  0.47000000000E+01 0.  1.
         11    1    6    6    0    0  0.28144882398E+03  0.67763741704E+00  0.68365646339E+03  0.73932405591E+03  0.00000000000E+00 0. -1.
        -12    1    6    6    0    0  0.51058265887E+02  0.27418825967E+02  0.19181334564E+03  0.20037738919E+03  0.00000000000E+00 0.  1.
</event>
<event>
12    1  0.8451514E-002  0.2698901E+03  0.7818608E-02  0.1103868E+00
         21   -1    0    0  503  502  0.00000000000E+00  0.00000000000E+00  0.64086044619E+02  0.64086044619E+02  0.00000000000E+00 0. -1.
         21   -1    0    0  501  503 -0.00000000000E+00 -0.00000000000E+00 -0.10703989572E+04  0.10703989572E+04  0.00000000000E+00 0.  1.
          6    2    1    2  501    0  0.15556819836E+03  0.10671961517E+03 -0.55594666656E+03  0.61799461399E+03  0.19300286592E+03 0.  0.
         24    2    3    3    0    0  0.16819766384E+03  0.13703256065E+03 -0.51994617959E+03  0.56904052198E+03  0.79966925585E+02 0.  0.
         -6    2    1    2    0  502 -0.15556819836E+03 -0.10671961517E+03 -0.45036624599E+03  0.51649038781E+03  0.16835089713E+03 0.  0.
        -24    2    5    5    0    0 -0.17375715669E+03 -0.54939426800E+02 -0.35609311321E+03  0.40730458435E+03  0.76712639337E+02 0.  0.
          5    1    3    3  501    0 -0.12629465478E+02 -0.30312945480E+02 -0.36000486969E+02  0.48954092004E+02  0.47000000000E+01 0. -1.
        -11    1    4    4    0    0 -0.22597847271E+01  0.72847105728E+01 -0.10945846287E+01  0.77053066553E+01  0.00000000000E+00 0.  1.
         12    1    4    4    0    0  0.17045744857E+03  0.12974785007E+03 -0.51885159496E+03  0.56133521533E+03  0.00000000000E+00 0. -1.
         -5    1    5    5    0  502  0.18188958331E+02 -0.51780188368E+02 -0.94273132784E+02  0.10918580346E+03  0.47000000000E+01 0.  1.
         11    1    6    6    0    0 -0.84178520957E+02 -0.36486781660E+02 -0.25488272556E+03  0.27089206783E+03  0.00000000000E+00 0. -1.
        -12    1    6    6    0    0 -0.89578635735E+02 -0.18452645140E+02 -0.10121038765E+03  0.13641251651E+03  0.00000000000E+00 0.  1.
</event>
<event>
12    1  0.8451514E-002  0.2234862E+03  0.7818608E-02  0.1131550E+00
         21   -1    0    0  501  502  0.00000000000E+00  0.00000000000E+00  0.65049846984E+03  0.65049846984E+03  0.00000000000E+00 0. -1.
         21   -1    0    0  502  503 -0.00000000000E+00 -0.00000000000E+00 -0.85964616117E+02  0.85964616117E+02  0.00000000000E+00 0. -1.
         -6    2    1    2    0  503 -0.66054647879E+01 -0.14169406335E+03  0.15827053830E+03  0.27278649811E+03  0.17100313010E+03 0.  0.
        -24    2    3    3    0    0  0.36920670030E+02 -0.11364883877E+03  0.15084293738E+03  0.22026680381E+03  0.10716659309E+03 0.  0.
          6    2    1    2  501    0  0.66054647879E+01  0.14169406335E+03  0.40626331543E+03  0.46367658785E+03  0.17269990418E+03 0.  0.
         24    2    5    5    0    0  0.29986506527E+02  0.14419153538E+02  0.23477401958E+03  0.24879000295E+03  0.75302873358E+02 0.  0.
          5    1    5    5  501    0 -0.23381041739E+02  0.12727490981E+03  0.17148929585E+03  0.21488658490E+03  0.47000000000E+01 0. -1.
        -11    1    6    6    0    0  0.29241981533E+02  0.23037003657E+02  0.43224167477E+02  0.57044944347E+02  0.00000000000E+00 0.  1.
         12    1    6    6    0    0  0.74452499386E+00 -0.86178501196E+01  0.19154985210E+03  0.19174505860E+03  0.00000000000E+00 0. -1.
         -5    1    3    3    0  503 -0.43526134818E+02 -0.28045224581E+02  0.74276009167E+01  0.52519694300E+02  0.47000000000E+01 0.  1.
         11    1    4    4    0    0  0.10548530075E+02 -0.12921831980E+03  0.12660007139E+03  0.18120768123E+03  0.00000000000E+00 0. -1.
        -12    1    4    4    0    0  0.26372139955E+02  0.15569481036E+02  0.24242865987E+02  0.39059122581E+02  0.00000000000E+00 0.  1.
</event>
<event>
12    1  0.8451514E-002  0.1730223E+03  0.7818608E-02  0.1174812E+00
         21   -1    0    0  501  502  0.00000000000E+00  0.00000000000E+00  0.19916770407E+03  0.19916770407E+03  0.00000000000E+00 0. -1.
         21   -1    0    0  502  503 -0.00000000000E+00 -0.00000000000E+00 -0.30806851883E+03  0.30806851883E+03  0.00000000000E+00 0. -1.
         -6    2    1    2    0  503  0.10592930449E+02 -0.16555295306E+02 -0.23607323728E+03  0.29250490647E+03  0.17158746741E+03 0.  0.
        -24    2    3    3    0    0  0.40122762966E+01 -0.43234333620E+02 -0.41141104354E+02  0.95589435922E+02  0.74561678010E+02 0.  0.
          6    2    1    2  501    0 -0.10592930449E+02  0.16555295306E+02  0.12717242252E+03  0.21473131643E+03  0.17190237121E+03 0.  0.
         24    2    5    5    0    0 -0.55655216922E+02 -0.22850382029E+02  0.37429176568E+02  0.10675281272E+03  0.79847208063E+02 0.  0.
          5    1    5    5  501    0  0.45062286473E+02  0.39405677335E+02  0.89743245954E+02  0.10797850371E+03  0.47000000000E+01 0. -1.
        -11    1    6    6    0    0 -0.56398283550E+02  0.15608674075E+02  0.35052003433E+02  0.68213195486E+02  0.00000000000E+00 0.  1.
         12    1    6    6    0    0  0.74306662755E+00 -0.38459056104E+02  0.23771731355E+01  0.38539617234E+02  0.00000000000E+00 0. -1.
         -5    1    3    3    0  503  0.65806541525E+01  0.26679038314E+02 -0.19493213293E+03  0.19691547055E+03  0.47000000000E+01 0.  1.
         11    1    4    4    0    0  0.23532988906E+02  0.11573592970E+02 -0.22329003616E+02  0.34443199961E+02  0.00000000000E+00 0. -1.
        -12    1    4    4    0    0 -0.19520712610E+02 -0.54807926590E+02 -0.18812100738E+02  0.61146235960E+02  0.00000000000E+00 0.  1.
</event>
<event>
12    1  0.8451514E-002  0.1874555E+03  0.7818608E-02  0.1162706E+00
         21   -1    0    0  503  502  0.00000000000E+00  0.00000000000E+00  0.45038622066E+03  0.45038622066E+03  0.00000000000E+00 0. -1.
         21   -1    0    0  501  503 -0.00000000000E+00 -0.00000000000E+00 -0.12701163190E+03  0.12701163190E+03  0.00000000000E+00 0. -1.
          6    2    1    2  501    0  0.39245957113E+02 -0.29589175296E+02 -0.25791633292E+02  0.18109416091E+03  0.17237784755E+03 0.  0.
         24    2    3    3    0    0  0.34314404437E+02  0.28561690414E+02  0.34397022258E+02  0.97126264360E+02  0.79101880996E+02 0.  0.
         -6    2    1    2    0  502 -0.39245957113E+02  0.29589175296E+02  0.34916622206E+03  0.39630369165E+03  0.18089721098E+03 0.  0.
        -24    2    5    5    0    0 -0.28089075560E+02  0.90077382729E+02  0.25970358654E+03  0.28763468780E+03  0.79905129467E+02 0.  0.
          5    1    3    3  501    0  0.49315526761E+01 -0.58150865710E+02 -0.60188655550E+02  0.83967896553E+02  0.47000000000E+01 0. -1.
        -13    1    4    4    0    0  0.25236021869E+02 -0.25432949767E+02  0.17148998435E+02  0.39721277433E+02  0.00000000000E+00 0.  1.
         14    1    4    4    0    0  0.90783825684E+01  0.53994640181E+02  0.17248023823E+02  0.57404986927E+02  0.00000000000E+00 0. -1.
         -5    1    5    5    0  502 -0.11156881553E+02 -0.60488207433E+02  0.89462635516E+02  0.10866900385E+03  0.47000000000E+01 0.  1.
         13    1    6    6    0    0 -0.18867625537E+02  0.18434896504E+02  0.17201502345E+03  0.17402586300E+03  0.00000000000E+00 0. -1.
        -14    1    6    6    0    0 -0.92214500233E+01  0.71642486226E+02  0.87688563098E+02  0.11360882480E+03  0.00000000000E+00 0.  1.
</event>
<event>
12    1  0.8451514E-002  0.2196221E+03  0.7818608E-02  0.1134313E+00
         21   -1    0    0  501  502  0.00000000000E+00  0.00000000000E+00  0.60650881631E+03  0.60650881631E+03  0.00000000000E+00 0.  1.
         21   -1    0    0  502  503 -0.00000000000E+00 -0.00000000000E+00 -0.80528255103E+02  0.80528255103E+02  0.00000000000E+00 0.  1.
         -6    2    1    2    0  503 -0.79410786515E+02  0.10905472698E+03  0.30687156469E+03  0.37736456875E+03  0.17330566649E+03 0.  0.
        -24    2    3    3    0    0 -0.10865700105E+03  0.94559848374E+02  0.16014937555E+03  0.22698194556E+03  0.71589610411E+02 0.  0.
          6    2    1    2  501    0  0.79410786515E+02 -0.10905472698E+03  0.21910899651E+03  0.30967250267E+03  0.17230583293E+03 0.  0.
         24    2    5    5    0    0  0.75315606737E+02 -0.98306032279E+02  0.24263305169E+03  0.28306844081E+03  0.76944316290E+02 0.  0.
          5    1    5    5  501    0  0.40951797780E+01 -0.10748694703E+02 -0.23524055178E+02  0.26604061856E+02  0.47000000000E+01 0. -1.
        -11    1    6    6    0    0  0.38842034826E+02 -0.92960643532E+02  0.21351905805E+03  0.23609483913E+03  0.00000000000E+00 0.  1.
         12    1    6    6    0    0  0.36473571911E+02 -0.53453887471E+01  0.29113993645E+02  0.46973601680E+02  0.00000000000E+00 0. -1.
         -5    1    3    3    0  503  0.29246214534E+02  0.14494878608E+02  0.14672218914E+03  0.15038262319E+03  0.47000000000E+01 0.  1.
         11    1    4    4    0    0 -0.92074206320E+01  0.86847018630E+01 -0.69263634421E+01  0.14428276116E+02  0.00000000000E+00 0. -1.
        -12    1    4    4    0    0 -0.99449580417E+02  0.85875146511E+02  0.16707573900E+03  0.21255366944E+03  0.00000000000E+00 0.  1.
</event>
<event>
12    1  0.8451514E-002  0.1939771E+03  0.7818608E-02  0.1155389E+00
         21   -1    0    0  501  502  0.00000000000E+00  0.00000000000E+00  0.56623060493E+02  0.56623060493E+02  0.00000000000E+00 0. -1.
         21   -1    0    0  502  503 -0.00000000000E+00 -0.00000000000E+00 -0.74680225204E+03  0.74680225204E+03  0.00000000000E+00 0. -1.
         -6    2    1    2    0  503  0.74081481989E+02 -0.50683621960E+02 -0.48249724712E+03  0.51924418741E+03  0.16957015416E+03 0.  0.
        -24    2    3    3    0    0  0.15463542845E+02  0.29190465573E+02 -0.15965755883E+03  0.18151132407E+03  0.79778570037E+02 0.  0.
          6    2    1    2  501    0 -0.74081481989E+02  0.50683621960E+02 -0.20768194443E+03  0.28418112512E+03  0.17195995558E+03 0.  0.
         24    2    5    5    0    0  0.13262494730E+02  0.52982042208E+02 -0.15452427143E+03  0.18179908957E+03  0.78677620348E+02 0.  0.
          5    1    5    5  501    0 -0.87343976719E+02 -0.22984202476E+01 -0.53157672998E+02  0.10238203555E+03  0.47000000000E+01 0. -1.
        -11    1    6    6    0    0 -0.55434178449E+01 -0.52659014016E+01 -0.98579658523E+02  0.98875721355E+02  0.00000000000E+00 0.  1.
         12    1    6    6    0    0  0.18805912575E+02  0.58247943609E+02 -0.55944612911E+02  0.82923368216E+02  0.00000000000E+00 0. -1.
         -5    1    3    3    0  503  0.58617939144E+02 -0.79874087533E+02 -0.32283968829E+03  0.33773286335E+03  0.47000000000E+01 0.  1.
         11    1    4    4    0    0 -0.11840007439E+02 -0.43099380389E+01 -0.12627532946E+03  0.12690240412E+03  0.00000000000E+00 0. -1.
        -12    1    4    4    0    0  0.27303550284E+02  0.33500403612E+02 -0.33382229370E+02  0.54608919949E+02  0.00000000000E+00 0.  1.
</event>
<event>
12    1  0.8451514E-002  0.2741092E+03  0.7818608E-02  0.1098975E+00
         21   -1    0    0  503  502  0.00000000000E+00  0.00000000000E+00  0.15280740812E+03  0.15280740812E+03  0.00000000000E+00 0. -1.
         21   -1    0    0  501  503 -0.00000000000E+00 -0.00000000000E+00 -0.49492244839E+03  0.49492244839E+03  0.00000000000E+00 0. -1.
          6    2    1    2  501    0  0.57150675182E+02 -0.20525315313E+03 -0.19845369373E+03  0.33840761194E+03  0.17245517308E+03 0.  0.
         24    2    3    3    0    0  0.38400755390E+02 -0.64678364530E+02 -0.22206691936E+02  0.11213802423E+03  0.80149176284E+02 0.  0.
         -6    2    1    2    0  502 -0.57150675182E+02  0.20525315313E+03 -0.14366134654E+03  0.30932224457E+03  0.17218191529E+03 0.  0.
        -24    2    5    5    0    0  0.24960136725E+02  0.13556648334E+03 -0.12286881150E+03  0.19953683165E+03  0.75610333370E+02 0.  0.
          5    1    3    3  501    0  0.18749919792E+02 -0.14057478860E+03 -0.17624700179E+03  0.22626958771E+03  0.47000000000E+01 0. -1.
        -13    1    4    4    0    0 -0.16104936744E+02 -0.72997047911E+01  0.16370016911E+02  0.24096309494E+02  0.00000000000E+00 0.  1.
         14    1    4    4    0    0  0.54505692134E+02 -0.57378659739E+02 -0.38576708847E+02  0.88041714737E+02  0.00000000000E+00 0. -1.
         -5    1    5    5    0  502 -0.82110811907E+02  0.69686669785E+02 -0.20792535040E+02  0.10978541293E+03  0.47000000000E+01 0.  1.
         11    1    6    6    0    0  0.34566191511E+02  0.11095430021E+03 -0.58817530950E+02  0.13025045213E+03  0.00000000000E+00 0. -1.
        -12    1    6    6    0    0 -0.96060547856E+01  0.24612183129E+02 -0.64051280553E+02  0.69286379523E+02  0.00000000000E+00 0.  1.
</event>
<event>
12    1  0.8451514E-002  0.2721974E+03  0.7818608E-02  0.1100516E+00
         21   -1    0    0  503  502  0.00000000000E+00  0.00000000000E+00  0.55736285135E+02  0.55736285135E+02  0.00000000000E+00 0.  1.
         21   -1    0    0  501  503 -0.00000000000E+00 -0.00000000000E+00 -0.14849310979E+04  0.14849310979E+04  0.00000000000E+00 0.  1.
          6    2    1    2  501    0 -0.38384728156E+00 -0.20725346473E+03 -0.97296664797E+03  0.10094089069E+04  0.17113765612E+03 0.  0.
         24    2    3    3    0    0  0.25287058127E+01 -0.22511239021E+03 -0.79328489962E+03  0.82875718434E+03  0.82798285261E+02 0.  0.
         -6    2    1    2    0  502  0.38384728156E+00  0.20725346473E+03 -0.45622816480E+03  0.53125847612E+03  0.17645759860E+03 0.  0.
        -24    2    5    5    0    0 -0.42214425451E+01  0.27277741108E+02 -0.21014958023E+03  0.22631712180E+03  0.79339131656E+02 0.  0.
          5    1    3    3  501    0 -0.29125530942E+01  0.17858925487E+02 -0.17968174834E+03  0.18065172258E+03  0.47000000000E+01 0. -1.
        -13    1    4    4    0    0  0.36748536301E+02 -0.99023321358E+02 -0.28477145188E+03  0.30372825502E+03  0.00000000000E+00 0.  1.
         14    1    4    4    0    0 -0.34219830488E+02 -0.12608906885E+03 -0.50851344774E+03  0.52502892931E+03  0.00000000000E+00 0. -1.
         -5    1    5    5    0  502  0.46052898266E+01  0.17997572362E+03 -0.24607858457E+03  0.30494135432E+03  0.47000000000E+01 0.  1.
         11    1    6    6    0    0  0.24255025032E+02 -0.15495523785E+02 -0.45535458531E+02  0.53869244289E+02  0.00000000000E+00 0. -1.
        -12    1    6    6    0    0 -0.28476467577E+02  0.42773264892E+02 -0.16461412170E+03  0.17244787751E+03  0.00000000000E+00 0.  1.
</event>
<event>
12    1  0.8451514E-002  0.1802340E+03  0.7818608E-02  0.1168877E+00
         21   -1    0    0  503  502  0.00000000000E+00  0.00000000000E+00  0.98858378048E+02  0.98858378048E+02  0.00000000000E+00 0. -1.
         21   -1    0    0  501  503 -0.00000000000E+00 -0.00000000000E+00 -0.32298781940E+03  0.32298781940E+03  0.00000000000E+00 0. -1.
          6    2    1    2  501    0 -0.21763229502E+02  0.14142574000E+02 -0.13381847691E+03  0.22025164978E+03  0.17300217893E+03 0.  0.
         24    2    3    3    0    0 -0.71031965266E+02 -0.27228376246E+02 -0.89721416520E+02  0.14211328160E+03  0.79745392732E+02 0.  0.
         -6    2    1    2    0  502  0.21763229502E+02 -0.14142574000E+02 -0.90310964442E+02  0.20159454766E+03  0.17835537780E+03 0.  0.
        -24    2    5    5    0    0 -0.31341742314E+02  0.25811842587E+02 -0.14234626692E+01  0.90510924169E+02  0.80880437183E+02 0.  0.
          5    1    3    3  501    0  0.49268735764E+02  0.41370950246E+02 -0.44097060385E+02  0.78138368186E+02  0.47000000000E+01 0. -1.
        -11    1    4    4    0    0 -0.10555316909E+02 -0.40962728845E+02 -0.14710922416E+02  0.44785836018E+02  0.00000000000E+00 0.  1.
         12    1    4    4    0    0 -0.60476648357E+02  0.13734352598E+02 -0.75010494104E+02  0.97327445582E+02  0.00000000000E+00 0. -1.
         -5    1    5    5    0  502  0.53104971815E+02 -0.39954416587E+02 -0.88887501773E+02  0.11108362349E+03  0.47000000000E+01 0.  1.
         13    1    6    6    0    0  0.36955687053E+01  0.37459901040E+01  0.34982198248E+02  0.35375752490E+02  0.00000000000E+00 0. -1.
        -14    1    6    6    0    0 -0.35037311019E+02  0.22065852483E+02 -0.36405660918E+02  0.55135171679E+02  0.00000000000E+00 0.  1.
</event>
<event>
12    1  0.8451514E-002  0.2047463E+03  0.7818608E-02  0.1146704E+00
         21   -1    0    0  501  502  0.00000000000E+00  0.00000000000E+00  0.54161367796E+02  0.54161367796E+02  0.00000000000E+00 0.  1.
         21   -1    0    0  502  503 -0.00000000000E+00 -0.00000000000E+00 -0.75791135846E+03  0.75791135846E+03  0.00000000000E+00 0.  1.
         -6    2    1    2    0  503  0.10208324562E+03  0.52766027579E-02 -0.36514163529E+03  0.41862806870E+03  0.17748255413E+03 0.  0.
        -24    2    3    3    0    0  0.12175554178E+03 -0.31767764387E+02 -0.20240226114E+03  0.25158699810E+03  0.80596150587E+02 0.  0.
          6    2    1    2  501    0 -0.10208324562E+03 -0.52766027579E-02 -0.33860835537E+03  0.39344465755E+03  0.17240096044E+03 0.  0.
         24    2    5    5    0    0 -0.27670124182E+02 -0.29382559804E+02 -0.73111042003E+02  0.11611588007E+03  0.80676530351E+02 0.  0.
          5    1    5    5  501    0 -0.74413121438E+02  0.29377283201E+02 -0.26549731337E+03  0.27732877748E+03  0.47000000000E+01 0. -1.
        -11    1    6    6    0    0 -0.34519767485E+02  0.18929006226E+02 -0.45048109321E+02  0.59826865013E+02  0.00000000000E+00 0.  1.
         12    1    6    6    0    0  0.68496433031E+01 -0.48311566030E+02 -0.28062932682E+02  0.56289015060E+02  0.00000000000E+00 0. -1.
         -5    1    3    3    0  503 -0.19672296163E+02  0.31773040990E+02 -0.16273937415E+03  0.16704107060E+03  0.47000000000E+01 0.  1.
         11    1    4    4    0    0  0.42452612104E+02 -0.34128778255E+02 -0.30904267394E+02  0.62626444278E+02  0.00000000000E+00 0. -1.
        -12    1    4    4    0    0  0.79302929678E+02  0.23610138682E+01 -0.17149799375E+03  0.18896055382E+03  0.00000000000E+00 0.  1.
</event>
<event>
12    1  0.8451514E-002  0.2022393E+03  0.7818608E-02  0.1147937E+00
         21   -1    0    0  501  502  0.00000000000E+00  0.00000000000E+00  0.16172424527E+03  0.16172424527E+03  0.00000000000E+00 0.  1.
         21   -1    0    0  502  503 -0.00000000000E+00 -0.00000000000E+00 -0.25324869566E+03  0.25324869566E+03  0.00000000000E+00 0.  1.
         -6    2    1    2    0  503  0.99071233813E+02 -0.32020920553E+02 -0.57360886546E+02  0.21021654863E+03  0.17337899899E+03 0.  0.
        -24    2    3    3    0    0  0.12682046870E+03  0.82369343195E+01 -0.28332168975E+02  0.15315981056E+03  0.80646992541E+02 0.  0.
          6    2    1    2  501    0 -0.99071233813E+02  0.32020920553E+02 -0.34163563839E+02  0.20475639229E+03  0.17296699792E+03 0.  0.
         24    2    5    5    0    0 -0.33414709311E+02  0.16895103380E+02  0.46280039463E+02  0.99719099549E+02  0.80000434033E+02 0.  0.
          5    1    5    5  501    0 -0.65656524502E+02  0.15125817174E+02 -0.80443603302E+02  0.10503729274E+03  0.47000000000E+01 0. -1.
        -13    1    6    6    0    0 -0.41762979626E+02  0.40727254625E+02  0.46287022750E+02  0.74467067967E+02  0.00000000000E+00 0.  1.
         14    1    6    6    0    0  0.83482703155E+01 -0.23832151245E+02 -0.69832869193E-02  0.25252031582E+02  0.00000000000E+00 0. -1.
         -5    1    3    3    0  503 -0.27749234883E+02 -0.40257854873E+02 -0.29028717571E+02  0.57056738071E+02  0.47000000000E+01 0.  1.
         11    1    4    4    0    0 -0.84389198444E+01  0.96888340239E+01  0.50975793750E+01  0.13822958741E+02  0.00000000000E+00 0. -1.
        -12    1    4    4    0    0  0.13525938854E+03 -0.14518997044E+01 -0.33429748350E+02  0.13933685182E+03  0.00000000000E+00 0.  1.
</event>
<event>
12    1  0.8451514E-002  0.2353376E+03  0.7818608E-02  0.1123638E+00
         21   -1    0    0  503  502  0.00000000000E+00  0.00000000000E+00  0.72042395248E+02  0.72042395248E+02  0.00000000000E+00 0. -1.
         21   -1    0    0  501  503 -0.00000000000E+00 -0.00000000000E+00 -0.75556547099E+03  0.75556547099E+03  0.00000000000E+00 0. -1.
          6    2    1    2  501    0 -0.15084346381E+03  0.43586208488E+02 -0.34524770251E+03  0.41782743596E+03  0.17530054764E+03 0.  0.
         24    2    3    3    0    0 -0.13492881796E+02  0.48731654517E+02 -0.17191847177E+03  0.19656566740E+03  0.80779135019E+02 0.  0.
         -6    2    1    2    0  502  0.15084346381E+03 -0.43586208488E+02 -0.33827537323E+03  0.40978043028E+03  0.16981243995E+03 0.  0.
        -24    2    5    5    0    0  0.63246677069E+02 -0.57798319594E+02 -0.26768854882E+03  0.29629135182E+03  0.93758296091E+02 0.  0.
          5    1    3    3  501    0 -0.13735058202E+03 -0.51454460283E+01 -0.17332923074E+03  0.22126176855E+03  0.47000000000E+01 0. -1.
        -11    1    4    4    0    0  0.10519705523E+02  0.64003370362E+02 -0.99692634413E+02  0.11893576829E+03  0.00000000000E+00 0.  1.
         12    1    4    4    0    0 -0.24012587319E+02 -0.15271715845E+02 -0.72225837360E+02  0.77629899117E+02  0.00000000000E+00 0. -1.
         -5    1    5    5    0  502  0.87596786743E+02  0.14212111106E+02 -0.70586824415E+02  0.11348907846E+03  0.47000000000E+01 0.  1.
         13    1    6    6    0    0  0.60269366542E+02 -0.29802269651E+02 -0.71706811729E+02  0.98297704287E+02  0.00000000000E+00 0. -1.
        -14    1    6    6    0    0  0.29773105270E+01 -0.27996049943E+02 -0.19598173709E+03  0.19799364753E+03  0.00000000000E+00 0.  1.
</event>
<event>
12    1  0.8451514E-002  0.1804906E+03  0.7818608E-02  0.1168008E+00
         21   -1    0    0  501  502  0.00000000000E+00  0.00000000000E+00  0.15597028678E+03  0.15597028678E+03  0.00000000000E+00 0. -1.
         21   -1    0    0  502  503 -0.00000000000E+00 -0.00000000000E+00 -0.22358065433E+03  0.22358065433E+03  0.00000000000E+00 0. -1.
         -6    2    1    2    0  503  0.36551257704E+02  0.27678806120E+02 -0.87796728588E+02  0.20071152969E+03  0.17457016312E+03 0.  0.
        -24    2    3    3    0    0  0.30836916606E+01  0.57249587969E+02  0.48665203156E+01  0.97740287038E+02  0.79009216003E+02 0.  0.
          6    2    1    2  501    0 -0.36551257704E+02 -0.27678806120E+02  0.20186361035E+02  0.17883941142E+03  0.17167974591E+03 0.  0.
         24    2    5    5    0    0 -0.71242762122E+02  0.29207512558E+02 -0.77293796806E+00  0.10883272641E+03  0.76911344804E+02 0.  0.
          5    1    5    5  501    0  0.34691504418E+02 -0.56886318678E+02  0.20959299003E+02  0.70006685011E+02  0.47000000000E+01 0. -1.
        -11    1    6    6    0    0  0.13424150479E+02 -0.11451336977E+01 -0.12188472867E+02  0.18168049376E+02  0.00000000000E+00 0.  1.
         12    1    6    6    0    0 -0.84666912602E+02  0.30352646256E+02  0.11415534899E+02  0.90664677032E+02  0.00000000000E+00 0. -1.
         -5    1    3    3    0  503  0.33467566044E+02 -0.29570781849E+02 -0.92663248904E+02  0.10297124265E+03  0.47000000000E+01 0.  1.
         11    1    4    4    0    0  0.27338257579E+02  0.31894452203E+02  0.32471838077E+02  0.53094789545E+02  0.00000000000E+00 0. -1.
        -12    1    4    4    0    0 -0.24254565918E+02  0.25355135767E+02 -0.27605317762E+02  0.44645497492E+02  0.00000000000E+00 0.  1.
</event>
<event>
12    1  0.8451514E-002  0.1923491E+03  0.7818608E-02  0.1156490E+00
         21   -1    0    0  501  502  0.00000000000E+00  0.00000000000E+00  0.25302604632E+03  0.25302604632E+03  0.00000000000E+00 0.  1.
         21   -1    0    0  502  503 -0.00000000000E+00 -0.00000000000E+00 -0.28512316327E+03  0.28512316327E+03  0.00000000000E+00 0.  1.
         -6    2    1    2    0  503  0.83149791248E+02  0.23088947794E+02 -0.20416780913E+03  0.28050430743E+03  0.17190458081E+03 0.  0.
        -24    2    3    3    0    0  0.38806055208E+02  0.71449035940E+02 -0.17450875742E+03  0.20834604802E+03  0.79648569686E+02 0.  0.
          6    2    1    2  501    0 -0.83149791248E+02 -0.23088947794E+02  0.17207069218E+03  0.25764490216E+03  0.17124714656E+03 0.  0.
         24    2    5    5    0    0 -0.66236367063E+02  0.23784559332E+02  0.17744033757E+03  0.20730493116E+03  0.80853568287E+02 0.  0.
          5    1    5    5  501    0 -0.16913424185E+02 -0.46873507126E+02 -0.53696453843E+01  0.50339970993E+02  0.47000000000E+01 0. -1.
        -13    1    6    6    0    0 -0.38691802373E+02 -0.11788483443E+02  0.23182995242E+02  0.46620544625E+02  0.00000000000E+00 0.  1.
         14    1    6    6    0    0 -0.27544564690E+02  0.35573042776E+02  0.15425734232E+03  0.16068438654E+03  0.00000000000E+00 0. -1.
         -5    1    3    3    0  503  0.44343736040E+02 -0.48360088146E+02 -0.29659051714E+02  0.72158259403E+02  0.47000000000E+01 0.  1.
         13    1    4    4    0    0 -0.73445827835E+01  0.24218890539E+02 -0.41620294503E+01  0.25648002737E+02  0.00000000000E+00 0. -1.
        -14    1    4    4    0    0  0.46150637991E+02  0.47230145401E+02 -0.17034672797E+03  0.18269804529E+03  0.00000000000E+00 0.  1.
</event>
<event>
12    1  0.8451514E-002  0.2564761E+03  0.7818608E-02  0.1109309E+00
         21   -1    0    0  503  502  0.00000000000E+00  0.00000000000E+00  0.46229418543E+02  0.46229418543E+02  0.00000000000E+00 0. -1.
         21   -1    0    0  501  503 -0.00000000000E+00 -0.00000000000E+00 -0.14640742629E+04  0.14640742629E+04  0.00000000000E+00 0.  1.
          6    2    1    2  501    0 -0.18475119714E+03 -0.44206645778E+02 -0.83746216202E+03  0.87585551181E+03  0.17231590868E+03 0.  0.
         24    2    3    3    0    0 -0.13905392496E+02 -0.18316469271E+02 -0.28690072429E+03  0.29879522301E+03  0.80235320814E+02 0.  0.
         -6    2    1    2    0  502  0.18475119714E+03  0.44206645778E+02 -0.58038268229E+03  0.63444816958E+03  0.17202671189E+03 0.  0.
        -24    2    5    5    0    0  0.19429104699E+03  0.71889571058E+02 -0.54392196478E+03  0.58745000995E+03  0.79556829083E+02 0.  0.
          5    1    3    3  501    0 -0.17084580465E+03 -0.25890176507E+02 -0.55056143772E+03  0.57706028880E+03  0.47000000000E+01 0. -1.
        -13    1    4    4    0    0 -0.91219038573E+01  0.31755558566E+02 -0.10579632871E+03  0.11083540860E+03  0.00000000000E+00 0.  1.
         14    1    4    4    0    0 -0.47834886386E+01 -0.50072027836E+02 -0.18110439558E+03  0.18795981441E+03  0.00000000000E+00 0. -1.
         -5    1    5    5    0  502 -0.95398498460E+01 -0.27682925280E+02 -0.36460717511E+02  0.46998159630E+02  0.47000000000E+01 0.  1.
         11    1    6    6    0    0  0.39631974120E+02 -0.61277683139E+01 -0.50383508894E+02  0.64395193033E+02  0.00000000000E+00 0. -1.
        -12    1    6    6    0    0  0.15465907287E+03  0.78017339372E+02 -0.49353845589E+03  0.52305481692E+03  0.00000000000E+00 0.  1.
</event>
<event>
12    1  0.8451514E-002  0.1843819E+03  0.7818608E-02  0.1165530E+00
         21   -1    0    0  501  502  0.00000000000E+00  0.00000000000E+00  0.90885563556E+02  0.90885563556E+02  0.00000000000E+00 0.  1.
         21   -1    0    0  502  503 -0.00000000000E+00 -0.00000000000E+00 -0.11105268641E+04  0.11105268641E+04  0.00000000000E+00 0.  1.
         -6    2    1    2    0  503 -0.34839715393E+02  0.27197559428E+02 -0.10078284120E+04  0.10245558984E+04  0.17900605536E+03 0.  0.
        -24    2    3    3    0    0 -0.67853438122E+02  0.37538104534E+02 -0.38225442248E+03  0.39800842282E+03  0.79240537437E+02 0.  0.
          6    2    1    2  501    0  0.34839715393E+02 -0.27197559428E+02 -0.11812888517E+02  0.17685652925E+03  0.17083668984E+03 0.  0.
         24    2    5    5    0    0  0.65814391766E+02  0.32270208537E+02 -0.12370425827E+02  0.10963862352E+03  0.80589700398E+02 0.  0.
          5    1    5    5  501    0 -0.30974676372E+02 -0.59467767965E+02  0.55753731000E+00  0.67217905731E+02  0.47000000000E+01 0. -1.
        -11    1    6    6    0    0  0.34680350005E+02 -0.21023486922E+02 -0.23573398408E+02  0.46908621716E+02  0.00000000000E+00 0.  1.
         12    1    6    6    0    0  0.31134041761E+02  0.53293695458E+02  0.11202972581E+02  0.62730001807E+02  0.00000000000E+00 0. -1.
         -5    1    3    3    0  503  0.33013722728E+02 -0.10340545106E+02 -0.62557398953E+03  0.62654747556E+03  0.47000000000E+01 0.  1.
         11    1    4    4    0    0 -0.39350907843E+02  0.57141954356E+02 -0.31296719702E+03  0.32056538070E+03  0.00000000000E+00 0. -1.
        -12    1    4    4    0    0 -0.28502530278E+02 -0.19603849822E+02 -0.69287225456E+02  0.77443042111E+02  0.00000000000E+00 0.  1.
</event>
<event>
12    1  0.8451514E-002  0.2354518E+03  0.7818608E-02  0.1123031E+00
         21   -1    0    0  501  502  0.00000000000E+00  0.00000000000E+00  0.17255076404E+03  0.17255076404E+03  0.00000000000E+00 0. -1.
         21   -1    0    0  502  503 -0.00000000000E+00 -0.00000000000E+00 -0.48829260890E+03  0.48829260890E+03  0.00000000000E+00 0. -1.
         -6    2    1    2    0  503 -0.52356439607E+02 -0.15402013786E+03 -0.35211716006E+03  0.42358478182E+03  0.17021801709E+03 0.  0.
        -24    2    3    3    0    0 -0.71398399100E+02 -0.13400662204E+03 -0.35569843591E+03  0.39533495751E+03  0.81931954550E+02 0.  0.
          6    2    1    2  501    0  0.52356439607E+02  0.15402013786E+03  0.36375315206E+02  0.23725859112E+03  0.16883446292E+03 0.  0.
         24    2    5    5    0    0 -0.24318175234E+01  0.47804578134E+02  0.66463829048E+02  0.11392608562E+03  0.79186621261E+02 0.  0.
          5    1    5    5  501    0  0.54788257130E+02  0.10621555973E+03 -0.30088513842E+02  0.12333250550E+03  0.47000000000E+01 0. -1.
        -11    1    6    6    0    0 -0.12417071693E+02  0.63579364801E+02  0.69502275872E+02  0.95010976468E+02  0.00000000000E+00 0.  1.
         12    1    6    6    0    0  0.99852541701E+01 -0.15774786668E+02 -0.30384468240E+01  0.18915109155E+02  0.00000000000E+00 0. -1.
         -5    1    3    3    0  503  0.19041959493E+02 -0.20013515826E+02  0.35812758427E+01  0.28249824313E+02  0.47000000000E+01 0.  1.
         13    1    4    4    0    0 -0.52574233594E+02 -0.77650428531E+02 -0.12017566996E+03  0.15243303690E+03  0.00000000000E+00 0. -1.
        -14    1    4    4    0    0 -0.18824165506E+02 -0.56356193505E+02 -0.23552276595E+03  0.24290192061E+03  0.00000000000E+00 0.  1.
</event>
<event>
12    1  0.8451514E-002  0.1815635E+03  0.7818608E-02  0.1166543E+00
         21   -1    0    0  501  502  0.00000000000E+00  0.00000000000E+00  0.14150016631E+04  0.14150016631E+04  0.00000000000E+00 0.  1.
         21   -1    0    0  502  503 -0.00000000000E+00 -0.00000000000E+00 -0.35961136940E+02  0.35961136940E+02  0.00000000000E+00 0.  1.
         -6    2    1    2    0  503  0.53475047445E+02 -0.11242315876E+02  0.25803209038E+03  0.31550891805E+03  0.17314545138E+03 0.  0.
        -24    2    3    3    0    0 -0.37501857426E+02  0.67561882069E+01  0.12496928254E+03  0.15324818897E+03  0.80097755614E+02 0.  0.
          6    2    1    2  501    0 -0.53475047445E+02  0.11242315876E+02  0.11210084357E+04  0.11354538820E+04  0.17207450330E+03 0.  0.
         24    2    5    5    0    0 -0.22236202704E+02  0.30358430142E+02  0.27339958213E+03  0.28704115813E+03  0.78925356867E+02 0.  0.
          5    1    5    5  501    0 -0.31238844741E+02 -0.19116114267E+02  0.84760885361E+03  0.84841272383E+03  0.47000000000E+01 0. -1.
        -13    1    6    6    0    0 -0.47986987112E+01  0.31468021184E+02  0.26627623484E+03  0.26817214081E+03  0.00000000000E+00 0.  1.
         14    1    6    6    0    0 -0.17437503993E+02 -0.11095910418E+01  0.71233472924E+01  0.18869017315E+02  0.00000000000E+00 0. -1.
         -5    1    3    3    0  503  0.90976904872E+02 -0.17998504082E+02  0.13306280785E+03  0.16226072908E+03  0.47000000000E+01 0.  1.
         13    1    4    4    0    0 -0.18108238939E+02 -0.32028988743E+02  0.91021704824E+02  0.98176958532E+02  0.00000000000E+00 0. -1.
        -14    1    4    4    0    0 -0.19393618487E+02  0.38785176950E+02  0.33947577712E+02  0.55071230435E+02  0.00000000000E+00 0.  1.
</event>
<event>
12    1  0.8451514E-002  0.1839918E+03  0.7818608E-02  0.1164784E+00
         21   -1    0    0  503  502  0.00000000000E+00  0.00000000000E+00  0.22406615261E+03  0.22406615261E+03  0.00000000000E+00 0.  1.
         21   -1    0    0  501  503 -0.00000000000E+00 -0.00000000000E+00 -0.21313438440E+03  0.21313438440E+03  0.00000000000E+00 0.  1.
          6    2    1    2  501    0  0.36573208345E+02  0.43656764503E+02 -0.11499944901E+03  0.21697430015E+03  0.17495559722E+03 0.  0.
         24    2    3    3    0    0  0.15973958348E+02 -0.40330400808E+02 -0.29526437905E+02  0.95294808596E+02  0.79546096292E+02 0.  0.
         -6    2    1    2    0  502 -0.36573208345E+02 -0.43656764503E+02  0.12593121721E+03  0.22022623686E+03  0.17145673297E+03 0.  0.
        -24    2    5    5    0    0 -0.69011748313E+02  0.22001625219E+02  0.76314962777E+02  0.13164212023E+03  0.79113724201E+02 0.  0.
          5    1    3    3  501    0  0.20599249997E+02  0.83987165311E+02 -0.85473011104E+02  0.12167949155E+03  0.47000000000E+01 0. -1.
        -13    1    4    4    0    0 -0.12089261347E+01  0.22557081984E+02 -0.18452859898E+02  0.29168330231E+02  0.00000000000E+00 0.  1.
         14    1    4    4    0    0  0.17182884482E+02 -0.62887482792E+02 -0.11073578007E+02  0.66126478365E+02  0.00000000000E+00 0. -1.
         -5    1    5    5    0  502  0.32438539968E+02 -0.65658389722E+02  0.49616254434E+02  0.88584116636E+02  0.47000000000E+01 0.  1.
         13    1    6    6    0    0 -0.71736216599E+01 -0.23120979593E+02  0.96302809280E+00  0.24227421822E+02  0.00000000000E+00 0. -1.
        -14    1    6    6    0    0 -0.61838126653E+02  0.45122604812E+02  0.75351934685E+02  0.10741469841E+03  0.00000000000E+00 0.  1.
</event>
<event>
12    1  0.8451514E-002  0.2063122E+03  0.7818608E-02  0.1145265E+00
         21   -1    0    0  503  502  0.00000000000E+00  0.00000000000E+00  0.19367621461E+03  0.19367621461E+03  0.00000000000E+00 0. -1.
         21   -1    0    0  501  503 -0.00000000000E+00 -0.00000000000E+00 -0.29823535227E+03  0.29823535227E+03  0.00000000000E+00 0. -1.
          6    2    1    2  501    0 -0.77857149393E+02 -0.75896558890E+02  0.77277237386E+02  0.21690395249E+03  0.17103663299E+03 0.  0.
         24    2    3    3    0    0 -0.25704839148E+02 -0.48289500530E+01  0.94824303288E+02  0.12690140801E+03  0.80176438856E+02 0.  0.
         -6    2    1    2    0  502  0.77857149393E+02  0.75896558890E+02 -0.18183637505E+03  0.27500761439E+03  0.17533595559E+03 0.  0.
        -24    2    5    5    0    0  0.77282338327E+02 -0.14188687007E+02 -0.12778594220E+03  0.16984478243E+03  0.79650012166E+02 0.  0.
          5    1    3    3  501    0 -0.52152310245E+02 -0.71067608837E+02 -0.17547065901E+02  0.90002544472E+02  0.47000000000E+01 0. -1.
        -13    1    4    4    0    0 -0.21360681525E+02 -0.18609140824E+02 -0.25653949541E+01  0.28445739377E+02  0.00000000000E+00 0.  1.
         14    1    4    4    0    0 -0.43441576226E+01  0.13780190771E+02  0.97389698242E+02  0.98455668637E+02  0.00000000000E+00 0. -1.
         -5    1    5    5    0  502  0.57481106606E+00  0.90085245897E+02 -0.54050432844E+02  0.10516283196E+03  0.47000000000E+01 0.  1.
         11    1    6    6    0    0  0.24199570936E+02  0.27832981015E+02 -0.18436791237E+02  0.41233594760E+02  0.00000000000E+00 0. -1.
        -12    1    6    6    0    0  0.53082767390E+02 -0.42021668022E+02 -0.10934915097E+03  0.12861118767E+03  0.00000000000E+00 0.  1.
</event>
<event>
12    1  0.8451514E-002  0.2075256E+03  0.7818608E-02  0.1144854E+00
         21   -1    0    0  503  502  0.00000000000E+00  0.00000000000E+00  0.49991523453E+03  0.49991523453E+03  0.00000000000E+00 0. -1.
         21   -1    0    0  501  503 -0.00000000000E+00 -0.00000000000E+00 -0.92814609727E+02  0.92814609727E+02  0.00000000000E+00 0. -1.
          6    2    1    2  501    0 -0.34853240399E+02  0.10767184676E+03  0.10680403226E+03  0.22770255169E+03  0.16623289623E+03 0.  0.
         24    2    3    3    0    0  0.13991742765E+02  0.12055912778E+03  0.56275496818E+02  0.15609852047E+03  0.80433478077E+02 0.  0.
         -6    2    1    2    0  502  0.34853240399E+02 -0.10767184676E+03  0.30029659254E+03  0.36502729257E+03  0.17395087202E+03 0.  0.
        -24    2    5    5    0    0  0.85288818645E+02 -0.74657562355E+02  0.25157379519E+03  0.28737620430E+03  0.80298033406E+02 0.  0.
          5    1    3    3  501    0 -0.48844983164E+02 -0.12887281024E+02  0.50528535444E+02  0.71604031217E+02  0.47000000000E+01 0. -1.
        -13    1    4    4    0    0  0.28927684957E+02  0.12980023773E+02  0.31507674798E+02  0.44699279024E+02  0.00000000000E+00 0.  1.
         14    1    4    4    0    0 -0.14935942192E+02  0.10757910401E+03  0.24767822021E+02  0.11139924145E+03  0.00000000000E+00 0. -1.
         -5    1    5    5    0  502 -0.50435578246E+02 -0.33014284400E+02  0.48722797357E+02  0.77651088272E+02  0.47000000000E+01 0.  1.
         11    1    6    6    0    0  0.66055335811E+02 -0.67517152693E+02  0.24946938808E+03  0.26675241121E+03  0.00000000000E+00 0. -1.
        -12    1    6    6    0    0  0.19233482835E+02 -0.71404096622E+01  0.21044071073E+01  0.20623793089E+02  0.00000000000E+00 0.  1.
</event>
<event>
12    1  0.8451514E-002  0.1962289E+03  0.7818608E-02  0.1153683E+00
         21   -1    0    0  503  502  0.00000000000E+00  0.00000000000E+00  0.82695098772E+03  0.82695098772E+03  0.00000000000E+00 0.  1.
         21   -1    0    0  501  503 -0.00000000000E+00 -0.00000000000E+00 -0.62999618618E+02  0.62999618618E+02  0.00000000000E+00 0.  1.
          6    2    1    2  501    0  0.63047351717E+02 -0.68934762636E+02  0.15171311301E+03  0.24803757170E+03  0.17256534489E+03 0.  0.
         24    2    3    3    0    0  0.75423842535E+02 -0.10956883937E+03  0.11530823649E+03  0.19189747237E+03  0.76384317219E+02 0.  0.
         -6    2    1    2    0  502 -0.63047351717E+02  0.68934762636E+02  0.61223825610E+03  0.64191303464E+03  0.16878889703E+03 0.  0.
        -24    2    5    5    0    0 -0.57213808527E+02  0.83373094116E+02  0.61186095376E+03  0.62564257063E+03  0.82645669815E+02 0.  0.
          5    1    3    3  501    0 -0.12376490818E+02  0.40634076738E+02  0.36404876521E+02  0.56140099322E+02  0.47000000000E+01 0. -1.
        -13    1    4    4    0    0  0.47551183575E+02 -0.36565524264E+02  0.10077166953E+02  0.60825175034E+02  0.00000000000E+00 0.  1.
         14    1    4    4    0    0  0.27872658960E+02 -0.73003315110E+02  0.10523106953E+03  0.13107229734E+03  0.00000000000E+00 0. -1.
         -5    1    5    5    0  502 -0.58335431893E+01 -0.14438331479E+02  0.37730233117E+00  0.16270464010E+02  0.47000000000E+01 0.  1.
         11    1    6    6    0    0 -0.24636207973E+02  0.12018175805E+02  0.40388868412E+02  0.48812293376E+02  0.00000000000E+00 0. -1.
        -12    1    6    6    0    0 -0.32577600554E+02  0.71354918310E+02  0.57147208535E+03  0.57683027726E+03  0.00000000000E+00 0.  1.
</event>
<event>
12    1  0.8451514E-002  0.1874022E+03  0.7818608E-02  0.1162100E+00
         21   -1    0    0  503  502  0.00000000000E+00  0.00000000000E+00  0.16377837891E+03  0.16377837891E+03  0.00000000000E+00 0. -1.
         21   -1    0    0  501  503 -0.00000000000E+00 -0.00000000000E+00 -0.28515436217E+03  0.28515436217E+03  0.00000000000E+00 0. -1.
          6    2    1    2  501    0 -0.66319059084E+01 -0.70841305367E+02 -0.17660969387E+03  0.25356041714E+03  0.16744977889E+03 0.  0.
         24    2    3    3    0    0 -0.65219172046E+02 -0.31366590883E+02 -0.97189911025E+02  0.14716345880E+03  0.83509289160E+02 0.  0.
         -6    2    1    2    0  502  0.66319059084E+01  0.70841305367E+02  0.55233710612E+02  0.19537232393E+03  0.17336986315E+03 0.  0.
        -24    2    5    5    0    0  0.41504271045E+02  0.91331975818E+02  0.77060838828E+02  0.14917207553E+03  0.79055682375E+02 0.  0.
          5    1    3    3  501    0  0.58587266137E+02 -0.39474714484E+02 -0.79419782846E+02  0.10639695834E+03  0.47000000000E+01 0. -1.
        -11    1    4    4    0    0 -0.23806078471E+02  0.37224191785E+01  0.10718869032E+02  0.26371953473E+02  0.00000000000E+00 0.  1.
         12    1    4    4    0    0 -0.41413093575E+02 -0.35089010062E+02 -0.10790878006E+03  0.12079150533E+03  0.00000000000E+00 0. -1.
         -5    1    5    5    0  502 -0.34872365137E+02 -0.20490670451E+02 -0.21827128216E+02  0.46200248396E+02  0.47000000000E+01 0.  1.
         13    1    6    6    0    0  0.63853782793E+01  0.86378380626E+02  0.73372254097E+02  0.11351425182E+03  0.00000000000E+00 0. -1.
        -14    1    6    6    0    0  0.35118892766E+02  0.49535951918E+01  0.36885847311E+01  0.35657823710E+02  0.00000000000E+00 0.  1.
</event>
<event>
12    1  0.8451514E-002  0.1809055E+03  0.7818608E-02  0.1167109E+00
         21   -1    0    0  501  502  0.00000000000E+00  0.00000000000E+00  0.70360371112E+02  0.70360371112E+02  0.00000000000E+00 0.  1.
         21   -1    0    0  502  503 -0.00000000000E+00 -0.00000000000E+00 -0.63610481942E+03  0.63610481942E+03  0.00000000000E+00 0.  1.
         -6    2    1    2    0  503 -0.19483445923E+02  0.52432974393E+02 -0.46745152287E+03  0.50123619888E+03  0.17204063290E+03 0.  0.
        -24    2    3    3    0    0 -0.29777546162E+02  0.94115518266E+02 -0.26152812314E+03  0.29083197003E+03  0.80261089973E+02 0.  0.
          6    2    1    2  501    0  0.19483445923E+02 -0.52432974393E+02 -0.98292925439E+02  0.20522899165E+03  0.17125600239E+03 0.  0.
         24    2    5    5    0    0  0.20881805372E+02  0.20940747516E+02 -0.17557874728E+01  0.83873450027E+02  0.78467242386E+02 0.  0.
          5    1    5    5  501    0 -0.13983594489E+01 -0.73373721909E+02 -0.96537137966E+02  0.12135554162E+03  0.47000000000E+01 0. -1.
        -13    1    6    6    0    0  0.30797879512E+02  0.11246344542E+02  0.32960011551E+02  0.46490343185E+02  0.00000000000E+00 0.  1.
         14    1    6    6    0    0 -0.99160741399E+01  0.96944029742E+01 -0.34715799023E+02  0.37383106843E+02  0.00000000000E+00 0. -1.
         -5    1    3    3    0  503  0.10294100238E+02 -0.41682543873E+02 -0.20592339973E+03  0.21040422886E+03  0.47000000000E+01 0.  1.
         11    1    4    4    0    0  0.14531391556E+02  0.25396835469E+02 -0.14835008651E+03  0.15120816367E+03  0.00000000000E+00 0. -1.
        -12    1    4    4    0    0 -0.44308937718E+02  0.68718682796E+02 -0.11317803663E+03  0.13962380636E+03  0.00000000000E+00 0.  1.
</event>
<event>
12    1  0.8451514E-002  0.1885466E+03  0.7818608E-02  0.1160177E+00
         21   -1    0    0  501  502  0.00000000000E+00  0.00000000000E+00  0.40209098915E+02  0.40209098915E+02  0.00000000000E+00 0.  1.
         21   -1    0    0  502  503 -0.00000000000E+00 -0.00000000000E+00 -0.89625885046E+03  0.89625885046E+03  0.00000000000E+00 0.  1.
         -6    2    1    2    0  503  0.49118166810E+01 -0.76171332260E+02 -0.50039987052E+03  0.53474278357E+03  0.17240538380E+03 0.  0.
        -24    2    3    3    0    0 -0.22927300128E+02 -0.57799594561E+01 -0.40395432530E+03  0.41204887588E+03  0.77756737126E+02 0.  0.
          6    2    1    2  501    0 -0.49118166810E+01  0.76171332260E+02 -0.35564988102E+03  0.40172516580E+03  0.17049948143E+03 0.  0.
         24    2    5    5    0    0 -0.27863385801E+02  0.41670929454E+02 -0.86677496890E+02  0.12953904245E+03  0.82186011112E+02 0.  0.
          5    1    5    5  501    0  0.22951569120E+02  0.34500402807E+02 -0.26897238413E+03  0.27218612334E+03  0.47000000000E+01 0. -1.
        -13    1    6    6    0    0 -0.48505380850E+02  0.14728275329E+02 -0.80363390196E+02  0.95015622659E+02  0.00000000000E+00 0.  1.
         14    1    6    6    0    0  0.20641995049E+02  0.26942654124E+02 -0.63141066942E+01  0.34523419793E+02  0.00000000000E+00 0. -1.
         -5    1    3    3    0  503  0.27839116809E+02 -0.70391372804E+02 -0.96445545228E+02  0.12269390769E+03  0.47000000000E+01 0.  1.
         11    1    4    4    0    0  0.29069100475E+01  0.19627072205E+02 -0.31993076660E+03  0.32054542191E+03  0.00000000000E+00 0. -1.
        -12    1    4    4    0    0 -0.25834210175E+02 -0.25407031661E+02 -0.84023558692E+02  0.91503453971E+02  0.00000000000E+00 0.  1.
</event>
<event>
12    1  0.8451514E-002  0.1866696E+03  0.7818608E-02  0.1161609E+00
         21   -1    0    0  503  502  0.00000000000E+00  0.00000000000E+00  0.14945656117E+03  0.14945656117E+03  0.00000000000E+00 0. -1.
         21   -1    0    0  501  503 -0.00000000000E+00 -0.00000000000E+00 -0.23644212618E+03  0.23644212618E+03  0.00000000000E+00 0.  1.
          6    2    1    2  501    0 -0.50107675817E+02  0.50600966116E+02 -0.18812379503E+02  0.18761519268E+03  0.17255236293E+03 0.  0.
         24    2    3    3    0    0 -0.14919896339E+02 -0.11979102411E+02  0.28834893289E+02  0.10132036430E+03  0.95227427502E+02 0.  0.
         -6    2    1    2    0  502  0.50107675817E+02 -0.50600966116E+02 -0.68173185503E+02  0.19828349467E+03  0.17203930972E+03 0.  0.
        -24    2    5    5    0    0 -0.18112715135E+02 -0.29791889995E+02  0.18044119489E+02  0.86289954357E+02  0.76842298350E+02 0.  0.
          5    1    3    3  501    0 -0.35187779478E+02  0.62580068526E+02 -0.47647272793E+02  0.86294828385E+02  0.47000000000E+01 0. -1.
        -11    1    4    4    0    0 -0.33024320396E+02  0.34055611320E+02  0.10667196404E+02  0.48622828786E+02  0.00000000000E+00 0.  1.
         12    1    4    4    0    0  0.18104424057E+02 -0.46034713730E+02  0.18167696886E+02  0.52697535510E+02  0.00000000000E+00 0. -1.
         -5    1    5    5    0  502  0.68220390952E+02 -0.20809076121E+02 -0.86217304992E+02  0.11199354031E+03  0.47000000000E+01 0.  1.
         11    1    6    6    0    0  0.59476260223E+01 -0.33025339354E+02  0.40929380764E+02  0.52926944976E+02  0.00000000000E+00 0. -1.
        -12    1    6    6    0    0 -0.24060341158E+02  0.32334493596E+01 -0.22885261274E+02  0.33363009381E+02  0.00000000000E+00 0.  1.
</event>
<event>
12    1  0.8451514E-002  0.1946631E+03  0.7818608E-02  0.1156297E+00
         21   -1    0    0  503  502  0.00000000000E+00  0.00000000000E+00  0.26366576276E+04  0.26366576276E+04  0.00000000000E+00 0. -1.
         21   -1    0    0  501  503 -0.00000000000E+00 -0.00000000000E+00 -0.14027368066E+02  0.14027368066E+02  0.00000000000E+00 0. -1.
          6    2    1    2  501    0 -0.45150278676E+02 -0.54219568817E+02  0.14751011714E+04  0.14867620009E+04  0.17192868289E+03 0.  0.
         24    2    3    3    0    0 -0.24446827918E+02  0.35845053187E+02  0.58417819513E+03  0.59104658363E+03  0.78672645288E+02 0.  0.
         -6    2    1    2    0  502  0.45150278676E+02  0.54219568817E+02  0.11475290882E+04  0.11639229949E+04  0.18142607431E+03 0.  0.
        -24    2    5    5    0    0  0.54100094680E+02 -0.15288548084E+00  0.10253634022E+04  0.10298222573E+04  0.78974244950E+02 0.  0.
          5    1    3    3  501    0 -0.20703450758E+02 -0.90064622005E+02  0.89092297627E+03  0.89571541723E+03  0.47000000000E+01 0. -1.
        -13    1    4    4    0    0 -0.17161676351E+02 -0.13808587319E+02  0.38547590187E+03  0.38610474115E+03  0.00000000000E+00 0.  1.
         14    1    4    4    0    0 -0.72851515665E+01  0.49653640507E+02  0.19870229326E+03  0.20494184248E+03  0.00000000000E+00 0. -1.
         -5    1    5    5    0  502 -0.89498160047E+01  0.54372454298E+02  0.12216568596E+03  0.13410073758E+03  0.47000000000E+01 0.  1.
         13    1    6    6    0    0  0.41268260531E+02 -0.23301355757E+02  0.27950370595E+03  0.28349311129E+03  0.00000000000E+00 0. -1.
        -14    1    6    6    0    0  0.12831834149E+02  0.23148470276E+02  0.74585969626E+03  0.74632914599E+03  0.00000000000E+00 0.  1.
</event>
<event>
12    1  0.8451514E-002  0.1886783E+03  0.7818608E-02  0.1160186E+00
         21   -1    0    0  501  502  0.00000000000E+00  0.00000000000E+00  0.20688064312E+04  0.20688064312E+04  0.00000000000E+00 0. -1.
         21   -1    0    0  502  503 -0.00000000000E+00 -0.00000000000E+00 -0.24012864134E+02  0.24012864134E+02  0.00000000000E+00 0. -1.
         -6    2    1    2    0  503 -0.22539156585E+02  0.75571000452E+02  0.46129084550E+03  0.49838615843E+03  0.17140749426E+03 0.  0.
        -24    2    3    3    0    0  0.36030427492E+02  0.52913687369E+02  0.38217318173E+03  0.39726521731E+03  0.87551482156E+02 0.  0.
          6    2    1    2  501    0  0.22539156585E+02 -0.75571000452E+02  0.15835027216E+04  0.15944331369E+04  0.16887027314E+03 0.  0.
         24    2    5    5    0    0 -0.36313718276E+00  0.18836605062E+02  0.52657865308E+03  0.53304353474E+03  0.80593935780E+02 0.  0.
          5    1    5    5  501    0  0.22902293767E+02 -0.94407605513E+02  0.10569240685E+04  0.10613896022E+04  0.47000000000E+01 0. -1.
        -11    1    6    6    0    0  0.37036274814E+02  0.23719998071E+02  0.24038568524E+03  0.24437594322E+03  0.00000000000E+00 0.  1.
         12    1    6    6    0    0 -0.37399411997E+02 -0.48833930091E+01  0.28619296785E+03  0.28866759151E+03  0.00000000000E+00 0. -1.
         -5    1    3    3    0  503 -0.58569584076E+02  0.22657313082E+02  0.79117663766E+02  0.10112094113E+03  0.47000000000E+01 0.  1.
         11    1    4    4    0    0  0.15142686641E+02  0.53331508719E+02  0.10016282663E+03  0.11448206244E+03  0.00000000000E+00 0. -1.
        -12    1    4    4    0    0  0.20887740851E+02 -0.41782134961E+00  0.28201035510E+03  0.28278315487E+03  0.00000000000E+00 0.  1.
</event>
<event>
12    1  0.8451514E-002  0.2153958E+03  0.7818608E-02  0.1137624E+00
         21   -1    0    0  501  502  0.00000000000E+00  0.00000000000E+00  0.43234687700E+03  0.43234687700E+03  0.00000000000E+00 0.  1.
         21   -1    0    0  502  503 -0.00000000000E+00 -0.00000000000E+00 -0.13518629558E+03  0.13518629558E+03  0.00000000000E+00 0. -1.
         -6    2    1    2    0  503  0.50657140578E+02 -0.11755570478E+03  0.17803085195E+02  0.21477834734E+03  0.17154386909E+03 0.  0.
        -24    2    3    3    0    0  0.51903760862E+01 -0.34593748141E+02  0.66023034957E+02  0.10849021781E+03  0.78660147477E+02 0.  0.
          6    2    1    2  501    0 -0.50657140578E+02  0.11755570478E+03  0.27935749622E+03  0.35275482524E+03  0.17323356029E+03 0.  0.
         24    2    5    5    0    0  0.95558216547E+01 -0.19664082568E+01  0.81675021013E+02  0.11398383175E+03  0.78907061490E+02 0.  0.
          5    1    5    5  501    0 -0.60212962233E+02  0.11952211304E+03  0.19768247521E+03  0.23877099349E+03  0.47000000000E+01 0. -1.
        -13    1    6    6    0    0  0.17350524602E+02  0.39013144256E+01  0.95456217052E+02  0.97098662875E+02  0.00000000000E+00 0.  1.
         14    1    6    6    0    0 -0.77947029469E+01 -0.58677226824E+01 -0.13781196039E+02  0.16885168870E+02  0.00000000000E+00 0. -1.
         -5    1    3    3    0  503  0.45466764492E+02 -0.82961956643E+02 -0.48219949762E+02  0.10628812953E+03  0.47000000000E+01 0.  1.
         11    1    4    4    0    0  0.23684674740E+01 -0.40122024949E+02 -0.19454405004E+01  0.40238927209E+02  0.00000000000E+00 0. -1.
        -12    1    4    4    0    0  0.28219086122E+01  0.55282768081E+01  0.67968475458E+02  0.68251290601E+02  0.00000000000E+00 0.  1.
</event>
<event>
12    1  0.8451514E-002  0.5643122E+03  0.7818608E-02  0.9982825E-01
         21   -1    0    0  503  502  0.00000000000E+00  0.00000000000E+00  0.16956194241E+03  0.16956194241E+03  0.00000000000E+00 0. -1.
         21   -1    0    0  501  503 -0.00000000000E+00 -0.00000000000E+00 -0.20894704137E+04  0.20894704137E+04  0.00000000000E+00 0.  1.
          6    2    1    2  501    0 -0.58970137291E+02  0.53372713794E+03 -0.13223012929E+04  0.14376818136E+04  0.17351124727E+03 0.  0.
         24    2    3    3    0    0 -0.20547415975E+02  0.51325835992E+03 -0.11966780788E+04  0.13046458849E+04  0.78778933684E+02 0.  0.
         -6    2    1    2    0  502  0.58970137291E+02 -0.53372713794E+03 -0.59760717838E+03  0.82135054256E+03  0.17070512370E+03 0.  0.
        -24    2    5    5    0    0  0.73116004542E+02 -0.53301543033E+03 -0.55859938267E+03  0.77958560255E+03  0.79177284003E+02 0.  0.
          5    1    3    3  501    0 -0.38422721316E+02  0.20468778013E+02 -0.12562321417E+03  0.13303592870E+03  0.47000000000E+01 0. -1.
        -11    1    4    4    0    0  0.22343019570E+02  0.56432272360E+02 -0.14999060391E+03  0.16180541755E+03  0.00000000000E+00 0.  1.
         12    1    4    4    0    0 -0.42890435544E+02  0.45682608756E+03 -0.10466874749E+04  0.11428404673E+04  0.00000000000E+00 0. -1.
         -5    1    5    5    0  502 -0.14145867251E+02 -0.71170761146E+00 -0.39007795711E+02  0.41764940012E+02  0.47000000000E+01 0.  1.
         11    1    6    6    0    0  0.51366467745E+02 -0.33575380666E+03 -0.40534928130E+03  0.52884513097E+03  0.00000000000E+00 0. -1.
        -12    1    6    6    0    0  0.21749536798E+02 -0.19726162366E+03 -0.15325010137E+03  0.25074047158E+03  0.00000000000E+00 0.  1.
</event>
<event>
12    1  0.8451514E-002  0.1964435E+03  0.7818608E-02  0.1152807E+00
         21   -1    0    0  503  502  0.00000000000E+00  0.00000000000E+00  0.65028704399E+03  0.65028704399E+03  0.00000000000E+00 0. -1.
         21   -1    0    0  501  503 -0.00000000000E+00 -0.00000000000E+00 -0.11678451549E+03  0.11678451549E+03  0.00000000000E+00 0. -1.
          6    2    1    2  501    0 -0.54414367275E+02  0.77515645990E+02 -0.23885302772E+01  0.19630954577E+03  0.17193642414E+03 0.  0.
         24    2    3    3    0    0 -0.31292115160E+02  0.32432832818E+02  0.64018628885E+02  0.11264892556E+03  0.80995743524E+02 0.  0.
         -6    2    1    2    0  502  0.54414367275E+02 -0.77515645990E+02  0.53589105878E+03  0.57076201371E+03  0.17210592863E+03 0.  0.
        -24    2    5    5    0    0  0.27097145247E+02  0.58198887743E+01  0.40305183782E+03  0.41151569319E+03  0.78270399145E+02 0.  0.
          5    1    3    3  501    0 -0.23122252115E+02  0.45082813172E+02 -0.66407159163E+02  0.83660620213E+02  0.47000000000E+01 0. -1.
        -13    1    4    4    0    0 -0.47644597667E+02  0.26435599566E+02  0.93638298345E+01  0.55285892599E+02  0.00000000000E+00 0.  1.
         14    1    4    4    0    0  0.16352482507E+02  0.59972332515E+01  0.54654799051E+02  0.57363032958E+02  0.00000000000E+00 0. -1.
         -5    1    5    5    0  502  0.27317222028E+02 -0.83335534765E+02  0.13283922096E+03  0.15924632052E+03  0.47000000000E+01 0.  1.
         11    1    6    6    0    0 -0.21942921797E+02 -0.16337174990E+02  0.97678701433E+02  0.10143729007E+03  0.00000000000E+00 0. -1.
        -12    1    6    6    0    0  0.49040067045E+02  0.22157063764E+02  0.30537313639E+03  0.31007840311E+03  0.00000000000E+00 0.  1.
</event>
<event>
12    1  0.8451514E-002  0.1797308E+03  0.7818608E-02  0.1168652E+00
         21   -1    0    0  501  502  0.00000000000E+00  0.00000000000E+00  0.22219271642E+03  0.22219271642E+03  0.00000000000E+00 0.  1.
         21   -1    0    0  502  503 -0.00000000000E+00 -0.00000000000E+00 -0.76820962793E+03  0.76820962793E+03  0.00000000000E+00 0.  1.
         -6    2    1    2    0  503  0.43790764585E+02  0.15473449540E+02 -0.71993244844E+03  0.74202823920E+03  0.17362637688E+03 0.  0.
        -24    2    3    3    0    0  0.69982359454E+02 -0.35603043061E+02 -0.58210637477E+03  0.59265312640E+03  0.78897334445E+02 0.  0.
          6    2    1    2  501    0 -0.43790764585E+02 -0.15473449540E+02  0.17391553693E+03  0.24837410516E+03  0.17113159680E+03 0.  0.
         24    2    5    5    0    0  0.11401040924E+02  0.26980478711E+02  0.28180691802E+02  0.86790670041E+02  0.76684672850E+02 0.  0.
          5    1    5    5  501    0 -0.55191805509E+02 -0.42453928251E+02  0.14573484513E+03  0.16158343511E+03  0.47000000000E+01 0. -1.
        -13    1    6    6    0    0 -0.19253455089E+02  0.16146575125E+02  0.43972554786E+02  0.50645759897E+02  0.00000000000E+00 0.  1.
         14    1    6    6    0    0  0.30654496014E+02  0.10833903586E+02 -0.15791862985E+02  0.36144910144E+02  0.00000000000E+00 0. -1.
         -5    1    3    3    0  503 -0.26191594869E+02  0.51076492601E+02 -0.13782607368E+03  0.14937511280E+03  0.47000000000E+01 0.  1.
         13    1    4    4    0    0  0.92055014508E+00 -0.38006966337E+02 -0.13551230877E+03  0.14074431687E+03  0.00000000000E+00 0. -1.
        -14    1    4    4    0    0  0.69061809308E+02  0.24039232763E+01 -0.44659406599E+03  0.45190880953E+03  0.00000000000E+00 0.  1.
</event>
<event>
12    1  0.8451514E-002  0.2086002E+03  0.7818608E-02  0.1142919E+00
         21   -1    0    0  501  502  0.00000000000E+00  0.00000000000E+00  0.15624050480E+03  0.15624050480E+03  0.00000000000E+00 0. -1.
         21   -1    0    0  502  503 -0.00000000000E+00 -0.00000000000E+00 -0.28387988607E+03  0.28387988607E+03  0.00000000000E+00 0. -1.
         -6    2    1    2    0  503 -0.93334455433E+02 -0.70090775207E+02 -0.98119594302E+02  0.22944178354E+03  0.17144106832E+03 0.  0.
        -24    2    3    3    0    0 -0.60460650390E+02  0.25743134516E+02 -0.71104232349E+02  0.12448109998E+03  0.78240227345E+02 0.  0.
          6    2    1    2  501    0  0.93334455433E+02  0.70090775207E+02 -0.29519786964E+02  0.21067860733E+03  0.17288730556E+03 0.  0.
         24    2    5    5    0    0  0.99239358568E+02  0.91023816864E+01  0.21828870458E+02  0.13059598347E+03  0.81532249269E+02 0.  0.
          5    1    5    5  501    0 -0.59049031351E+01  0.60988393520E+02 -0.51348657422E+02  0.80082623860E+02  0.47000000000E+01 0. -1.
        -11    1    6    6    0    0  0.12164699488E+01 -0.16828817433E+02  0.23809423022E+02  0.29181801177E+02  0.00000000000E+00 0.  1.
         12    1    6    6    0    0  0.98022888620E+02  0.25931199120E+02 -0.19805525634E+01  0.10141418229E+03  0.00000000000E+00 0. -1.
         -5    1    3    3    0  503 -0.32873805044E+02 -0.95833909723E+02 -0.27015361952E+02  0.10496068355E+03  0.47000000000E+01 0.  1.
         11    1    4    4    0    0  0.10027161823E+02 -0.16985438316E+02 -0.14790270248E+02  0.24653624136E+02  0.00000000000E+00 0. -1.
        -12    1    4    4    0    0 -0.70487812212E+02  0.42728572832E+02 -0.56313962101E+02  0.99827475849E+02  0.00000000000E+00 0.  1.
</event>
<event>
12    1  0.8451514E-002  0.2077613E+03  0.7818608E-02  0.1144245E+00
         21   -1    0    0  503  502  0.00000000000E+00  0.00000000000E+00  0.72970622398E+03  0.72970622398E+03  0.00000000000E+00 0. -1.
         21   -1    0    0  501  503 -0.00000000000E+00 -0.00000000000E+00 -0.15570444370E+03  0.15570444370E+03  0.00000000000E+00 0.  1.
          6    2    1    2  501    0  0.64876166436E+02  0.97438806976E+02 -0.64988044618E+02  0.21349343384E+03  0.16629119722E+03 0.  0.
         24    2    3    3    0    0  0.23620511998E+02  0.75105365653E+00 -0.68353877330E+02  0.10821300121E+03  0.80494151439E+02 0.  0.
         -6    2    1    2    0  502 -0.64876166436E+02 -0.97438806976E+02  0.63898982489E+03  0.67191723384E+03  0.17164362713E+03 0.  0.
        -24    2    5    5    0    0 -0.91452054392E+02 -0.14887127701E+02  0.38820096792E+03  0.40651527763E+03  0.77263022437E+02 0.  0.
          5    1    3    3  501    0  0.41255654438E+02  0.96687753320E+02  0.33658327114E+01  0.10528043263E+03  0.47000000000E+01 0. -1.
        -13    1    4    4    0    0 -0.11701700076E+02  0.29592352649E+02 -0.49546798584E+02  0.58885672026E+02  0.00000000000E+00 0.  1.
         14    1    4    4    0    0  0.35322212074E+02 -0.28841298992E+02 -0.18807078745E+02  0.49327329183E+02  0.00000000000E+00 0. -1.
         -5    1    5    5    0  502  0.26575887956E+02 -0.82551679276E+02  0.25078885698E+03  0.26540195620E+03  0.47000000000E+01 0.  1.
         13    1    6    6    0    0 -0.19504804058E+02 -0.38657456147E+02  0.17402539092E+03  0.17933118240E+03  0.00000000000E+00 0. -1.
        -14    1    6    6    0    0 -0.71947250334E+02  0.23770328446E+02  0.21417557700E+03  0.22718409523E+03  0.00000000000E+00 0.  1.
</event>
<event>
12    1  0.8451514E-002  0.2037246E+03  0.7818608E-02  0.1146781E+00
         21   -1    0    0  503  502  0.00000000000E+00  0.00000000000E+00  0.57451884740E+02  0.57451884740E+02  0.00000000000E+00 0. -1.
         21   -1    0    0  501  503 -0.00000000000E+00 -0.00000000000E+00 -0.83387238701E+03  0.83387238701E+03  0.00000000000E+00 0.  1.
          6    2    1    2  501    0  0.64849829836E+02  0.89918649849E+02 -0.55239568918E+03  0.58851935463E+03  0.17006813142E+03 0.  0.
         24    2    3    3    0    0  0.97214652878E+02  0.58767489719E+02 -0.50170307729E+03  0.52062452826E+03  0.80247212244E+02 0.  0.
         -6    2    1    2    0  502 -0.64849829836E+02 -0.89918649849E+02 -0.22402481309E+03  0.30280491712E+03  0.17091763202E+03 0.  0.
        -24    2    5    5    0    0 -0.60404708419E+02 -0.48568531499E+02 -0.23346519458E+03  0.25990034634E+03  0.83872295161E+02 0.  0.
          5    1    3    3  501    0 -0.32364823042E+02  0.31151160130E+02 -0.50692611886E+02  0.67894826370E+02  0.47000000000E+01 0. -1.
        -11    1    4    4    0    0 -0.29658779657E+01  0.98288564595E+01 -0.17728346345E+03  0.17758048672E+03  0.00000000000E+00 0.  1.
         12    1    4    4    0    0  0.10018053084E+03  0.48938633259E+02 -0.32441961385E+03  0.34304404154E+03  0.00000000000E+00 0. -1.
         -5    1    5    5    0  502 -0.44451214168E+01 -0.41350118350E+02  0.94403814859E+01  0.42904570789E+02  0.47000000000E+01 0.  1.
         13    1    6    6    0    0 -0.30751432030E+02  0.12744660136E+02 -0.28186814971E+02  0.43618499195E+02  0.00000000000E+00 0. -1.
        -14    1    6    6    0    0 -0.29653276390E+02 -0.61313191634E+02 -0.20527837961E+03  0.21628184714E+03  0.00000000000E+00 0.  1.
</event>
<event>
12    1  0.8451514E-002  0.1794952E+03  0.7818608E-02  0.1168707E+00
         21   -1    0    0  503  502  0.00000000000E+00  0.00000000000E+00  0.11382003734E+03  0.11382003734E+03  0.00000000000E+00 0. -1.
         21   -1    0    0  501  503 -0.00000000000E+00 -0.00000000000E+00 -0.53815818143E+03  0.53815818143E+03  0.00000000000E+00 0.  1.
          6    2    1    2  501    0  0.45122084490E+02  0.16750656569E+02 -0.43725318098E+03  0.47201901564E+03  0.17115787986E+03 0.  0.
         24    2    3    3    0    0  0.46999696019E+02  0.58125318153E+02 -0.40480257511E+03  0.41919364420E+03  0.79187514685E+02 0.  0.
         -6    2    1    2    0  502 -0.45122084490E+02 -0.16750656569E+02  0.12915036890E+02  0.17995920314E+03  0.17292174418E+03 0.  0.
        -24    2    5    5    0    0 -0.86501214510E+02  0.27130623245E+02  0.85318015753E+01  0.11930360264E+03  0.77084545380E+02 0.  0.
          5    1    3    3  501    0 -0.18776115289E+01 -0.41374661585E+02 -0.32450605868E+02  0.52825371438E+02  0.47000000000E+01 0. -1.
        -13    1    4    4    0    0  0.20915722368E+02  0.56083071760E+02 -0.37408629635E+03  0.37884473798E+03  0.00000000000E+00 0.  1.
         14    1    4    4    0    0  0.26083973651E+02  0.20422463939E+01 -0.30716278763E+02  0.40348906216E+02  0.00000000000E+00 0. -1.
         -5    1    5    5    0  502  0.41379130020E+02 -0.43881279814E+02  0.43832353150E+01  0.60655600493E+02  0.47000000000E+01 0.  1.
         11    1    6    6    0    0 -0.63591019505E+02  0.41368309952E+02  0.33145486533E+02  0.82787548022E+02  0.00000000000E+00 0. -1.
        -12    1    6    6    0    0 -0.22910195005E+02 -0.14237686707E+02 -0.24613684958E+02  0.36516054622E+02  0.00000000000E+00 0.  1.
</event>
<event>
12    1  0.8451514E-002  0.2561077E+03  0.7818608E-02  0.1109610E+00
         21   -1    0    0  503  502  0.00000000000E+00  0.00000000000E+00  0.51017477618E+02  0.51017477618E+02  0.00000000000E+00 0.  1.
         21   -1    0    0  501  503 -0.00000000000E+00 -0.00000000000E+00 -0.12824098495E+04  0.12824098495E+04  0.00000000000E+00 0. -1.
          6    2    1    2  501    0  0.11746578688E+03 -0.14900762268E+03 -0.60806714168E+03  0.65980057278E+03  0.17201646536E+03 0.  0.
         24    2    3    3    0    0  0.12931930883E+02 -0.39391756593E+02 -0.13226878911E+03  0.16045186951E+03  0.80813517032E+02 0.  0.
         -6    2    1    2    0  502 -0.11746578688E+03  0.14900762268E+03 -0.62332523023E+03  0.67362675436E+03  0.17098882667E+03 0.  0.
        -24    2    5    5    0    0 -0.44108287729E+02  0.13714125053E+03 -0.52585288777E+03  0.55096836282E+03  0.79319692476E+02 0.  0.
          5    1    3    3  501    0  0.10453385600E+03 -0.10961586609E+03 -0.47579835257E+03  0.49934870327E+03  0.47000000000E+01 0. -1.
        -11    1    4    4    0    0  0.33900375934E+02 -0.31074678813E+02 -0.28154008144E+02  0.53921418067E+02  0.00000000000E+00 0.  1.
         12    1    4    4    0    0 -0.20968445052E+02 -0.83170777798E+01 -0.10411478096E+03  0.10653045145E+03  0.00000000000E+00 0. -1.
         -5    1    5    5    0  502 -0.73357499152E+02  0.11866372151E+02 -0.97472342468E+02  0.12265839154E+03  0.47000000000E+01 0.  1.
         11    1    6    6    0    0 -0.16212900029E+02  0.43284520798E+02 -0.31640890965E+03  0.31976711209E+03  0.00000000000E+00 0. -1.
        -12    1    6    6    0    0 -0.27895387700E+02  0.93856729729E+02 -0.20944397811E+03  0.23120125073E+03  0.00000000000E+00 0.  1.
</event>
<event>
12    1  0.8451514E-002  0.1770899E+03  0.7818608E-02  0.1171124E+00
         21   -1    0    0  501  502  0.00000000000E+00  0.00000000000E+00  0.23654413460E+03  0.23654413460E+03  0.00000000000E+00 0.  1.
         21   -1    0    0  502  503 -0.00000000000E+00 -0.00000000000E+00 -0.17354849908E+03  0.17354849908E+03  0.00000000000E+00 0.  1.
         -6    2    1    2    0  503 -0.31590540257E+01  0.33277937964E+02 -0.69716385796E+02  0.19031873142E+03  0.17390642399E+03 0.  0.
        -24    2    3    3    0    0 -0.86271425013E+01  0.82637717086E+02 -0.15497056436E+02  0.11664299958E+03  0.80386632719E+02 0.  0.
          6    2    1    2  501    0  0.31590540257E+01 -0.33277937964E+02  0.13271202132E+03  0.21977390225E+03  0.17196129428E+03 0.  0.
         24    2    5    5    0    0 -0.66393291007E+01  0.34337906616E+02  0.12294111801E+03  0.15059680126E+03  0.79634826116E+02 0.  0.
          5    1    5    5  501    0  0.97983831265E+01 -0.67615844580E+02  0.97709033075E+01  0.69177100991E+02  0.47000000000E+01 0. -1.
        -11    1    6    6    0    0 -0.11551297101E+02  0.20381442739E+02 -0.31522377049E+01  0.23638364482E+02  0.00000000000E+00 0.  1.
         12    1    6    6    0    0  0.49119680005E+01  0.13956463877E+02  0.12609335572E+03  0.12695843678E+03  0.00000000000E+00 0. -1.
         -5    1    3    3    0  503  0.54680884756E+01 -0.49359779122E+02 -0.54219329360E+02  0.73675731844E+02  0.47000000000E+01 0.  1.
         11    1    4    4    0    0 -0.42273745819E+02  0.53907386834E+02 -0.21937388354E+02  0.71932780766E+02  0.00000000000E+00 0. -1.
        -12    1    4    4    0    0  0.33646603318E+02  0.28730330252E+02  0.64403319177E+01  0.44710218814E+02  0.00000000000E+00 0.  1.
</event>
<event>
12    1  0.8451514E-002  0.1983831E+03  0.7818608E-02  0.1151676E+00
         21   -1    0    0  503  502  0.00000000000E+00  0.00000000000E+00  0.22255678198E+03  0.22255678198E+03  0.00000000000E+00 0. -1.
         21   -1    0    0  501  503 -0.00000000000E+00 -0.00000000000E+00 -0.58434499121E+03  0.58434499121E+03  0.00000000000E+00 0.  1.
          6    2    1    2  501    0 -0.29733725604E+02 -0.93093522263E+02 -0.51841518572E+03  0.55414130721E+03  0.16961068730E+03 0.  0.
         24    2    3    3    0    0 -0.11261302076E+01 -0.11077879333E+03 -0.49143746983E+03  0.51077022835E+03  0.84274730433E+02 0.  0.
         -6    2    1    2    0  502  0.29733725604E+02  0.93093522263E+02  0.15662697649E+03  0.25276046597E+03  0.17264224590E+03 0.  0.
        -24    2    5    5    0    0  0.84288027927E+02  0.52658207275E+02  0.82291529575E+02  0.15196842627E+03  0.80281680960E+02 0.  0.
          5    1    3    3  501    0 -0.28607595396E+02  0.17685271072E+02 -0.26977715887E+02  0.43371078863E+02  0.47000000000E+01 0. -1.
        -11    1    4    4    0    0 -0.25979469678E+02 -0.10434224068E+03 -0.32402612336E+03  0.34140176428E+03  0.00000000000E+00 0.  1.
         12    1    4    4    0    0  0.24853339470E+02 -0.64365526588E+01 -0.16741134647E+03  0.16936846407E+03  0.00000000000E+00 0. -1.
         -5    1    5    5    0  502 -0.54554302323E+02  0.40435314988E+02  0.74335446913E+02  0.10079203970E+03  0.47000000000E+01 0.  1.
         11    1    6    6    0    0  0.31233349311E+02  0.18303926549E+02  0.81030586862E+02  0.88749714611E+02  0.00000000000E+00 0. -1.
        -12    1    6    6    0    0  0.53054678616E+02  0.34354280727E+02  0.12609427130E+01  0.63218711659E+02  0.00000000000E+00 0.  1.
</event>
<event>
12    1  0.8451514E-002  0.1900809E+03  0.7818608E-02  0.1158400E+00
         21   -1    0    0  501  502  0.00000000000E+00  0.00000000000E+00  0.20108351594E+03  0.20108351594E+03  0.00000000000E+00 0.  1.
         21   -1    0    0  502  503 -0.00000000000E+00 -0.00000000000E+00 -0.17977462346E+03  0.17977462346E+03  0.00000000000E+00 0.  1.
         -6    2    1    2    0  503  0.65979134924E+02 -0.48519189083E+02  0.52970978307E+01  0.19010407974E+03  0.17147636553E+03 0.  0.
        -24    2    3    3    0    0  0.26293014408E+02 -0.89960113569E+02 -0.23423032428E+02  0.12576688781E+03  0.80526560719E+02 0.  0.
          6    2    1    2  501    0 -0.65979134924E+02  0.48519189083E+02  0.16011794652E+02  0.19075405966E+03  0.17153243353E+03 0.  0.
         24    2    5    5    0    0 -0.93306595552E+02  0.70512749017E+02 -0.15467962778E+02  0.14338770123E+03  0.81502186739E+02 0.  0.
          5    1    5    5  501    0  0.27327460629E+02 -0.21993559934E+02  0.31479757430E+02  0.47366358429E+02  0.47000000000E+01 0. -1.
        -11    1    6    6    0    0 -0.19890875361E+02  0.48397804991E+02 -0.36598744567E+02  0.63855011976E+02  0.00000000000E+00 0.  1.
         12    1    6    6    0    0 -0.73415720192E+02  0.22114944026E+02  0.21130781789E+02  0.79532689251E+02  0.00000000000E+00 0. -1.
         -5    1    3    3    0  503  0.39686120516E+02  0.41440924486E+02  0.28720130259E+02  0.64337191934E+02  0.47000000000E+01 0.  1.
         13    1    4    4    0    0  0.92529326206E+01 -0.53846873563E+02 -0.52965578339E+02  0.76095039546E+02  0.00000000000E+00 0. -1.
        -14    1    4    4    0    0  0.17040081787E+02 -0.36113240006E+02  0.29542545911E+02  0.49671848264E+02  0.00000000000E+00 0.  1.
</event>
<event>
12    1  0.8451514E-002  0.2787460E+03  0.7818608E-02  0.1097140E+00
         21   -1    0    0  503  502  0.00000000000E+00  0.00000000000E+00  0.15537507685E+04  0.15537507685E+04  0.00000000000E+00 0. -1.
         21   -1    0    0  501  503 -0.00000000000E+00 -0.00000000000E+00 -0.10262847518E+03  0.10262847518E+03  0.00000000000E+00 0.  1.
          6    2    1    2  501    0  0.13139840076E+03 -0.17426820000E+03  0.12357418777E+03  0.29988253326E+03  0.16438980692E+03 0.  0.
         24    2    3    3    0    0  0.32769219571E+02 -0.42551719175E+02  0.94988760252E+02  0.13280122560E+03  0.75689037453E+02 0.  0.
         -6    2    1    2    0  502 -0.13139840076E+03  0.17426820000E+03  0.13275481055E+04  0.13564967104E+04  0.17339090965E+03 0.  0.
        -24    2    5    5    0    0 -0.88394885419E+02  0.72083333927E+02  0.10232588816E+04  0.10326061872E+04  0.78785381601E+02 0.  0.
          5    1    3    3  501    0  0.98629181186E+02 -0.13171648083E+03  0.28585427517E+02  0.16708130766E+03  0.47000000000E+01 0. -1.
        -11    1    4    4    0    0  0.51325755194E+02 -0.47539593113E+02  0.87849470939E+02  0.11230260729E+03  0.00000000000E+00 0.  1.
         12    1    4    4    0    0 -0.18556535623E+02  0.49878739380E+01  0.71392893130E+01  0.20498618311E+02  0.00000000000E+00 0. -1.
         -5    1    5    5    0  502 -0.43003515338E+02  0.10218486608E+03  0.30428922390E+03  0.32389052312E+03  0.47000000000E+01 0.  1.
         13    1    6    6    0    0 -0.97740402980E+02  0.64547501192E+02  0.99543818094E+03  0.10023057110E+04  0.00000000000E+00 0. -1.
        -14    1    6    6    0    0  0.93455175614E+01  0.75358327352E+01  0.27820700666E+02  0.30300476218E+02  0.00000000000E+00 0.  1.
</event>
<event>
12    1  0.8451514E-002  0.2126619E+03  0.7818608E-02  0.1139754E+00
         21   -1    0    0  503  502  0.00000000000E+00  0.00000000000E+00  0.10251767450E+03  0.10251767450E+03  0.00000000000E+00 0. -1.
         21   -1    0    0  501  503 -0.00000000000E+00 -0.00000000000E+00 -0.61436302353E+03  0.61436302353E+03  0.00000000000E+00 0.  1.
          6    2    1    2  501    0  0.74228687625E+02  0.98169921317E+02 -0.44848105504E+03  0.49634701363E+03  0.17342972553E+03 0.  0.
         24    2    3    3    0    0  0.30628203769E+02 -0.13808181929E+02 -0.28279098811E+03  0.29161453922E+03  0.62765785075E+02 0.  0.
         -6    2    1    2    0  502 -0.74228687625E+02 -0.98169921317E+02 -0.63364293984E+02  0.22053368440E+03  0.17167655834E+03 0.  0.
        -24    2    5    5    0    0 -0.79085369016E+02 -0.59955965588E+02 -0.10386471195E+03  0.16444208412E+03  0.80025666131E+02 0.  0.
          5    1    3    3  501    0  0.43600483856E+02  0.11197810325E+03 -0.16569006693E+03  0.20473247441E+03  0.47000000000E+01 0. -1.
        -13    1    4    4    0    0 -0.10677607478E+02 -0.17434802749E+02 -0.17387154322E+03  0.17506940678E+03  0.00000000000E+00 0.  1.
         14    1    4    4    0    0  0.41305811247E+02  0.36266208198E+01 -0.10891944489E+03  0.11654513245E+03  0.00000000000E+00 0. -1.
         -5    1    5    5    0  502  0.48566813910E+01 -0.38213955729E+02  0.40500417964E+02  0.56091600279E+02  0.47000000000E+01 0.  1.
         11    1    6    6    0    0 -0.41485066429E+01 -0.30019472580E+01  0.13242241120E+02  0.14197842955E+02  0.00000000000E+00 0. -1.
        -12    1    6    6    0    0 -0.74936862373E+02 -0.56954018329E+02 -0.11710695307E+03  0.15024424116E+03  0.00000000000E+00 0.  1.
</event>
<event>
12    1  0.8451514E-002  0.1849577E+03  0.7818608E-02  0.1163114E+00
         21   -1    0    0  503  502  0.00000000000E+00  0.00000000000E+00  0.41557177477E+03  0.41557177477E+03  0.00000000000E+00 0.  1.
         21   -1    0    0  501  503 -0.00000000000E+00 -0.00000000000E+00 -0.20222917009E+03  0.20222917009E+03  0.00000000000E+00 0. -1.
          6    2    1    2  501    0  0.66136217884E+02 -0.18821874987E+02 -0.13122547312E+03  0.22678068181E+03  0.17170058402E+03 0.  0.
         24    2    3    3    0    0 -0.77882141399E+01  0.22540387946E+02 -0.11345408846E+03  0.14009982719E+03  0.78660066246E+02 0.  0.
         -6    2    1    2    0  502 -0.66136217884E+02  0.18821874987E+02  0.34456807779E+03  0.39102026305E+03  0.17158503311E+03 0.  0.
        -24    2    5    5    0    0 -0.73262964561E+02  0.27631105571E+02  0.11039242321E+03  0.15652352477E+03  0.78626883023E+02 0.  0.
          5    1    3    3  501    0  0.73924432024E+02 -0.41362262933E+02 -0.17771384655E+02  0.86680854619E+02  0.47000000000E+01 0. -1.
        -11    1    4    4    0    0  0.33579930897E+00 -0.26842136386E+02 -0.17996152944E+02  0.32318331760E+02  0.00000000000E+00 0.  1.
         12    1    4    4    0    0 -0.81240134488E+01  0.49382524332E+02 -0.95457935518E+02  0.10778149543E+03  0.00000000000E+00 0. -1.
         -5    1    5    5    0  502  0.71267466765E+01 -0.88092305843E+01  0.23417565459E+03  0.23449673828E+03  0.47000000000E+01 0.  1.
         13    1    6    6    0    0  0.15889953274E+02 -0.37775689288E+01  0.13891514226E+02  0.21441427414E+02  0.00000000000E+00 0. -1.
        -14    1    6    6    0    0 -0.89152917834E+02  0.31408674500E+02  0.96500908981E+02  0.13508209736E+03  0.00000000000E+00 0.  1.
</event>
<event>
12    1  0.8451514E-002  0.1979200E+03  0.7818608E-02  0.1152089E+00
         21   -1    0    0  501  502  0.00000000000E+00  0.00000000000E+00  0.32022658849E+03  0.32022658849E+03  0.00000000000E+00 0.  1.
         21   -1    0    0  502  503 -0.00000000000E+00 -0.00000000000E+00 -0.23271718192E+03  0.23271718192E+03  0.00000000000E+00 0. -1.
         -6    2    1    2    0  503  0.84094611800E+02 -0.38949700102E+02 -0.14824694051E+03  0.24512342284E+03  0.17181197333E+03 0.  0.
        -24    2    3    3    0    0  0.77637208880E+02 -0.70973353036E+02 -0.16169312204E+03  0.20948492964E+03  0.81697717155E+02 0.  0.
          6    2    1    2  501    0 -0.84094611800E+02  0.38949700102E+02  0.23575634709E+03  0.30782034758E+03  0.17488089753E+03 0.  0.
         24    2    5    5    0    0 -0.32974845111E+02 -0.45879716190E+02  0.12688904448E+03  0.16056736801E+03  0.80552847825E+02 0.  0.
          5    1    5    5  501    0 -0.51119766690E+02  0.84829416292E+02  0.10886730260E+03  0.14725297957E+03  0.47000000000E+01 0. -1.
        -11    1    6    6    0    0  0.16102097186E+02 -0.31530741292E+02  0.92241310943E+02  0.98802452524E+02  0.00000000000E+00 0.  1.
         12    1    6    6    0    0 -0.49076942296E+02 -0.14348974898E+02  0.34647733540E+02  0.61764915488E+02  0.00000000000E+00 0. -1.
         -5    1    3    3    0  503  0.64574029204E+01  0.32023652934E+02  0.13446181525E+02  0.35638493197E+02  0.47000000000E+01 0.  1.
         11    1    4    4    0    0  0.73957613966E+02 -0.13088397669E+02 -0.94828318007E+02  0.12096877578E+03  0.00000000000E+00 0. -1.
        -12    1    4    4    0    0  0.36795949142E+01 -0.57884955367E+02 -0.66864804028E+02  0.88516153861E+02  0.00000000000E+00 0.  1.
</event>
<event>
12    1  0.8451514E-002  0.1909791E+03  0.7818608E-02  0.1157639E+00
         21   -1    0    0  503  502  0.00000000000E+00  0.00000000000E+00  0.33529522076E+03  0.33529522076E+03  0.00000000000E+00 0.  1.
         21   -1    0    0  501  503 -0.00000000000E+00 -0.00000000000E+00 -0.11419935208E+03  0.11419935208E+03  0.00000000000E+00 0.  1.
          6    2    1    2  501    0  0.80552731941E+02 -0.18894757620E+02  0.60857407443E+02  0.20019677552E+03  0.17184111964E+03 0.  0.
         24    2    3    3    0    0  0.18456419865E+02  0.44062411904E+02 -0.29393259714E+01  0.91056176461E+02  0.77462584888E+02 0.  0.
         -6    2    1    2    0  502 -0.80552731941E+02  0.18894757620E+02  0.16023846123E+03  0.24929779733E+03  0.17212574708E+03 0.  0.
        -24    2    5    5    0    0 -0.29719397778E+02  0.10666085890E+02  0.17564418495E+03  0.19534258235E+03  0.79440775286E+02 0.  0.
          5    1    3    3  501    0  0.62096312076E+02 -0.62957169523E+02  0.63796733415E+02  0.10914059906E+03  0.47000000000E+01 0. -1.
        -11    1    4    4    0    0 -0.90797106032E+01  0.57486014199E+02  0.75277731153E+01  0.58683475878E+02  0.00000000000E+00 0.  1.
         12    1    4    4    0    0  0.27536130468E+02 -0.13423602295E+02 -0.10467099087E+02  0.32372700583E+02  0.00000000000E+00 0. -1.
         -5    1    5    5    0  502 -0.50833334163E+02  0.82286717301E+01 -0.15405723719E+02  0.53955214983E+02  0.47000000000E+01 0.  1.
         11    1    6    6    0    0 -0.50877463457E+02  0.16037787085E+02  0.73066518674E+02  0.90467911734E+02  0.00000000000E+00 0. -1.
        -12    1    6    6    0    0  0.21158065679E+02 -0.53717011959E+01  0.10257766628E+03  0.10487467061E+03  0.00000000000E+00 0.  1.
</event>
<event>
12    1  0.8451514E-002  0.1943616E+03  0.7818608E-02  0.1155330E+00
         21   -1    0    0  503  502  0.00000000000E+00  0.00000000000E+00  0.91015232431E+03  0.91015232431E+03  0.00000000000E+00 0. -1.
         21   -1    0    0  501  503 -0.00000000000E+00 -0.00000000000E+00 -0.94598265410E+02  0.94598265410E+02  0.00000000000E+00 0. -1.
          6    2    1    2  501    0  0.78232071629E+02 -0.25039620559E+02  0.27355836547E+02  0.19294218720E+03  0.17242710396E+03 0.  0.
         24    2    3    3    0    0 -0.13102363072E+02  0.24900230230E+02  0.22201153314E+02  0.88612764613E+02  0.81040961621E+02 0.  0.
         -6    2    1    2    0  502 -0.78232071629E+02  0.25039620559E+02  0.78819822235E+03  0.81180840252E+03  0.17615108585E+03 0.  0.
        -24    2    5    5    0    0 -0.93543506462E+02  0.58674155502E+02  0.73377808262E+03  0.74585869754E+03  0.75378233228E+02 0.  0.
          5    1    3    3  501    0  0.91334434701E+02 -0.49939850789E+02  0.51546832334E+01  0.10432942259E+03  0.47000000000E+01 0. -1.
        -13    1    4    4    0    0  0.21807063739E+02  0.31011387836E+02  0.34339601415E+02  0.51151367819E+02  0.00000000000E+00 0.  1.
         14    1    4    4    0    0 -0.34909426810E+02 -0.61111576066E+01 -0.12138448100E+02  0.37461396795E+02  0.00000000000E+00 0. -1.
         -5    1    5    5    0  502  0.15311434833E+02 -0.33634534943E+02  0.54420139739E+02  0.65949704978E+02  0.47000000000E+01 0.  1.
         11    1    6    6    0    0 -0.16971290338E+02  0.16091433007E+02  0.40285549706E+03  0.40353377854E+03  0.00000000000E+00 0. -1.
        -12    1    6    6    0    0 -0.76572216124E+02  0.42582722495E+02  0.33092258555E+03  0.34232491900E+03  0.00000000000E+00 0.  1.
</event>
<event>
12    1  0.8451514E-002  0.1747775E+03  0.7818608E-02  0.1173248E+00
         21   -1    0    0  501  502  0.00000000000E+00  0.00000000000E+00  0.24048292733E+03  0.24048292733E+03  0.00000000000E+00 0.  1.
         21   -1    0    0  502  503 -0.00000000000E+00 -0.00000000000E+00 -0.16647741531E+03  0.16647741531E+03  0.00000000000E+00 0.  1.
         -6    2    1    2    0  503  0.21534872016E+02  0.18865553593E+02 -0.63198365307E+02  0.18476201942E+03  0.17124050519E+03 0.  0.
        -24    2    3    3    0    0 -0.19730612675E+02  0.48350076051E+02  0.10647621275E+02  0.95054176811E+02  0.78707672813E+02 0.  0.
          6    2    1    2  501    0 -0.21534872016E+02 -0.18865553593E+02  0.13720387732E+03  0.22219832322E+03  0.17241673662E+03 0.  0.
         24    2    5    5    0    0  0.31898970476E+02 -0.41487756525E+02  0.13169880192E+03  0.16372323926E+03  0.81987477018E+02 0.  0.
          5    1    5    5  501    0 -0.53433842493E+02  0.22622202932E+02  0.55050754020E+01  0.58475083961E+02  0.47000000000E+01 0. -1.
        -11    1    6    6    0    0  0.54495197750E+02 -0.88186411007E+01  0.58458420614E+02  0.80404489609E+02  0.00000000000E+00 0.  1.
         12    1    6    6    0    0 -0.22596227273E+02 -0.32669115424E+02  0.73240381306E+02  0.83318749652E+02  0.00000000000E+00 0. -1.
         -5    1    3    3    0  503  0.41265484691E+02 -0.29484522459E+02 -0.73845986582E+02  0.89707842609E+02  0.47000000000E+01 0.  1.
         13    1    4    4    0    0  0.10436393446E+01 -0.21285538440E+02 -0.15577049675E+01  0.21367961403E+02  0.00000000000E+00 0. -1.
        -14    1    4    4    0    0 -0.20774252019E+02  0.69635614491E+02  0.12205326242E+02  0.73686215408E+02  0.00000000000E+00 0.  1.
</event>
<event>
12    1  0.8451514E-002  0.1874407E+03  0.7818608E-02  0.1160841E+00
         21   -1    0    0  501  502  0.00000000000E+00  0.00000000000E+00  0.37692815238E+03  0.37692815238E+03  0.00000000000E+00 0. -1.
         21   -1    0    0  502  503 -0.00000000000E+00 -0.00000000000E+00 -0.95753925723E+02  0.95753925723E+02  0.00000000000E+00 0. -1.
         -6    2    1    2    0  503 -0.37469493642E+02 -0.63437366917E+02  0.10116516420E+03  0.21280275503E+03  0.17211147442E+03 0.  0.
        -24    2    3    3    0    0  0.21086536133E+01 -0.46941896240E+02  0.13045014663E+03  0.16066610296E+03  0.81168761502E+02 0.  0.
          6    2    1    2  501    0  0.37469493642E+02  0.63437366917E+02  0.18000906246E+03  0.25987932307E+03  0.17235352482E+03 0.  0.
         24    2    5    5    0    0  0.39725691603E+02  0.10176000148E+03  0.17424883665E+03  0.22077708592E+03  0.80290946675E+02 0.  0.
          5    1    5    5  501    0 -0.22561979608E+01 -0.38322634561E+02  0.57602258016E+01  0.39102237151E+02  0.47000000000E+01 0. -1.
        -11    1    6    6    0    0  0.13183840831E+00 -0.27691276243E+00 -0.80984434698E+01  0.81042488040E+01  0.00000000000E+00 0.  1.
         12    1    6    6    0    0  0.39593853195E+02  0.10203691424E+03  0.18234728012E+03  0.21267283712E+03  0.00000000000E+00 0. -1.
         -5    1    3    3    0  503 -0.39578147256E+02 -0.16495470677E+02 -0.29284982427E+02  0.52136652067E+02  0.47000000000E+01 0.  1.
         11    1    4    4    0    0  0.19372062397E+02  0.88440814285E+00 -0.13089441275E+01  0.19436365761E+02  0.00000000000E+00 0. -1.
        -12    1    4    4    0    0 -0.17263408783E+02 -0.47826304383E+02  0.13175909076E+03  0.14122973720E+03  0.00000000000E+00 0.  1.
</event>
<event>
12    1  0.8451514E-002  0.2272848E+03  0.7818608E-02  0.1128572E+00
         21   -1    0    0  503  502  0.00000000000E+00  0.00000000000E+00  0.23684722819E+03  0.23684722819E+03  0.00000000000E+00 0.  1.
         21   -1    0    0  501  503 -0.00000000000E+00 -0.00000000000E+00 -0.57883491601E+03  0.57883491601E+03  0.00000000000E+00 0.  1.
          6    2    1    2  501    0  0.10323915305E+03 -0.11017779904E+03 -0.49296508149E+03  0.54282222030E+03  0.16983498214E+03 0.  0.
         24    2    3    3    0    0  0.13662044014E+03 -0.10908540296E+03 -0.43985425588E+03  0.47990677344E+03  0.79208427408E+02 0.  0.
         -6    2    1    2    0  502 -0.10323915305E+03  0.11017779904E+03  0.15097739368E+03  0.27285992389E+03  0.16988494501E+03 0.  0.
        -24    2    5    5    0    0 -0.10033815686E+03  0.11736973936E+03  0.63944227172E+02  0.18535562768E+03  0.80152623688E+02 0.  0.
          5    1    3    3  501    0 -0.33381287087E+02 -0.10923960723E+01 -0.53110825609E+02  0.62915446860E+02  0.47000000000E+01 0. -1.
        -13    1    4    4    0    0  0.22683658788E+02 -0.57996950803E+02 -0.99623583314E+02  0.11748639509E+03  0.00000000000E+00 0.  1.
         14    1    4    4    0    0  0.11393678135E+03 -0.51088452161E+02 -0.34023067257E+03  0.36242037835E+03  0.00000000000E+00 0. -1.
         -5    1    5    5    0  502 -0.29009961919E+01 -0.71919403219E+01  0.87033166504E+02  0.87504296216E+02  0.47000000000E+01 0.  1.
         13    1    6    6    0    0 -0.11224922227E+03  0.90672702990E+02  0.48085483206E+02  0.15209747093E+03  0.00000000000E+00 0. -1.
        -14    1    6    6    0    0  0.11911065412E+02  0.26697036368E+02  0.15858743967E+02  0.33258156748E+02  0.00000000000E+00 0.  1.
</event>
<event>
12    1  0.8451514E-002  0.2003939E+03  0.7818608E-02  0.1149630E+00
         21   -1    0    0  503  502  0.00000000000E+00  0.00000000000E+00  0.82209421518E+02  0.82209421518E+02  0.00000000000E+00 0.  1.
         21   -1    0    0  501  503 -0.00000000000E+00 -0.00000000000E+00 -0.49619988190E+03  0.49619988190E+03  0.00000000000E+00 0.  1.
          6    2    1    2  501    0 -0.89225525583E+02 -0.49171631764E+02 -0.24811434013E+03  0.31826969007E+03  0.17133541972E+03 0.  0.
         24    2    3    3    0    0 -0.67857060553E+02 -0.57441249672E+02 -0.69787691081E+02  0.13841563356E+03  0.79902990920E+02 0.  0.
         -6    2    1    2    0  502  0.89225525583E+02  0.49171631764E+02 -0.16587612025E+03  0.26013961335E+03  0.17256502363E+03 0.  0.
        -24    2    5    5    0    0  0.18729817158E+01  0.24161467775E+02 -0.14996588369E+02  0.83950231256E+02  0.78964923097E+02 0.  0.
          5    1    3    3  501    0 -0.21368465030E+02  0.82696179086E+01 -0.17832664905E+03  0.17985405650E+03  0.47000000000E+01 0. -1.
        -13    1    4    4    0    0 -0.73561496834E+02 -0.12966317038E+02 -0.43584557792E+02  0.86481401884E+02  0.00000000000E+00 0.  1.
         14    1    4    4    0    0  0.57044362805E+01 -0.44474932634E+02 -0.26203133289E+02  0.51934231681E+02  0.00000000000E+00 0. -1.
         -5    1    5    5    0  502  0.87352543867E+02  0.25010163988E+02 -0.15087953188E+03  0.17618938210E+03  0.47000000000E+01 0.  1.
         11    1    6    6    0    0 -0.32755338880E+02 -0.93135630743E+01 -0.10201300141E+02  0.35548856618E+02  0.00000000000E+00 0. -1.
        -12    1    6    6    0    0  0.34628320596E+02  0.33475030850E+02 -0.47952882288E+01  0.48401374638E+02  0.00000000000E+00 0.  1.
</event>
<event>
12    1  0.8451514E-002  0.2153698E+03  0.7818608E-02  0.1137980E+00
         21   -1    0    0  503  502  0.00000000000E+00  0.00000000000E+00  0.15096307677E+03  0.15096307677E+03  0.00000000000E+00 0. -1.
         21   -1    0    0  501  503 -0.00000000000E+00 -0.00000000000E+00 -0.38300006721E+03  0.38300006721E+03  0.00000000000E+00 0. -1.
          6    2    1    2  501    0  0.55100215004E+02  0.11253558308E+03 -0.23747919389E+03  0.31852457209E+03  0.17135123093E+03 0.  0.
         24    2    3    3    0    0 -0.34961713329E+02  0.52069295551E+02 -0.13636157969E+03  0.17015279322E+03  0.80149608160E+02 0.  0.
         -6    2    1    2    0  502 -0.55100215004E+02 -0.11253558308E+03  0.54422034437E+01  0.21543857190E+03  0.17516811790E+03 0.  0.
        -24    2    5    5    0    0  0.29355358973E+02 -0.67935647007E+02 -0.29338504158E+02  0.11368550858E+03  0.81158226936E+02 0.  0.
          5    1    3    3  501    0  0.90061928334E+02  0.60466287529E+02 -0.10111761420E+03  0.14837177887E+03  0.47000000000E+01 0. -1.
        -11    1    4    4    0    0 -0.32497709662E+02 -0.10029967384E+02 -0.23591784268E+02  0.41391710087E+02  0.00000000000E+00 0.  1.
         12    1    4    4    0    0 -0.24640036677E+01  0.62099262935E+02 -0.11276979542E+03  0.12876108313E+03  0.00000000000E+00 0. -1.
         -5    1    5    5    0  502 -0.84455573978E+02 -0.44599936073E+02  0.34780707602E+02  0.10175306332E+03  0.47000000000E+01 0.  1.
         11    1    6    6    0    0  0.89791021859E+01  0.62700459816E+01  0.19626738435E+02  0.22475466943E+02  0.00000000000E+00 0. -1.
        -12    1    6    6    0    0  0.20376256787E+02 -0.74205692989E+02 -0.48965242594E+02  0.91210041634E+02  0.00000000000E+00 0.  1.
</event>
<event>
12    1  0.8451514E-002  0.1752125E+03  0.7818608E-02  0.1172611E+00
         21   -1    0    0  501  502  0.00000000000E+00  0.00000000000E+00  0.18091712942E+03  0.18091712942E+03  0.00000000000E+00 0. -1.
         21   -1    0    0  502  503 -0.00000000000E+00 -0.00000000000E+00 -0.29004622990E+03  0.29004622990E+03  0.00000000000E+00 0. -1.
         -6    2    1    2    0  503  0.79347067722E+01 -0.28567615675E+02 -0.20644761262E+03  0.27053801936E+03  0.17231115728E+03 0.  0.
        -24    2    3    3    0    0  0.41019368123E+02  0.39168551655E+02 -0.10490371036E+03  0.14398353596E+03  0.80682750201E+02 0.  0.
          6    2    1    2  501    0 -0.79347067722E+01  0.28567615675E+02  0.97318512142E+02  0.20042533997E+03  0.17268571412E+03 0.  0.
         24    2    5    5    0    0 -0.45999269322E+02  0.63076904739E+02  0.29506083121E+02  0.11521725653E+03  0.79434114659E+02 0.  0.
          5    1    5    5  501    0  0.38064562549E+02 -0.34509289064E+02  0.67812429021E+02  0.85208083440E+02  0.47000000000E+01 0. -1.
        -13    1    6    6    0    0 -0.57734635938E+02  0.39248718205E+02 -0.68992232947E+01  0.70152329610E+02  0.00000000000E+00 0.  1.
         14    1    6    6    0    0  0.11735366617E+02  0.23828186534E+02  0.36405306415E+02  0.45064926920E+02  0.00000000000E+00 0. -1.
         -5    1    3    3    0  503 -0.33084661351E+02 -0.67736167330E+02 -0.10154390226E+03  0.12655448339E+03  0.47000000000E+01 0.  1.
         13    1    4    4    0    0  0.18582265391E+02 -0.23560185285E+02 -0.46752788192E+02  0.55553632837E+02  0.00000000000E+00 0. -1.
        -14    1    4    4    0    0  0.22437102732E+02  0.62728736940E+02 -0.58150922171E+02  0.88429903123E+02  0.00000000000E+00 0.  1.
</event>
<event>
12    1  0.8451514E-002  0.1789613E+03  0.7818608E-02  0.1169467E+00
         21   -1    0    0  501  502  0.00000000000E+00  0.00000000000E+00  0.39724553086E+03  0.39724553086E+03  0.00000000000E+00 0.  1.
         21   -1    0    0  502  503 -0.00000000000E+00 -0.00000000000E+00 -0.82989903377E+02  0.82989903377E+02  0.00000000000E+00 0.  1.
         -6    2    1    2    0  503  0.24119703292E+01  0.38592410517E+02  0.10850596449E+03  0.20928612971E+03  0.17473393490E+03 0.  0.
        -24    2    3    3    0    0  0.11154805379E+02 -0.33169438483E+02  0.21331924510E+02  0.95938860734E+02  0.86744294701E+02 0.  0.
          6    2    1    2  501    0 -0.24119703292E+01 -0.38592410517E+02  0.20574966299E+03  0.27094930453E+03  0.17200409895E+03 0.  0.
         24    2    5    5    0    0  0.17897976913E+02 -0.57287457130E+02  0.21874578581E+03  0.24007880190E+03  0.78650632470E+02 0.  0.
          5    1    5    5  501    0 -0.20309947243E+02  0.18695046612E+02 -0.12996122817E+02  0.30870502638E+02  0.47000000000E+01 0. -1.
        -13    1    6    6    0    0 -0.25907181676E+01 -0.67395028679E+02  0.19817084419E+03  0.20933343068E+03  0.00000000000E+00 0.  1.
         14    1    6    6    0    0  0.20488695081E+02  0.10107571550E+02  0.20574941618E+02  0.30745371218E+02  0.00000000000E+00 0. -1.
         -5    1    3    3    0  503 -0.87428350497E+01  0.71761849000E+02  0.87174039983E+02  0.11334726897E+03  0.47000000000E+01 0.  1.
         11    1    4    4    0    0  0.59553994345E+01 -0.76347899265E+01  0.53597172157E+02  0.54464792874E+02  0.00000000000E+00 0. -1.
        -12    1    4    4    0    0  0.51994059445E+01 -0.25534648556E+02 -0.32265247647E+02  0.41474067859E+02  0.00000000000E+00 0.  1.
</event>
<event>
12    1  0.8451514E-002  0.2049186E+03  0.7818608E-02  0.1146091E+00
         21   -1    0    0  503  502  0.00000000000E+00  0.00000000000E+00  0.67085219695E+03  0.67085219695E+03  0.00000000000E+00 0. -1.
         21   -1    0    0  501  503 -0.00000000000E+00 -0.00000000000E+00 -0.61947116500E+02  0.61947116500E+02  0.00000000000E+00 0. -1.
          6    2    1    2  501    0 -0.53060495150E+02  0.96581434529E+02  0.30299749168E+03  0.36459953993E+03  0.17024087320E+03 0.  0.
         24    2    3    3    0    0  0.20231679511E+01 -0.91710707571E+01  0.14631520403E+03  0.16764971998E+03  0.81302447258E+02 0.  0.
         -6    2    1    2    0  502  0.53060495150E+02 -0.96581434529E+02  0.30590758876E+03  0.36819977352E+03  0.17276640505E+03 0.  0.
        -24    2    5    5    0    0 -0.32605805296E+02 -0.42321950179E+02  0.20062123342E+03  0.22194618110E+03  0.78466183790E+02 0.  0.
          5    1    3    3  501    0 -0.55083663102E+02  0.10575250529E+03  0.15668228765E+03  0.19694981995E+03  0.47000000000E+01 0. -1.
        -13    1    4    4    0    0  0.29935641742E+02 -0.45541097456E+01  0.13295966453E+03  0.13636405301E+03  0.00000000000E+00 0.  1.
         14    1    4    4    0    0 -0.27912473791E+02 -0.46169610115E+01  0.13355539504E+02  0.31285666967E+02  0.00000000000E+00 0. -1.
         -5    1    5    5    0  502  0.85666300447E+02 -0.54259484350E+02  0.10528635534E+03  0.14625359242E+03  0.47000000000E+01 0.  1.
         11    1    6    6    0    0 -0.22916083755E+01 -0.43761290901E+02  0.42875008732E+02  0.61307164541E+02  0.00000000000E+00 0. -1.
        -12    1    6    6    0    0 -0.30314196921E+02  0.14393407219E+01  0.15774622469E+03  0.16063901656E+03  0.00000000000E+00 0.  1.
</event>
<event>
12    1  0.8451514E-002  0.2830190E+03  0.7818608E-02  0.1094140E+00
         21   -1    0    0  503  502  0.00000000000E+00  0.00000000000E+00  0.42132318388E+03  0.42132318388E+03  0.00000000000E+00 0.  1.
         21   -1    0    0  501  503 -0.00000000000E+00 -0.00000000000E+00 -0.26999182810E+03  0.26999182810E+03  0.00000000000E+00 0. -1.
          6    2    1    2  501    0 -0.20740103806E+02  0.22305208552E+03 -0.11292805249E+03  0.30410342046E+03  0.17188298501E+03 0.  0.
         24    2    3    3    0    0  0.46435514060E+02  0.17705074964E+03 -0.88868337360E+02  0.21907609291E+03  0.81200543008E+02 0.  0.
         -6    2    1    2    0  502  0.20740103806E+02 -0.22305208552E+03  0.26425940826E+03  0.38721159152E+03  0.17296646205E+03 0.  0.
        -24    2    5    5    0    0  0.47414787921E+02 -0.13586540569E+03  0.23404263660E+03  0.29104403357E+03  0.96036988483E+02 0.  0.
          5    1    3    3  501    0 -0.67175617866E+02  0.46001335876E+02 -0.24059715130E+02  0.85027327550E+02  0.47000000000E+01 0. -1.
        -11    1    4    4    0    0  0.41903870979E+02  0.13835767356E+03 -0.28682368941E+02  0.14738201561E+03  0.00000000000E+00 0.  1.
         12    1    4    4    0    0  0.45316430806E+01  0.38693076077E+02 -0.60185968419E+02  0.71694077299E+02  0.00000000000E+00 0. -1.
         -5    1    5    5    0  502 -0.26674684115E+02 -0.87186679825E+02  0.30216771667E+02  0.96167557947E+02  0.47000000000E+01 0.  1.
         13    1    6    6    0    0 -0.21567330910E+02 -0.11222574663E+02  0.11706696086E+02  0.26984118995E+02  0.00000000000E+00 0. -1.
        -14    1    6    6    0    0  0.68982118831E+02 -0.12464283103E+03  0.22233594051E+03  0.26405991458E+03  0.00000000000E+00 0.  1.
</event>
<event>
12    1  0.8451514E-002  0.2719393E+03  0.7818608E-02  0.1100203E+00
         21   -1    0    0  501  502  0.00000000000E+00  0.00000000000E+00  0.77742229356E+03  0.77742229356E+03  0.00000000000E+00 0. -1.
         21   -1    0    0  502  503 -0.00000000000E+00 -0.00000000000E+00 -0.96663600134E+02  0.96663600134E+02  0.00000000000E+00 0. -1.
         -6    2    1    2    0  503 -0.18151505835E+03  0.10634486442E+03  0.28385716588E+03  0.39296035418E+03  0.17200582180E+03 0.  0.
        -24    2    3    3    0    0 -0.11595826378E+03  0.29227999724E+02  0.24608164877E+03  0.28482255399E+03  0.79165109064E+02 0.  0.
          6    2    1    2  501    0  0.18151505835E+03 -0.10634486442E+03  0.39690152754E+03  0.48112553952E+03  0.17231951604E+03 0.  0.
         24    2    5    5    0    0  0.16552954762E+03 -0.13287439729E+03  0.28152991440E+03  0.36157616986E+03  0.80141108772E+02 0.  0.
          5    1    5    5  501    0  0.15985510734E+02  0.26529532863E+02  0.11537161314E+03  0.11954936966E+03  0.47000000000E+01 0. -1.
        -11    1    6    6    0    0  0.48672765094E+02 -0.56322436916E+02  0.15977832277E+03  0.17626788531E+03  0.00000000000E+00 0.  1.
         12    1    6    6    0    0  0.11685678253E+03 -0.76551960370E+02  0.12175159163E+03  0.18530828455E+03  0.00000000000E+00 0. -1.
         -5    1    3    3    0  503 -0.65556794570E+02  0.77116864700E+02  0.37775517108E+02  0.10813780018E+03  0.47000000000E+01 0.  1.
         13    1    4    4    0    0 -0.42594357188E+02 -0.27469065312E+02  0.88727637018E+02  0.10218327840E+03  0.00000000000E+00 0. -1.
        -14    1    4    4    0    0 -0.73363906595E+02  0.56697065037E+02  0.15735401176E+03  0.18263927560E+03  0.00000000000E+00 0.  1.
</event>
<event>
12    1  0.8451514E-002  0.3049062E+03  0.7818608E-02  0.1083524E+00
         21   -1    0    0  503  502  0.00000000000E+00  0.00000000000E+00  0.16561745337E+03  0.16561745337E+03  0.00000000000E+00 0.  1.
         21   -1    0    0  501  503 -0.00000000000E+00 -0.00000000000E+00 -0.59558581451E+03  0.59558581451E+03  0.00000000000E+00 0. -1.
          6    2    1    2  501    0  0.22260935151E+03 -0.10086419153E+03 -0.31744010493E+03  0.43619499603E+03  0.17253795474E+03 0.  0.
         24    2    3    3    0    0  0.90331551287E+02 -0.10178514085E+03 -0.22638198543E+03  0.27553406205E+03  0.78423287138E+02 0.  0.
         -6    2    1    2    0  502 -0.22260935151E+03  0.10086419153E+03 -0.11252825621E+03  0.32500827186E+03  0.18231637287E+03 0.  0.
        -24    2    5    5    0    0 -0.58212550522E+02  0.97902616319E+02 -0.38552400661E+02  0.14464864137E+03  0.80394766833E+02 0.  0.
          5    1    3    3  501    0  0.13227780023E+03  0.92094931123E+00 -0.91058119498E+02  0.16066093398E+03  0.47000000000E+01 0. -1.
        -13    1    4    4    0    0 -0.11703125464E+02 -0.65201933416E+00 -0.30040541666E+02  0.32246277590E+02  0.00000000000E+00 0.  1.
         14    1    4    4    0    0  0.10203467675E+03 -0.10113312151E+03 -0.19634144377E+03  0.24328778446E+03  0.00000000000E+00 0. -1.
         -5    1    5    5    0  502 -0.16439680099E+03  0.29615752154E+01 -0.73975855552E+02  0.18035963048E+03  0.47000000000E+01 0.  1.
         11    1    6    6    0    0 -0.19786762359E+02  0.71226371145E+02 -0.58027998038E+02  0.93978510668E+02  0.00000000000E+00 0. -1.
        -12    1    6    6    0    0 -0.38425788163E+02  0.26676245174E+02  0.19475597377E+02  0.50670130706E+02  0.00000000000E+00 0.  1.
</event>
<event>
12    1  0.8451514E-002  0.1807410E+03  0.7818608E-02  0.1167292E+00
         21   -1    0    0  503  502  0.00000000000E+00  0.00000000000E+00  0.12405785353E+04  0.12405785353E+04  0.00000000000E+00 0.  1.
         21   -1    0    0  501  503 -0.00000000000E+00 -0.00000000000E+00 -0.26253526661E+02  0.26253526661E+02  0.00000000000E+00 0.  1.
          6    2    1    2  501    0  0.46493789321E+02  0.27247813731E+02  0.57973369919E+03  0.60700371859E+03  0.17163401938E+03 0.  0.
         24    2    3    3    0    0  0.74261349123E+02  0.41944430836E+02  0.55381093585E+03  0.56600240653E+03  0.79862934308E+02 0.  0.
         -6    2    1    2    0  502 -0.46493789321E+02 -0.27247813731E+02  0.63459130946E+03  0.65982834338E+03  0.17252013473E+03 0.  0.
        -24    2    5    5    0    0  0.30640024778E+01 -0.74124193732E+02  0.41751888662E+03  0.43224122492E+03  0.83705863778E+02 0.  0.
          5    1    3    3  501    0 -0.27767559802E+02 -0.14696617105E+02  0.25922763336E+02  0.41001312061E+02  0.47000000000E+01 0. -1.
        -11    1    4    4    0    0  0.54043720863E+01  0.16018304449E+02  0.16315190416E+02  0.23494228086E+02  0.00000000000E+00 0.  1.
         12    1    4    4    0    0  0.68856977037E+02  0.25926126387E+02  0.53749574544E+03  0.54250817844E+03  0.00000000000E+00 0. -1.
         -5    1    5    5    0  502 -0.49557791799E+02  0.46876380001E+02  0.21707242284E+03  0.22758711846E+03  0.47000000000E+01 0.  1.
         13    1    6    6    0    0 -0.87766835477E+01  0.17125087714E+02  0.90531102305E+02  0.92553656265E+02  0.00000000000E+00 0. -1.
        -14    1    6    6    0    0  0.11840686026E+02 -0.91249281446E+02  0.32698778431E+03  0.33968756866E+03  0.00000000000E+00 0.  1.
</event>
<event>
12    1  0.8451514E-002  0.1973339E+03  0.7818608E-02  0.1152757E+00
         21   -1    0    0  501  502  0.00000000000E+00  0.00000000000E+00  0.43904337117E+02  0.43904337117E+02  0.00000000000E+00 0. -1.
         21   -1    0    0  502  503 -0.00000000000E+00 -0.00000000000E+00 -0.90797251103E+03  0.90797251103E+03  0.00000000000E+00 0.  1.
         -6    2    1    2    0  503  0.66755819354E+02 -0.71045559391E+02 -0.52378370797E+03  0.55851419371E+03  0.16758556297E+03 0.  0.
        -24    2    3    3    0    0  0.10069265450E+03 -0.37294241414E+02 -0.45616004583E+03  0.47553281070E+03  0.80744012353E+02 0.  0.
          6    2    1    2  501    0 -0.66755819354E+02  0.71045559391E+02 -0.34028446595E+03  0.39336265444E+03  0.17157170284E+03 0.  0.
         24    2    5    5    0    0  0.16174105502E+02  0.70554708934E+02 -0.24716961367E+03  0.26858253149E+03  0.76185232515E+02 0.  0.
          5    1    5    5  501    0 -0.82929924856E+02  0.49085045748E+00 -0.93114852274E+02  0.12478012296E+03  0.47000000000E+01 0. -1.
        -11    1    6    6    0    0  0.24501354122E+01  0.84131982405E+02 -0.18022880373E+03  0.19891358757E+03  0.00000000000E+00 0.  1.
         12    1    6    6    0    0  0.13723970090E+02 -0.13577273471E+02 -0.66940809942E+02  0.69668943910E+02  0.00000000000E+00 0. -1.
         -5    1    3    3    0  503 -0.33936835143E+02 -0.33751317977E+02 -0.67623662138E+02  0.82981383007E+02  0.47000000000E+01 0.  1.
         13    1    4    4    0    0  0.73199670529E+02  0.14813206615E+02 -0.22979774710E+03  0.24162911130E+03  0.00000000000E+00 0. -1.
        -14    1    4    4    0    0  0.27492983968E+02 -0.52107448029E+02 -0.22636229873E+03  0.23390369940E+03  0.00000000000E+00 0.  1.
</event>
<event>
12    1  0.8451514E-002  0.2077855E+03  0.7818608E-02  0.1143515E+00
         21   -1    0    0  503  502  0.00000000000E+00  0.00000000000E+00  0.81843449998E+03  0.81843449998E+03  0.00000000000E+00 0.  1.
         21   -1    0    0  501  503 -0.00000000000E+00 -0.00000000000E+00 -0.74706091027E+02  0.74706091027E+02  0.00000000000E+00 0.  1.
          6    2    1    2  501    0  0.93067102928E+02  0.69225507248E+02  0.12908784634E+03  0.24461906519E+03  0.17239825544E+03 0.  0.
         24    2    3    3    0    0  0.11615629671E+03  0.47344441481E+02  0.14561568682E+03  0.20846451610E+03  0.80744936825E+02 0.  0.
         -6    2    1    2    0  502 -0.93067102928E+02 -0.69225507248E+02  0.61464056261E+03  0.64852152581E+03  0.17129942131E+03 0.  0.
        -24    2    5    5    0    0  0.13400410929E+02 -0.21832796323E+02  0.35588276760E+03  0.36469219852E+03  0.75442782140E+02 0.  0.
          5    1    3    3  501    0 -0.23089193783E+02  0.21881065768E+02 -0.16527840477E+02  0.36154549084E+02  0.47000000000E+01 0. -1.
        -11    1    4    4    0    0  0.29725786425E+02 -0.19706081778E+01 -0.26416835412E+01  0.29907928165E+02  0.00000000000E+00 0.  1.
         12    1    4    4    0    0  0.86430510286E+02  0.49315049659E+02  0.14825737036E+03  0.17855658794E+03  0.00000000000E+00 0. -1.
         -5    1    5    5    0  502 -0.10646751386E+03 -0.47392710926E+02  0.25875779501E+03  0.28382932730E+03  0.47000000000E+01 0.  1.
         13    1    6    6    0    0 -0.98639588684E+01  0.16640915713E+02  0.29825374208E+02  0.35549552838E+02  0.00000000000E+00 0. -1.
        -14    1    6    6    0    0  0.23264369798E+02 -0.38473712036E+02  0.32605739339E+03  0.32914264568E+03  0.00000000000E+00 0.  1.
</event>
<event>
12    1  0.8451514E-002  0.2091217E+03  0.7818608E-02  0.1142359E+00
         21   -1    0    0  503  502  0.00000000000E+00  0.00000000000E+00  0.30898383093E+02  0.30898383093E+02  0.00000000000E+00 0.  1.
         21   -1    0    0  501  503 -0.00000000000E+00 -0.00000000000E+00 -0.14999296747E+04  0.14999296747E+04  0.00000000000E+00 0.  1.
          6    2    1    2  501    0  0.19862936631E+02  0.11635866739E+03 -0.91892514631E+03  0.94231413265E+03  0.17204250737E+03 0.  0.
         24    2    3    3    0    0 -0.31766654819E+02  0.10778717029E+03 -0.44040600368E+03  0.46091851038E+03  0.76558674871E+02 0.  0.
         -6    2    1    2    0  502 -0.19862936631E+02 -0.11635866739E+03 -0.55010614530E+03  0.58851392515E+03  0.17262095256E+03 0.  0.
        -24    2    5    5    0    0  0.10120989065E+02 -0.31302696780E+02 -0.43364519651E+03  0.44114094075E+03  0.73992431391E+02 0.  0.
          5    1    3    3  501    0  0.51629591450E+02  0.85714971076E+01 -0.47851914263E+03  0.48139562227E+03  0.47000000000E+01 0. -1.
        -13    1    4    4    0    0 -0.23826071789E+02  0.51978570216E+02 -0.34807072399E+03  0.35273599527E+03  0.00000000000E+00 0.  1.
         14    1    4    4    0    0 -0.79405830303E+01  0.55808600071E+02 -0.92335279684E+02  0.10818251511E+03  0.00000000000E+00 0. -1.
         -5    1    5    5    0  502 -0.29983925696E+02 -0.85055970614E+02 -0.11646094880E+03  0.14737298440E+03  0.47000000000E+01 0.  1.
         13    1    6    6    0    0 -0.27757916272E+02  0.92638509390E+00 -0.99068342612E+02  0.10288778651E+03  0.00000000000E+00 0. -1.
        -14    1    6    6    0    0  0.37878905337E+02 -0.32229081874E+02 -0.33457685389E+03  0.33825315424E+03  0.00000000000E+00 0.  1.
</event>
<event>
12    1  0.8451514E-002  0.2393008E+03  0.7818608E-02  0.1121248E+00
         21   -1    0    0  503  502  0.00000000000E+00  0.00000000000E+00  0.28674969985E+03  0.28674969985E+03  0.00000000000E+00 0.  1.
         21   -1    0    0  501  503 -0.00000000000E+00 -0.00000000000E+00 -0.19522926920E+03  0.19522926920E+03  0.00000000000E+00 0.  1.
          6    2    1    2  501    0  0.14293977049E+03 -0.87694709486E+02  0.34753441934E+02  0.23603719458E+03  0.16243034027E+03 0.  0.
         24    2    3    3    0    0  0.48074423985E+02 -0.57096629632E+02 -0.33780506416E+02  0.11498072621E+03  0.80673846004E+02 0.  0.
         -6    2    1    2    0  502 -0.14293977049E+03  0.87694709486E+02  0.56766988709E+02  0.24594177447E+03  0.17071240541E+03 0.  0.
        -24    2    5    5    0    0 -0.87645903903E+02  0.63050587126E+02  0.10190064821E+03  0.17028543522E+03  0.83403874822E+02 0.  0.
          5    1    3    3  501    0  0.94865346505E+02 -0.30598079854E+02  0.68533948350E+02  0.12105646837E+03  0.47000000000E+01 0. -1.
        -13    1    4    4    0    0  0.53642538106E+02 -0.68339456566E+02 -0.91749819757E+01  0.87361224307E+02  0.00000000000E+00 0.  1.
         14    1    4    4    0    0 -0.55681141208E+01  0.11242826934E+02 -0.24605524440E+02  0.27619501902E+02  0.00000000000E+00 0. -1.
         -5    1    5    5    0  502 -0.55293866587E+02  0.24644122360E+02 -0.45133659497E+02  0.75656339249E+02  0.47000000000E+01 0.  1.
         11    1    6    6    0    0 -0.16421782909E+02 -0.96456103584E+01 -0.78592672117E+01  0.20602932660E+02  0.00000000000E+00 0. -1.
        -12    1    6    6    0    0 -0.71224120994E+02  0.72696197485E+02  0.10975991542E+03  0.14968250256E+03  0.00000000000E+00 0.  1.
</event>
<event>
12    1  0.8451514E-002  0.1985796E+03  0.7818608E-02  0.1151025E+00
         21   -1    0    0  503  502  0.00000000000E+00  0.00000000000E+00  0.15005961662E+02  0.15005961662E+02  0.00000000000E+00 0.  1.
         21   -1    0    0  501  503 -0.00000000000E+00 -0.00000000000E+00 -0.26712057588E+04  0.26712057588E+04  0.00000000000E+00 0. -1.
          6    2    1    2  501    0  0.48887747571E+02  0.87493387704E+02 -0.15077077739E+04  0.15206784600E+04  0.17098287173E+03 0.  0.
         24    2    3    3    0    0 -0.10658443616E+02  0.77936136304E+02 -0.56047613936E+03  0.57151727798E+03  0.79440874122E+02 0.  0.
         -6    2    1    2    0  502 -0.48887747571E+02 -0.87493387704E+02 -0.11484920232E+04  0.11655332604E+04  0.17143147052E+03 0.  0.
        -24    2    5    5    0    0  0.33668304492E+02 -0.41668179949E+02 -0.73869636028E+03  0.74497407703E+03  0.80276215757E+02 0.  0.
          5    1    3    3  501    0  0.59546191187E+02  0.95572513996E+01 -0.94723163458E+03  0.94916118204E+03  0.47000000000E+01 0. -1.
        -13    1    4    4    0    0 -0.22436807684E+02  0.12618025417E+02 -0.45460742257E+02  0.52242741036E+02  0.00000000000E+00 0.  1.
         14    1    4    4    0    0  0.11778364068E+02  0.65318110887E+02 -0.51501539710E+03  0.51927453694E+03  0.00000000000E+00 0. -1.
         -5    1    5    5    0  502 -0.82556052064E+02 -0.45825207755E+02 -0.40979566287E+03  0.42055918336E+03  0.47000000000E+01 0.  1.
         13    1    6    6    0    0  0.65529470077E+01  0.31401686905E+00 -0.54161068677E+03  0.54165041839E+03  0.00000000000E+00 0. -1.
        -14    1    6    6    0    0  0.27115357485E+02 -0.41982196818E+02 -0.19708567351E+03  0.20332365865E+03  0.00000000000E+00 0.  1.
</event>
<event>
12    1  0.8451514E-002  0.2423182E+03  0.7818608E-02  0.1118482E+00
         21   -1    0    0  503  502  0.00000000000E+00  0.00000000000E+00  0.14906513946E+04  0.14906513946E+04  0.00000000000E+00 0.  1.
         21   -1    0    0  501  503 -0.00000000000E+00 -0.00000000000E+00 -0.44327637662E+02  0.44327637662E+02  0.00000000000E+00 0. -1.
          6    2    1    2  501    0 -0.16414175988E+03 -0.38733330255E+02  0.45959869445E+03  0.51893550595E+03  0.17210552341E+03 0.  0.
         24    2    3    3    0    0 -0.84995946074E+02 -0.67641829090E+02  0.17555183212E+03  0.22261731355E+03  0.83308430788E+02 0.  0.
         -6    2    1    2    0  502  0.16414175988E+03  0.38733330255E+02  0.98672506245E+03  0.10160435263E+04  0.17399801781E+03 0.  0.
        -24    2    5    5    0    0  0.15944530464E+03  0.66948022587E+02  0.65070897858E+03  0.67877949888E+03  0.86108015832E+02 0.  0.
          5    1    3    3  501    0 -0.79145813808E+02  0.28908498835E+02  0.28404686233E+03  0.29631819240E+03  0.47000000000E+01 0. -1.
        -11    1    4    4    0    0 -0.54137303395E+02  0.25435080693E+01  0.10622316660E+03  0.11925048501E+03  0.00000000000E+00 0.  1.
         12    1    4    4    0    0 -0.30858642679E+02 -0.70185337160E+02  0.69328665519E+02  0.10336682854E+03  0.00000000000E+00 0. -1.
         -5    1    5    5    0  502  0.46964552437E+01 -0.28214692332E+02  0.33601608387E+03  0.33726402739E+03  0.47000000000E+01 0.  1.
         11    1    6    6    0    0  0.93089427924E+02 -0.27870725449E+01  0.25329249849E+03  0.26987126404E+03  0.00000000000E+00 0. -1.
        -12    1    6    6    0    0  0.66355876714E+02  0.69735095132E+02  0.39741648010E+03  0.40890823484E+03  0.00000000000E+00 0.  1.
</event>
<event>
12    1  0.8451514E-002  0.1841362E+03  0.7818608E-02  0.1163991E+00
         21   -1    0    0  501  502  0.00000000000E+00  0.00000000000E+00  0.12479487778E+03  0.12479487778E+03  0.00000000000E+00 0. -1.
         21   -1    0    0  502  503 -0.00000000000E+00 -0.00000000000E+00 -0.29461341432E+03  0.29461341432E+03  0.00000000000E+00 0. -1.
         -6    2    1    2    0  503  0.41795488216E+02 -0.19974305258E+02 -0.14432611426E+03  0.23351582598E+03  0.17763383130E+03 0.  0.
        -24    2    3    3    0    0 -0.24636618336E+02  0.38126372864E+02 -0.96027520710E+02  0.13279960228E+03  0.79711143262E+02 0.  0.
          6    2    1    2  501    0 -0.41795488216E+02  0.19974305258E+02 -0.25492422284E+02  0.18589246612E+03  0.17821422407E+03 0.  0.
         24    2    5    5    0    0  0.25117981005E+02 -0.39840014130E+02 -0.21390154870E+02  0.95925340100E+02  0.80783614999E+02 0.  0.
          5    1    5    5  501    0 -0.66913469221E+02  0.59814319388E+02 -0.41022674141E+01  0.89967126023E+02  0.47000000000E+01 0. -1.
        -11    1    6    6    0    0  0.46046091902E+02  0.22123128786E+01 -0.59554509218E+01  0.46482300969E+02  0.00000000000E+00 0.  1.
         12    1    6    6    0    0 -0.20928110897E+02 -0.42052327009E+02 -0.15434703948E+02  0.49443039131E+02  0.00000000000E+00 0. -1.
         -5    1    3    3    0  503  0.66432106551E+02 -0.58100678122E+02 -0.48298593546E+02  0.10071622371E+03  0.47000000000E+01 0.  1.
         13    1    4    4    0    0  0.75647551175E+01 -0.14951753603E+02  0.18868232133E+01  0.16862400708E+02  0.00000000000E+00 0. -1.
        -14    1    4    4    0    0 -0.32201373453E+02  0.53078126467E+02 -0.97914343923E+02  0.11593720157E+03  0.00000000000E+00 0.  1.
</event>
<event>
12    1  0.8451514E-002  0.2371663E+03  0.7818608E-02  0.1121736E+00
         21   -1    0    0  503  502  0.00000000000E+00  0.00000000000E+00  0.26457733817E+03  0.26457733817E+03  0.00000000000E+00 0. -1.
         21   -1    0    0  501  503 -0.00000000000E+00 -0.00000000000E+00 -0.25632968007E+03  0.25632968007E+03  0.00000000000E+00 0.  1.
          6    2    1    2  501    0  0.13147939156E+03  0.96483650245E+02 -0.10372152829E+03  0.25885517790E+03  0.17219733600E+03 0.  0.
         24    2    3    3    0    0  0.93327960129E+02  0.13374747926E+03 -0.65597045610E+02  0.19313082281E+03  0.79987786425E+02 0.  0.
         -6    2    1    2    0  502 -0.13147939156E+03 -0.96483650245E+02  0.11196918639E+03  0.26205184035E+03  0.17186664353E+03 0.  0.
        -24    2    5    5    0    0 -0.93722122181E+02 -0.66211525729E+02  0.14711703922E+03  0.20205621991E+03  0.77559592894E+02 0.  0.
          5    1    3    3  501    0  0.38151431429E+02 -0.37263829010E+02 -0.38124482683E+02  0.65724355093E+02  0.47000000000E+01 0. -1.
        -11    1    4    4    0    0  0.66058693746E+02  0.30361005731E+02 -0.12565696873E+02  0.73779661333E+02  0.00000000000E+00 0.  1.
         12    1    4    4    0    0  0.27269266382E+02  0.10338647352E+03 -0.53031348737E+02  0.11935116148E+03  0.00000000000E+00 0. -1.
         -5    1    5    5    0  502 -0.37757269376E+02 -0.30272124516E+02 -0.35147852826E+02  0.59995620438E+02  0.47000000000E+01 0.  1.
         11    1    6    6    0    0 -0.79241284662E+02 -0.30278381648E+02  0.52364378539E+02  0.99689466494E+02  0.00000000000E+00 0. -1.
        -12    1    6    6    0    0 -0.14480837519E+02 -0.35933144081E+02  0.94752660677E+02  0.10236675341E+03  0.00000000000E+00 0.  1.
</event>
<event>
12    1  0.8451514E-002  0.2225425E+03  0.7818608E-02  0.1132011E+00
         21   -1    0    0  501  502  0.00000000000E+00  0.00000000000E+00  0.88327028155E+03  0.88327028155E+03  0.00000000000E+00 0. -1.
         21   -1    0    0  502  503 -0.00000000000E+00 -0.00000000000E+00 -0.94843532196E+02  0.94843532196E+02  0.00000000000E+00 0. -1.
         -6    2    1    2    0  503 -0.13109739350E+03 -0.55048665070E+02  0.81492545032E+02  0.23699408834E+03  0.17119661476E+03 0.  0.
        -24    2    3    3    0    0 -0.26204708398E+02  0.15874897318E+02  0.68900354808E+02  0.10966270830E+03  0.79623812969E+02 0.  0.
          6    2    1    2  501    0  0.13109739350E+03  0.55048665070E+02  0.70693420432E+03  0.74111972540E+03  0.17113034809E+03 0.  0.
         24    2    5    5    0    0  0.11243950905E+03  0.10254061539E+03  0.55425077275E+03  0.58006718033E+03  0.78273837304E+02 0.  0.
          5    1    5    5  501    0  0.18657884450E+02 -0.47491950321E+02  0.15268343157E+03  0.16105254507E+03  0.47000000000E+01 0. -1.
        -11    1    6    6    0    0  0.10483161599E+03  0.52097193377E+02  0.33190248492E+03  0.35194182015E+03  0.00000000000E+00 0.  1.
         12    1    6    6    0    0  0.76078930545E+01  0.50443422014E+02  0.22234828783E+03  0.22812536019E+03  0.00000000000E+00 0. -1.
         -5    1    3    3    0  503 -0.10489268510E+03 -0.70923562388E+02  0.12592190225E+02  0.12733138004E+03  0.47000000000E+01 0.  1.
         11    1    4    4    0    0 -0.13368704467E+01 -0.30430723635E+02  0.37965227794E+02  0.48674168559E+02  0.00000000000E+00 0. -1.
        -12    1    4    4    0    0 -0.24867837951E+02  0.46305620953E+02  0.30935127014E+02  0.60988539739E+02  0.00000000000E+00 0.  1.
</event>
<event>
12    1  0.8451514E-002  0.2217598E+03  0.7818608E-02  0.1132931E+00
         21   -1    0    0  503  502  0.00000000000E+00  0.00000000000E+00  0.80432411200E+02  0.80432411200E+02  0.00000000000E+00 0.  1.
         21   -1    0    0  501  503 -0.00000000000E+00 -0.00000000000E+00 -0.65391918629E+03  0.65391918629E+03  0.00000000000E+00 0. -1.
          6    2    1    2  501    0  0.78863829411E+02  0.11289278520E+03 -0.38709997043E+03  0.44612081385E+03  0.17381918451E+03 0.  0.
         24    2    3    3    0    0  0.68123489160E+02  0.70424291131E+01 -0.25864869623E+03  0.27926317203E+03  0.79989784366E+02 0.  0.
         -6    2    1    2    0  502 -0.78863829411E+02 -0.11289278520E+03 -0.18638680465E+03  0.28823078363E+03  0.17138453590E+03 0.  0.
        -24    2    5    5    0    0 -0.10233141319E+03 -0.64999391972E+02 -0.70739369889E+02  0.16079090067E+03  0.78441163948E+02 0.  0.
          5    1    3    3  501    0  0.10740340251E+02  0.10585035609E+03 -0.12845127420E+03  0.16685764183E+03  0.47000000000E+01 0. -1.
        -13    1    4    4    0    0  0.96317299538E+01 -0.15881772951E+02 -0.16770287815E+03  0.16872835053E+03  0.00000000000E+00 0.  1.
         14    1    4    4    0    0  0.58491759206E+02  0.22924202064E+02 -0.90945818086E+02  0.11053482149E+03  0.00000000000E+00 0. -1.
         -5    1    5    5    0  502  0.23467583783E+02 -0.47893393229E+02 -0.11564743476E+03  0.12743988297E+03  0.47000000000E+01 0.  1.
         13    1    6    6    0    0 -0.16057243839E+02  0.15221885893E+02  0.21941678035E+01  0.22234101336E+02  0.00000000000E+00 0. -1.
        -14    1    6    6    0    0 -0.86274169354E+02 -0.80221277866E+02 -0.72933537692E+02  0.13855679933E+03  0.00000000000E+00 0.  1.
</event>
<event>
12    1  0.8451514E-002  0.2722254E+03  0.7818608E-02  0.1100361E+00
         21   -1    0    0  503  502  0.00000000000E+00  0.00000000000E+00  0.79332685807E+03  0.79332685807E+03  0.00000000000E+00 0.  1.
         21   -1    0    0  501  503 -0.00000000000E+00 -0.00000000000E+00 -0.10438676895E+03  0.10438676895E+03  0.00000000000E+00 0.  1.
          6    2    1    2  501    0  0.23799001816E+02 -0.20627378843E+03  0.19485897698E+03  0.33477855719E+03  0.17604372515E+03 0.  0.
         24    2    3    3    0    0  0.59801093411E+02 -0.16302158274E+03  0.20203777763E+03  0.27785291205E+03  0.78935226188E+02 0.  0.
         -6    2    1    2    0  502 -0.23799001816E+02  0.20627378843E+03  0.49408111213E+03  0.56293506983E+03  0.17223379226E+03 0.  0.
        -24    2    5    5    0    0 -0.82563245476E+02  0.12810924182E+03  0.29408778029E+03  0.34026411199E+03  0.77867682992E+02 0.  0.
          5    1    3    3  501    0 -0.36002091595E+02 -0.43252205692E+02 -0.71788006453E+01  0.56925645144E+02  0.47000000000E+01 0. -1.
        -13    1    4    4    0    0  0.33860226196E+02 -0.12201842902E+03  0.88812640319E+02  0.15466963832E+03  0.00000000000E+00 0.  1.
         14    1    4    4    0    0  0.25940867215E+02 -0.41003153714E+02  0.11322513731E+03  0.12318327372E+03  0.00000000000E+00 0. -1.
         -5    1    5    5    0  502  0.58764243660E+02  0.78164546610E+02  0.19999333184E+03  0.22267095783E+03  0.47000000000E+01 0.  1.
         11    1    6    6    0    0 -0.53943819442E+02  0.61763866959E+02  0.22816902330E+03  0.24245786048E+03  0.00000000000E+00 0. -1.
        -12    1    6    6    0    0 -0.28619426033E+02  0.66345374859E+02  0.65918756991E+02  0.97806251512E+02  0.00000000000E+00 0.  1.
</event>
<event>
12    1  0.8451514E-002  0.1841485E+03  0.7818608E-02  0.1164038E+00
         21   -1    0    0  503  502  0.00000000000E+00  0.00000000000E+00  0.10196252699E+03  0.10196252699E+03  0.00000000000E+00 0.  1.
         21   -1    0    0  501  503 -0.00000000000E+00 -0.00000000000E+00 -0.34825359943E+03  0.34825359943E+03  0.00000000000E+00 0.  1.
          6    2    1    2  501    0  0.30190830741E+02 -0.55929911703E+02 -0.72951622299E+02  0.19731848149E+03  0.17196802801E+03 0.  0.
         24    2    3    3    0    0  0.21682109183E+02  0.35987165617E+02 -0.27437442424E+02  0.94290436686E+02  0.79829087780E+02 0.  0.
         -6    2    1    2    0  502 -0.30190830741E+02  0.55929911703E+02 -0.17333945014E+03  0.25289764493E+03  0.17283232497E+03 0.  0.
        -24    2    5    5    0    0 -0.75029413000E+02  0.65913478660E+02 -0.92548839102E+02  0.15984183963E+03  0.83726498750E+02 0.  0.
          5    1    3    3  501    0  0.85087215572E+01 -0.91917077320E+02 -0.45514179875E+02  0.10302804480E+03  0.47000000000E+01 0. -1.
        -13    1    4    4    0    0  0.62818829287E+01  0.38478960940E+02  0.20379211958E+02  0.43993235482E+02  0.00000000000E+00 0.  1.
         14    1    4    4    0    0  0.15400226255E+02 -0.24917953224E+01 -0.47816654382E+02  0.50297201204E+02  0.00000000000E+00 0. -1.
         -5    1    5    5    0  502  0.44838582260E+02 -0.99835669572E+01 -0.80790611039E+02  0.93055805302E+02  0.47000000000E+01 0.  1.
         13    1    6    6    0    0  0.18577694363E+02  0.90829622904E+01 -0.17436861895E+02  0.27049493241E+02  0.00000000000E+00 0. -1.
        -14    1    6    6    0    0 -0.93607107363E+02  0.56830516370E+02 -0.75111977207E+02  0.13279234639E+03  0.00000000000E+00 0.  1.
</event>
<event>
12    1  0.8451514E-002  0.1885650E+03  0.7818608E-02  0.1160587E+00
         21   -1    0    0  503  502  0.00000000000E+00  0.00000000000E+00  0.17463060865E+03  0.17463060865E+03  0.00000000000E+00 0. -1.
         21   -1    0    0  501  503 -0.00000000000E+00 -0.00000000000E+00 -0.20509197945E+03  0.20509197945E+03  0.00000000000E+00 0. -1.
          6    2    1    2  501    0 -0.58902814015E+02  0.41912787268E+02  0.15241048092E+02  0.18917993399E+03  0.17415663823E+03 0.  0.
         24    2    3    3    0    0 -0.46064506114E+02 -0.41008072525E+02  0.23690868266E+02  0.10471585523E+03  0.81243783531E+02 0.  0.
         -6    2    1    2    0  502  0.58902814015E+02 -0.41912787268E+02 -0.45702418900E+02  0.19054265411E+03  0.17026910674E+03 0.  0.
        -24    2    5    5    0    0  0.77240896505E+02 -0.62233260020E+02 -0.78021948302E+02  0.14792987595E+03  0.77179589502E+02 0.  0.
          5    1    3    3  501    0 -0.12838307901E+02  0.82920859792E+02 -0.84498201749E+01  0.84464078752E+02  0.47000000000E+01 0. -1.
        -13    1    4    4    0    0 -0.39864832032E+02 -0.53004187740E+01 -0.22438889915E+02  0.46052177503E+02  0.00000000000E+00 0.  1.
         14    1    4    4    0    0 -0.61996740812E+01 -0.35707653751E+02  0.46129758181E+02  0.58663677731E+02  0.00000000000E+00 0. -1.
         -5    1    5    5    0  502 -0.18338082490E+02  0.20320472752E+02  0.32319529403E+02  0.42612778167E+02  0.47000000000E+01 0.  1.
         13    1    6    6    0    0  0.80567546964E+01 -0.39091764385E+02 -0.61197534303E+02  0.73063092897E+02  0.00000000000E+00 0. -1.
        -14    1    6    6    0    0  0.69184141808E+02 -0.23141495634E+02 -0.16824414000E+02  0.74866783051E+02  0.00000000000E+00 0.  1.
</event>
<event>
12    1  0.8451514E-002  0.1766157E+03  0.7818608E-02  0.1171797E+00
         21   -1    0    0  503  502  0.00000000000E+00  0.00000000000E+00  0.22110186787E+02  0.22110186787E+02  0.00000000000E+00 0. -1.
         21   -1    0    0  501  503 -0.00000000000E+00 -0.00000000000E+00 -0.14008214626E+04  0.14008214626E+04  0.00000000000E+00 0. -1.
          6    2    1    2  501    0 -0.23220234392E+02 -0.24374328096E+02 -0.62990052989E+03  0.65419247042E+03  0.17337769072E+03 0.  0.
         24    2    3    3    0    0 -0.12902778673E+02  0.19328264263E+02 -0.58430578710E+03  0.59002599131E+03  0.78596145468E+02 0.  0.
         -6    2    1    2    0  502  0.23220234392E+02  0.24374328096E+02 -0.74881074591E+03  0.76873917895E+03  0.17061390599E+03 0.  0.
        -24    2    5    5    0    0  0.31298120482E+02  0.79701739456E+02 -0.49495630514E+03  0.50875736845E+03  0.80748847324E+02 0.  0.
          5    1    3    3  501    0 -0.10317455719E+02 -0.43702592358E+02 -0.45594742790E+02  0.64166479110E+02  0.47000000000E+01 0. -1.
        -11    1    4    4    0    0  0.14317650066E+02 -0.18009593027E+02 -0.37385606256E+03  0.37456334051E+03  0.00000000000E+00 0.  1.
         12    1    4    4    0    0 -0.27220428739E+02  0.37337857289E+02 -0.21044972454E+03  0.21546265079E+03  0.00000000000E+00 0. -1.
         -5    1    5    5    0  502 -0.80778860904E+01 -0.55327411360E+02 -0.25385444077E+03  0.25998181050E+03  0.47000000000E+01 0.  1.
         13    1    6    6    0    0  0.12687126122E+02  0.41518394236E+02 -0.75003639184E+02  0.86661906972E+02  0.00000000000E+00 0. -1.
        -14    1    6    6    0    0  0.18610994360E+02  0.38183345220E+02 -0.41995266595E+03  0.42209546148E+03  0.00000000000E+00 0.  1.
</event>
<event>
12    1  0.8451514E-002  0.1986882E+03  0.7818608E-02  0.1151159E+00
         21   -1    0    0  501  502  0.00000000000E+00  0.00000000000E+00  0.29258959689E+03  0.29258959689E+03  0.00000000000E+00 0. -1.
         21   -1    0    0  502  503 -0.00000000000E+00 -0.00000000000E+00 -0.13460274138E+03  0.13460274138E+03  0.00000000000E+00 0.  1.
         -6    2    1    2    0  503 -0.69390611965E+02  0.71493249789E+02  0.63772918805E+02  0.20729860747E+03  0.17023332720E+03 0.  0.
        -24    2    3    3    0    0 -0.69511913198E+02  0.48777899284E+02  0.11475114875E+03  0.15129082416E+03  0.50098880237E+02 0.  0.
          6    2    1    2  501    0  0.69390611965E+02 -0.71493249789E+02  0.94213936703E+02  0.21989373081E+03  0.17190301098E+03 0.  0.
         24    2    5    5    0    0  0.16314262109E+02 -0.12332825772E+02 -0.14267257240E+02  0.85330310355E+02  0.81605474672E+02 0.  0.
          5    1    5    5  501    0  0.53076349857E+02 -0.59160424017E+02  0.10848119394E+03  0.13456342045E+03  0.47000000000E+01 0. -1.
        -11    1    6    6    0    0 -0.29666071646E+02  0.11218127393E+02 -0.10987253801E+02  0.33565487263E+02  0.00000000000E+00 0.  1.
         12    1    6    6    0    0  0.45980333755E+02 -0.23550953165E+02 -0.32800034392E+01  0.51764823092E+02  0.00000000000E+00 0. -1.
         -5    1    3    3    0  503  0.12130123276E+00  0.22715350504E+02 -0.50978229945E+02  0.56007783306E+02  0.47000000000E+01 0.  1.
         13    1    4    4    0    0 -0.10938781785E+01  0.13849999529E+02  0.46505842127E+02  0.48536711965E+02  0.00000000000E+00 0. -1.
        -14    1    4    4    0    0 -0.68418035020E+02  0.34927899755E+02  0.68245306623E+02  0.10275411220E+03  0.00000000000E+00 0.  1.
</event>
<event>
12    1  0.8451514E-002  0.2642906E+03  0.7818608E-02  0.1104860E+00
         21   -1    0    0  501  502  0.00000000000E+00  0.00000000000E+00  0.74444847610E+02  0.74444847610E+02  0.00000000000E+00 0.  1.
         21   -1    0    0  502  503 -0.00000000000E+00 -0.00000000000E+00 -0.10375691834E+04  0.10375691834E+04  0.00000000000E+00 0.  1.
         -6    2    1    2    0  503 -0.55909319837E+02  0.19201232793E+03 -0.65755975251E+03  0.70801001774E+03  0.16999638521E+03 0.  0.
        -24    2    3    3    0    0  0.21716494223E+02  0.10057537296E+03 -0.42341541343E+03  0.44488999709E+03  0.89774636839E+02 0.  0.
          6    2    1    2  501    0  0.55909319837E+02 -0.19201232793E+03 -0.30556458328E+03  0.40400401327E+03  0.17278582713E+03 0.  0.
         24    2    5    5    0    0 -0.89985097596E+01 -0.13411610361E+03 -0.11252651971E+03  0.19222397851E+03  0.78865314625E+02 0.  0.
          5    1    5    5  501    0  0.64907829596E+02 -0.57896224324E+02 -0.19303806357E+03  0.21178003476E+03  0.47000000000E+01 0. -1.
        -13    1    6    6    0    0  0.24684694036E+02 -0.10039469109E+03 -0.97862414495E+02  0.14235687651E+03  0.00000000000E+00 0.  1.
         14    1    6    6    0    0 -0.33683203795E+02 -0.33721412519E+02 -0.14664105216E+02  0.49867102001E+02  0.00000000000E+00 0. -1.
         -5    1    3    3    0  503 -0.77625814060E+02  0.91436954976E+02 -0.23414433908E+03  0.26312002065E+03  0.47000000000E+01 0.  1.
         11    1    4    4    0    0 -0.74769731879E+01 -0.13962704586E+02 -0.84049345379E+02  0.85528677682E+02  0.00000000000E+00 0. -1.
        -12    1    4    4    0    0  0.29193467411E+02  0.11453807754E+03 -0.33936606805E+03  0.35936131941E+03  0.00000000000E+00 0.  1.
</event>
<event>
12    1  0.8451514E-002  0.1808680E+03  0.7818608E-02  0.1170272E+00
         21   -1    0    0  503  502  0.00000000000E+00  0.00000000000E+00  0.16170193801E+03  0.16170193801E+03  0.00000000000E+00 0. -1.
         21   -1    0    0  501  503 -0.00000000000E+00 -0.00000000000E+00 -0.21439462495E+03  0.21439462495E+03  0.00000000000E+00 0. -1.
          6    2    1    2  501    0 -0.61486230323E+02  0.10537770711E+02 -0.93403209362E+02  0.20356174533E+03  0.16976932441E+03 0.  0.
         24    2    3    3    0    0 -0.42160138721E+02 -0.38517984590E+02 -0.11151683114E+03  0.14761392822E+03  0.78056106377E+02 0.  0.
         -6    2    1    2    0  502  0.61486230323E+02 -0.10537770711E+02  0.40710522424E+02  0.17253481764E+03  0.15562556195E+03 0.  0.
        -24    2    5    5    0    0  0.12553922772E+02 -0.22333655733E+02 -0.11497664571E+02  0.99862275266E+02  0.95832586187E+02 0.  0.
          5    1    3    3  501    0 -0.19326091602E+02  0.49055755301E+02  0.18113621782E+02  0.55947817105E+02  0.47000000000E+01 0. -1.
        -11    1    4    4    0    0 -0.11359369038E+02  0.18647795036E+02 -0.62647981423E+02  0.66344141422E+02  0.00000000000E+00 0.  1.
         12    1    4    4    0    0 -0.30800769683E+02 -0.57165779626E+02 -0.48868849721E+02  0.81269786799E+02  0.00000000000E+00 0. -1.
         -5    1    5    5    0  502  0.48932307551E+02  0.11795885023E+02  0.52208186996E+02  0.72672542374E+02  0.47000000000E+01 0.  1.
         11    1    6    6    0    0  0.54568078378E+02 -0.13052245828E+02 -0.47331726602E+01  0.56306653448E+02  0.00000000000E+00 0. -1.
        -12    1    6    6    0    0 -0.42014155606E+02 -0.92814099050E+01 -0.67644919113E+01  0.43555621818E+02  0.00000000000E+00 0.  1.
</event>
<event>
12    1  0.8451514E-002  0.1718987E+03  0.7818608E-02  0.1176563E+00
         21   -1    0    0  501  502  0.00000000000E+00  0.00000000000E+00  0.54637944634E+02  0.54637944634E+02  0.00000000000E+00 0. -1.
         21   -1    0    0  502  503 -0.00000000000E+00 -0.00000000000E+00 -0.18774114870E+04  0.18774114870E+04  0.00000000000E+00 0. -1.
         -6    2    1    2    0  503  0.72113631122E+01 -0.69061691491E+00 -0.17309713358E+04  0.17394858229E+04  0.17174598067E+03 0.  0.
        -24    2    3    3    0    0 -0.40331696702E+02 -0.30630524175E+02 -0.14579417795E+04  0.14606956344E+04  0.73977220191E+02 0.  0.
          6    2    1    2  501    0 -0.72113631122E+01  0.69061691491E+00 -0.91802206561E+02  0.19256360876E+03  0.16911717116E+03 0.  0.
         24    2    5    5    0    0  0.14985974609E+02  0.59746142073E+02 -0.82960836258E+02  0.12868453017E+03  0.76700893243E+02 0.  0.
          5    1    5    5  501    0 -0.22197337721E+02 -0.59055525158E+02 -0.88413703034E+01  0.63879078597E+02  0.47000000000E+01 0. -1.
        -11    1    6    6    0    0 -0.26344183132E+02  0.42603411484E+02 -0.60728768459E+02  0.78721343825E+02  0.00000000000E+00 0.  1.
         12    1    6    6    0    0  0.41330157741E+02  0.17142730589E+02 -0.22232067799E+02  0.49963186343E+02  0.00000000000E+00 0. -1.
         -5    1    3    3    0  503  0.47543059815E+02  0.29939907260E+02 -0.27302955627E+03  0.27879018846E+03  0.47000000000E+01 0.  1.
         11    1    4    4    0    0  0.55006306014E+01  0.10792679365E+01 -0.89172131518E+03  0.89173893361E+03  0.00000000000E+00 0. -1.
        -12    1    4    4    0    0 -0.45832327304E+02 -0.31709792111E+02 -0.56622046434E+03  0.56895670080E+03  0.00000000000E+00 0.  1.
</event>
<event>
12    1  0.8451514E-002  0.2384657E+03  0.7818608E-02  0.1121379E+00
         21   -1    0    0  501  502  0.00000000000E+00  0.00000000000E+00  0.98274679234E+03  0.98274679234E+03  0.00000000000E+00 0. -1.
         21   -1    0    0  502  503 -0.00000000000E+00 -0.00000000000E+00 -0.10616787404E+03  0.10616787404E+03  0.00000000000E+00 0.  1.
         -6    2    1    2    0  503 -0.15490874264E+03  0.60305744708E+02  0.66374832417E+02  0.24434581008E+03  0.16633025922E+03 0.  0.
        -24    2    3    3    0    0 -0.15451747555E+03  0.92142935052E+02  0.36056685955E+02  0.20012997825E+03  0.79912157169E+02 0.  0.
          6    2    1    2  501    0  0.15490874264E+03 -0.60305744708E+02  0.81020408589E+03  0.84456885630E+03  0.17097482519E+03 0.  0.
         24    2    5    5    0    0  0.54731278136E+02  0.18047030383E+02  0.25288100906E+03  0.27289956053E+03  0.84877307231E+02 0.  0.
          5    1    5    5  501    0  0.10017746451E+03 -0.78352775090E+02  0.55732307682E+03  0.57166929576E+03  0.47000000000E+01 0. -1.
        -11    1    6    6    0    0  0.40240067705E+02  0.24398228436E+02  0.25273311105E+03  0.25707695739E+03  0.00000000000E+00 0.  1.
         12    1    6    6    0    0  0.14491210432E+02 -0.63511980532E+01  0.14789801442E+00  0.15822603146E+02  0.00000000000E+00 0. -1.
         -5    1    3    3    0  503 -0.39126709230E+00 -0.31837190344E+02  0.30318146463E+02  0.44215831824E+02  0.47000000000E+01 0.  1.
         11    1    4    4    0    0 -0.44425098440E+02  0.66605197917E+02  0.34303321637E+02  0.87100858987E+02  0.00000000000E+00 0. -1.
        -12    1    4    4    0    0 -0.11009237711E+03  0.25537737135E+02  0.17533643178E+01  0.11302911927E+03  0.00000000000E+00 0.  1.
</event>
<event>
12    1  0.8451514E-002  0.2235497E+03  0.7818608E-02  0.1131562E+00
         21   -1    0    0  501  502  0.00000000000E+00  0.00000000000E+00  0.13123476323E+03  0.13123476323E+03  0.00000000000E+00 0.  1.
         21   -1    0    0  502  503 -0.00000000000E+00 -0.00000000000E+00 -0.78701948711E+03  0.78701948711E+03  0.00000000000E+00 0. -1.
         -6    2    1    2    0  503 -0.34776579632E+02  0.13653003879E+03 -0.65943824810E+03  0.69629970441E+03  0.17356443567E+03 0.  0.
        -24    2    3    3    0    0 -0.11004522028E+02  0.15604325894E+03 -0.42254142099E+03  0.45736859891E+03  0.78575980124E+02 0.  0.
          6    2    1    2  501    0  0.34776579632E+02 -0.13653003879E+03  0.36535242178E+01  0.22195454593E+03  0.17146606147E+03 0.  0.
         24    2    5    5    0    0  0.59432569974E+02 -0.15757668812E+03 -0.77636749277E+01  0.18726561767E+03  0.81519898790E+02 0.  0.
          5    1    5    5  501    0 -0.24655990342E+02  0.21046649331E+02  0.11417199145E+02  0.34688928264E+02  0.47000000000E+01 0. -1.
        -13    1    6    6    0    0  0.33787003300E+02 -0.94543396242E+02 -0.44628228886E+02  0.10987126184E+03  0.00000000000E+00 0.  1.
         14    1    6    6    0    0  0.25645566674E+02 -0.63033291879E+02  0.36864553958E+02  0.77394355826E+02  0.00000000000E+00 0. -1.
         -5    1    3    3    0  503 -0.23772057604E+02 -0.19513220145E+02 -0.23689682711E+03  0.23893110550E+03  0.47000000000E+01 0.  1.
         11    1    4    4    0    0  0.31882744104E+02  0.43323099940E+02 -0.14931888746E+03  0.15871209945E+03  0.00000000000E+00 0. -1.
        -12    1    4    4    0    0 -0.42887266132E+02  0.11272015900E+03 -0.27322253353E+03  0.29865649946E+03  0.00000000000E+00 0.  1.
</event>
<event>
12    1  0.8451514E-002  0.2207501E+03  0.7818608E-02  0.1134033E+00
         21   -1    0    0  503  502  0.00000000000E+00  0.00000000000E+00  0.60250456618E+02  0.60250456618E+02  0.00000000000E+00 0.  1.
         21   -1    0    0  501  503 -0.00000000000E+00 -0.00000000000E+00 -0.84147873669E+03  0.84147873669E+03  0.00000000000E+00 0.  1.
          6    2    1    2  501    0  0.11274726478E+03 -0.68658334127E+02 -0.28148335130E+03  0.35539999187E+03  0.17219281228E+03 0.  0.
         24    2    3    3    0    0  0.46142490931E+01 -0.34335202728E+02 -0.19149741138E+03  0.21051940030E+03  0.80292975371E+02 0.  0.
         -6    2    1    2    0  502 -0.11274726478E+03  0.68658334127E+02 -0.49974492877E+03  0.54632920144E+03  0.17693131421E+03 0.  0.
        -24    2    5    5    0    0 -0.10488540558E+03  0.72251796135E+02 -0.21880009436E+03  0.26521212301E+03  0.79010876161E+02 0.  0.
          5    1    3    3  501    0  0.10813301569E+03 -0.34323131399E+02 -0.89985939914E+02  0.14488059157E+03  0.47000000000E+01 0. -1.
        -13    1    4    4    0    0  0.25254041983E+02 -0.25454134831E+02 -0.28022671875E+02  0.45507688971E+02  0.00000000000E+00 0.  1.
         14    1    4    4    0    0 -0.20639792890E+02 -0.88810678965E+01 -0.16347473951E+03  0.16501171132E+03  0.00000000000E+00 0. -1.
         -5    1    5    5    0  502 -0.78618592006E+01 -0.35934620081E+01 -0.28094483442E+03  0.28111707843E+03  0.47000000000E+01 0.  1.
         11    1    6    6    0    0  0.57468020484E+01 -0.82810384413E+00 -0.51098102696E+02  0.51426915024E+02  0.00000000000E+00 0. -1.
        -12    1    6    6    0    0 -0.11063220763E+03  0.73079899979E+02 -0.16770199166E+03  0.21378520798E+03  0.00000000000E+00 0.  1.
</event>
<event>
12    1  0.8451514E-002  0.1996229E+03  0.7818608E-02  0.1150067E+00
         21   -1    0    0  503  502  0.00000000000E+00  0.00000000000E+00  0.11278045188E+04  0.11278045188E+04  0.00000000000E+00 0. -1.
         21   -1    0    0  501  503 -0.00000000000E+00 -0.00000000000E+00 -0.40588180891E+02  0.40588180891E+02  0.00000000000E+00 0. -1.
          6    2    1    2  501    0 -0.46209315218E+02 -0.89683227731E+02  0.33330092264E+03  0.38850844479E+03  0.17225250212E+03 0.  0.
         24    2    3    3    0    0 -0.89611653455E+02 -0.91092182807E+02  0.21449373399E+03  0.26192651008E+03  0.79182703654E+02 0.  0.
         -6    2    1    2    0  502  0.46209315218E+02  0.89683227731E+02  0.75391541524E+03  0.77988425488E+03  0.17219934820E+03 0.  0.
        -24    2    5    5    0    0  0.36757040250E+02  0.40992486678E+02  0.16710025522E+03  0.19095789633E+03  0.74235833011E+02 0.  0.
          5    1    3    3  501    0  0.43402338236E+02  0.14089550755E+01  0.11880718865E+03  0.12658193471E+03  0.47000000000E+01 0. -1.
        -13    1    4    4    0    0 -0.47491774142E+00 -0.37568080882E+02  0.10221523305E+03  0.10890151567E+03  0.00000000000E+00 0.  1.
         14    1    4    4    0    0 -0.89136735713E+02 -0.53524101924E+02  0.11227850094E+03  0.15302499441E+03  0.00000000000E+00 0. -1.
         -5    1    5    5    0  502  0.94522749682E+01  0.48690741053E+02  0.58681516002E+03  0.58892635855E+03  0.47000000000E+01 0.  1.
         11    1    6    6    0    0  0.18991816943E+02 -0.15691620013E+02  0.91795805782E+02  0.95044126639E+02  0.00000000000E+00 0. -1.
        -12    1    6    6    0    0  0.17765223307E+02  0.56684106691E+02  0.75304449438E+02  0.95913769688E+02  0.00000000000E+00 0.  1.
</event>
<event>
12    1  0.8451514E-002  0.1878441E+03  0.7818608E-02  0.1160571E+00
         21   -1    0    0  501  502  0.00000000000E+00  0.00000000000E+00  0.26101303149E+03  0.26101303149E+03  0.00000000000E+00 0.  1.
         21   -1    0    0  502  503 -0.00000000000E+00 -0.00000000000E+00 -0.16202679454E+03  0.16202679454E+03  0.00000000000E+00 0.  1.
         -6    2    1    2    0  503  0.31623618675E+02 -0.69014612546E+02 -0.37425898773E+02  0.19088968386E+03  0.17109968878E+03 0.  0.
        -24    2    3    3    0    0  0.73318830614E+01  0.24165371993E+02  0.23371402843E+02  0.76911616572E+02  0.68785555025E+02 0.  0.
          6    2    1    2  501    0 -0.31623618675E+02  0.69014612546E+02  0.13641213573E+03  0.23215014218E+03  0.17182068483E+03 0.  0.
         24    2    5    5    0    0 -0.13666723576E+02  0.34381707619E+02  0.82311925425E+01  0.98081755221E+02  0.90462130333E+02 0.  0.
          5    1    5    5  501    0 -0.17956895099E+02  0.34632904927E+02  0.12818094318E+03  0.13406838695E+03  0.47000000000E+01 0. -1.
        -13    1    6    6    0    0 -0.16999767848E+02  0.33304222070E+02  0.46490855572E+02  0.59662073098E+02  0.00000000000E+00 0.  1.
         14    1    6    6    0    0  0.33330442713E+01  0.10774855496E+01 -0.38259663030E+02  0.38419682122E+02  0.00000000000E+00 0. -1.
         -5    1    3    3    0  503  0.24291735614E+02 -0.93179984539E+02 -0.60797301616E+02  0.11397806728E+03  0.47000000000E+01 0.  1.
         13    1    4    4    0    0 -0.24250924025E+01 -0.11032481249E+02  0.36415430571E+02  0.38127159603E+02  0.00000000000E+00 0. -1.
        -14    1    4    4    0    0  0.97569754640E+01  0.35197853242E+02 -0.13044027728E+02  0.38784456969E+02  0.00000000000E+00 0.  1.
</event>
<event>
12    1  0.8451514E-002  0.2326258E+03  0.7818608E-02  0.1125552E+00
         21   -1    0    0  501  502  0.00000000000E+00  0.00000000000E+00  0.39869550181E+03  0.39869550181E+03  0.00000000000E+00 0. -1.
         21   -1    0    0  502  503 -0.00000000000E+00 -0.00000000000E+00 -0.23278568996E+03  0.23278568996E+03  0.00000000000E+00 0. -1.
         -6    2    1    2    0  503  0.14033009116E+03  0.54793779848E+02 -0.12394132000E+03  0.25982482061E+03  0.17161758011E+03 0.  0.
        -24    2    3    3    0    0  0.75711319667E+02 -0.30428055764E+02 -0.31929753526E+02  0.11866333414E+03  0.80021292207E+02 0.  0.
          6    2    1    2  501    0 -0.14033009116E+03 -0.54793779848E+02  0.28985113185E+03  0.37165637117E+03  0.17725655644E+03 0.  0.
         24    2    5    5    0    0 -0.28008711756E+01 -0.26058159300E+01  0.63021396553E+02  0.10126463915E+03  0.79171936714E+02 0.  0.
          5    1    5    5  501    0 -0.13752921998E+03 -0.52187963918E+02  0.22682973530E+03  0.27039173202E+03  0.47000000000E+01 0. -1.
        -11    1    6    6    0    0  0.10935591051E+02 -0.38577653939E+02  0.25613119954E+02  0.47579979496E+02  0.00000000000E+00 0.  1.
         12    1    6    6    0    0 -0.13736462227E+02  0.35971838009E+02  0.37408276599E+02  0.53684659656E+02  0.00000000000E+00 0. -1.
         -5    1    3    3    0  503  0.64618771493E+02  0.85221835612E+02 -0.92011566479E+02  0.14116148646E+03  0.47000000000E+01 0.  1.
         11    1    4    4    0    0  0.47067256141E+02  0.17948648355E+02  0.61684821874E+01  0.50749687200E+02  0.00000000000E+00 0. -1.
        -12    1    4    4    0    0  0.28644063526E+02 -0.48376704119E+02 -0.38098235714E+02  0.67913646944E+02  0.00000000000E+00 0.  1.
</event>
<event>
12    1  0.8451514E-002  0.2743828E+03  0.7818608E-02  0.1098981E+00
         21   -1    0    0  503  502  0.00000000000E+00  0.00000000000E+00  0.18259945812E+03  0.18259945812E+03  0.00000000000E+00 0. -1.
         21   -1    0    0  501  503 -0.00000000000E+00 -0.00000000000E+00 -0.87472442929E+03  0.87472442929E+03  0.00000000000E+00 0. -1.
          6    2    1    2  501    0  0.16931296166E+03  0.13038438275E+03 -0.73087070526E+03  0.78021893468E+03  0.17000774090E+03 0.  0.
         24    2    3    3    0    0  0.63875105000E+02  0.88793948067E+02 -0.23191151652E+03  0.26852638254E+03  0.79743792089E+02 0.  0.
         -6    2    1    2    0  502 -0.16931296166E+03 -0.13038438275E+03  0.38745734099E+02  0.27710495273E+03  0.17210158821E+03 0.  0.
        -24    2    5    5    0    0 -0.87940438976E+02 -0.31809740089E+02  0.75229127120E+02  0.14409527041E+03  0.79741112459E+02 0.  0.
          5    1    3    3  501    0  0.10543785666E+03  0.41590434682E+02 -0.49895918875E+03  0.51169255213E+03  0.47000000000E+01 0. -1.
        -13    1    4    4    0    0 -0.20893268892E+01  0.36571702355E+02 -0.13644807372E+03  0.14127962175E+03  0.00000000000E+00 0.  1.
         14    1    4    4    0    0  0.65964431890E+02  0.52222245712E+02 -0.95463442795E+02  0.12724676079E+03  0.00000000000E+00 0. -1.
         -5    1    5    5    0  502 -0.81372522681E+02 -0.98574642660E+02 -0.36483393021E+02  0.13300968231E+03  0.47000000000E+01 0.  1.
         13    1    6    6    0    0 -0.93737743060E+02 -0.21781946835E+02  0.35275864518E+02  0.10249685019E+03  0.00000000000E+00 0. -1.
        -14    1    6    6    0    0  0.57973040846E+01 -0.10027793254E+02  0.39953262602E+02  0.41598420219E+02  0.00000000000E+00 0.  1.
</event>
<event>
12    1  0.8451514E-002  0.1955061E+03  0.7818608E-02  0.1154561E+00
         21   -1    0    0  503  502  0.00000000000E+00  0.00000000000E+00  0.59675189029E+03  0.59675189029E+03  0.00000000000E+00 0.  1.
         21   -1    0    0  501  503 -0.00000000000E+00 -0.00000000000E+00 -0.12981387173E+03  0.12981387173E+03  0.00000000000E+00 0.  1.
          6    2    1    2  501    0  0.81204110465E+02  0.97749322032E+01 -0.29200887236E+02  0.19329617743E+03  0.17268776313E+03 0.  0.
         24    2    3    3    0    0  0.46313166798E+02  0.40970553533E+02 -0.82170464441E+02  0.12245543456E+03  0.66481971630E+02 0.  0.
         -6    2    1    2    0  502 -0.81204110465E+02 -0.97749322032E+01  0.49613890579E+03  0.53326958459E+03  0.17757527742E+03 0.  0.
        -24    2    5    5    0    0 -0.29519868221E+02  0.25351801551E+02  0.10717531460E+03  0.13928999934E+03  0.80006370961E+02 0.  0.
          5    1    3    3  501    0  0.34890943668E+02 -0.31195621329E+02  0.52969577205E+02  0.70840742863E+02  0.47000000000E+01 0. -1.
        -11    1    4    4    0    0  0.40259761394E+02 -0.81806004542E+01 -0.33354004361E+02  0.52917484995E+02  0.00000000000E+00 0.  1.
         12    1    4    4    0    0  0.60534054032E+01  0.49151153987E+02 -0.48816460080E+02  0.69537949567E+02  0.00000000000E+00 0. -1.
         -5    1    5    5    0  502 -0.51684242244E+02 -0.35126733754E+02  0.38896359120E+03  0.39397958525E+03  0.47000000000E+01 0.  1.
         11    1    6    6    0    0  0.65169433720E+01 -0.71505971833E+01 -0.91074243233E+01  0.13287090306E+02  0.00000000000E+00 0. -1.
        -12    1    6    6    0    0 -0.36036811593E+02  0.32502398735E+02  0.11628273892E+03  0.12600290903E+03  0.00000000000E+00 0.  1.
</event>
<event>
12    1  0.8451514E-002  0.1837644E+03  0.7818608E-02  0.1164849E+00
         21   -1    0    0  501  502  0.00000000000E+00  0.00000000000E+00  0.87245894097E+02  0.87245894097E+02  0.00000000000E+00 0. -1.
         21   -1    0    0  502  503 -0.00000000000E+00 -0.00000000000E+00 -0.38601356445E+03  0.38601356445E+03  0.00000000000E+00 0. -1.
         -6    2    1    2    0  503 -0.35306958290E+02 -0.46117930211E+02 -0.12242739825E+03  0.21857291079E+03  0.17149986792E+03 0.  0.
        -24    2    3    3    0    0 -0.70790430548E+02  0.17657565492E+02 -0.75170058843E+02  0.13149974165E+03  0.79489430938E+02 0.  0.
          6    2    1    2  501    0  0.35306958290E+02  0.46117930211E+02 -0.17634027210E+03  0.25468654776E+03  0.17434420339E+03 0.  0.
         24    2    5    5    0    0 -0.22535283415E+02  0.61797408285E+02 -0.47179053835E+02  0.11222153008E+03  0.77724192012E+02 0.  0.
          5    1    5    5  501    0  0.57842241706E+02 -0.15679478075E+02 -0.12916121826E+03  0.14246501768E+03  0.47000000000E+01 0. -1.
        -11    1    6    6    0    0 -0.19506226647E+02 -0.12493152939E+02  0.17245580438E+01  0.23228126244E+02  0.00000000000E+00 0.  1.
         12    1    6    6    0    0 -0.30290567682E+01  0.74290561224E+02 -0.48903611879E+02  0.88993403838E+02  0.00000000000E+00 0. -1.
         -5    1    3    3    0  503  0.35483472258E+02 -0.63775495702E+02 -0.47257339408E+02  0.87073169137E+02  0.47000000000E+01 0.  1.
         11    1    4    4    0    0 -0.33059698747E+02 -0.30511898345E+02 -0.20468094737E+02  0.49425322700E+02  0.00000000000E+00 0. -1.
        -12    1    4    4    0    0 -0.37730731801E+02  0.48169463837E+02 -0.54701964106E+02  0.82074418948E+02  0.00000000000E+00 0.  1.
</event>
<event>
12    1  0.8451514E-002  0.1948736E+03  0.7818608E-02  0.1154332E+00
         21   -1    0    0  503  502  0.00000000000E+00  0.00000000000E+00  0.60154283901E+03  0.60154283901E+03  0.00000000000E+00 0.  1.
         21   -1    0    0  501  503 -0.00000000000E+00 -0.00000000000E+00 -0.62937453827E+02  0.62937453827E+02  0.00000000000E+00 0. -1.
          6    2    1    2  501    0  0.73260987155E+02  0.52817117667E+02  0.25704142602E+03  0.32256161798E+03  0.17268144817E+03 0.  0.
         24    2    3    3    0    0  0.45353726605E+02  0.86515670169E+02  0.10301624709E+03  0.16237343684E+03  0.78809035802E+02 0.  0.
         -6    2    1    2    0  502 -0.73260987155E+02 -0.52817117667E+02  0.28156395916E+03  0.34191867485E+03  0.17167788722E+03 0.  0.
        -24    2    5    5    0    0  0.18552131111E+02 -0.62044704896E+02  0.13683538723E+03  0.17021181249E+03  0.77810095348E+02 0.  0.
          5    1    3    3  501    0  0.27907260550E+02 -0.33698552502E+02  0.15402517893E+03  0.16018818114E+03  0.47000000000E+01 0. -1.
        -11    1    4    4    0    0  0.63281051532E+02  0.38558042239E+02  0.65491391809E+02  0.98895583852E+02  0.00000000000E+00 0.  1.
         12    1    4    4    0    0 -0.17927324927E+02  0.47957627930E+02  0.37524855280E+02  0.63477852985E+02  0.00000000000E+00 0. -1.
         -5    1    5    5    0  502 -0.91813118266E+02  0.92275872285E+01  0.14472857192E+03  0.17170686236E+03  0.47000000000E+01 0.  1.
         11    1    6    6    0    0 -0.61489074992E+01 -0.59959493000E+02  0.13178372011E+03  0.14491341812E+03  0.00000000000E+00 0. -1.
        -12    1    6    6    0    0  0.24701038610E+02 -0.20852118958E+01  0.50516671192E+01  0.25298394371E+02  0.00000000000E+00 0.  1.
</event>
<event>
12    1  0.8451514E-002  0.2240215E+03  0.7818608E-02  0.1131677E+00
         21   -1    0    0  503  502  0.00000000000E+00  0.00000000000E+00  0.19001758070E+03  0.19001758070E+03  0.00000000000E+00 0.  1.
         21   -1    0    0  501  503 -0.00000000000E+00 -0.00000000000E+00 -0.27466647609E+03  0.27466647609E+03  0.00000000000E+00 0. -1.
          6    2    1    2  501    0  0.31359258960E+02  0.14043872978E+03 -0.96947455946E+02  0.24032526362E+03  0.16628584779E+03 0.  0.
         24    2    3    3    0    0  0.72726392024E+02  0.10055661815E+03 -0.29467455211E+02  0.15157019038E+03  0.81880584672E+02 0.  0.
         -6    2    1    2    0  502 -0.31359258960E+02 -0.14043872978E+03  0.12298560556E+02  0.22435879317E+03  0.17169500149E+03 0.  0.
        -24    2    5    5    0    0 -0.77391904900E+02 -0.11320546740E+03  0.41402736948E+02  0.16328671972E+03  0.78379725803E+02 0.  0.
          5    1    3    3  501    0 -0.41367133064E+02  0.39882111629E+02 -0.67480000735E+02  0.88755073236E+02  0.47000000000E+01 0. -1.
        -13    1    4    4    0    0 -0.94906277594E+00  0.21200952095E+01  0.19195778833E+02  0.19335807427E+02  0.00000000000E+00 0.  1.
         14    1    4    4    0    0  0.73675454800E+02  0.98436522939E+02 -0.48663234045E+02  0.13223438296E+03  0.00000000000E+00 0. -1.
         -5    1    5    5    0  502  0.46032645940E+02 -0.27233262380E+02 -0.29104176392E+02  0.61072073451E+02  0.47000000000E+01 0.  1.
         13    1    6    6    0    0 -0.69967426899E+01  0.82888401623E+01  0.17883108413E+02  0.20915660305E+02  0.00000000000E+00 0. -1.
        -14    1    6    6    0    0 -0.70395162210E+02 -0.12149430756E+03  0.23519628535E+02  0.14237105941E+03  0.00000000000E+00 0.  1.
</event>
<event>
12    1  0.8451514E-002  0.1867310E+03  0.7818608E-02  0.1163226E+00
         21   -1    0    0  503  502  0.00000000000E+00  0.00000000000E+00  0.70640735926E+02  0.70640735926E+02  0.00000000000E+00 0. -1.
         21   -1    0    0  501  503 -0.00000000000E+00 -0.00000000000E+00 -0.53509490107E+03  0.53509490107E+03  0.00000000000E+00 0. -1.
          6    2    1    2  501    0 -0.20459398492E+02 -0.41292881140E+02 -0.33894152276E+03  0.38697522426E+03  0.18095518594E+03 0.  0.
         24    2    3    3    0    0 -0.15821835882E+02  0.49053085804E+02 -0.19927948268E+03  0.22050758125E+03  0.79086948687E+02 0.  0.
         -6    2    1    2    0  502  0.20459398492E+02  0.41292881140E+02 -0.12551264238E+03  0.21876041273E+03  0.17314446501E+03 0.  0.
        -24    2    5    5    0    0  0.41356788755E+02  0.84081848168E+02 -0.11629095932E+03  0.17002925168E+03  0.81278644423E+02 0.  0.
          5    1    3    3  501    0 -0.46375626106E+01 -0.90345966944E+02 -0.13966204008E+03  0.16646764301E+03  0.47000000000E+01 0. -1.
        -11    1    4    4    0    0  0.21827686949E+02  0.37953125318E+01 -0.11849363117E+03  0.12054705696E+03  0.00000000000E+00 0.  1.
         12    1    4    4    0    0 -0.37649522831E+02  0.45257773272E+02 -0.80785851516E+02  0.99960524288E+02  0.00000000000E+00 0. -1.
         -5    1    5    5    0  502 -0.20897390262E+02 -0.42788967028E+02 -0.92216830552E+01  0.48731161052E+02  0.47000000000E+01 0.  1.
         13    1    6    6    0    0  0.35213588941E+02  0.74560130530E+02 -0.12893716035E+03  0.15304901578E+03  0.00000000000E+00 0. -1.
        -14    1    6    6    0    0  0.61431998136E+01  0.95217176380E+01  0.12646201032E+02  0.16980235901E+02  0.00000000000E+00 0.  1.
</event>
<event>
12    1  0.8451514E-002  0.2985447E+03  0.7818608E-02  0.1085987E+00
         21   -1    0    0  501  502  0.00000000000E+00  0.00000000000E+00  0.10265913441E+04  0.10265913441E+04  0.00000000000E+00 0.  1.
         21   -1    0    0  502  503 -0.00000000000E+00 -0.00000000000E+00 -0.95215546565E+02  0.95215546565E+02  0.00000000000E+00 0.  1.
         -6    2    1    2    0  503  0.20048497384E+03 -0.13946169142E+03  0.29884295519E+03  0.42241691036E+03  0.17171239378E+03 0.  0.
        -24    2    3    3    0    0  0.14017136635E+03 -0.61911100120E+02  0.10035979342E+03  0.20090058823E+03  0.82510374836E+02 0.  0.
          6    2    1    2  501    0 -0.20048497384E+03  0.13946169142E+03  0.63253284232E+03  0.69938998028E+03  0.17147816127E+03 0.  0.
         24    2    5    5    0    0 -0.21901755667E+03  0.13681500391E+03  0.53148116102E+03  0.59651144086E+03  0.81649489432E+02 0.  0.
          5    1    5    5  501    0  0.18532582832E+02  0.26466875143E+01  0.10105168129E+03  0.10287853942E+03  0.47000000000E+01 0. -1.
        -11    1    6    6    0    0 -0.15028116979E+03  0.87213207113E+02  0.43307762983E+03  0.46663348245E+03  0.00000000000E+00 0.  1.
         12    1    6    6    0    0 -0.68736386888E+02  0.49601796796E+02  0.98403531193E+02  0.12987795840E+03  0.00000000000E+00 0. -1.
         -5    1    3    3    0  503  0.60313607491E+02 -0.77550591303E+02  0.19848316177E+03  0.22151632212E+03  0.47000000000E+01 0.  1.
         11    1    4    4    0    0  0.12228354311E+03 -0.21194280212E+02  0.94613078680E+02  0.15605799270E+03  0.00000000000E+00 0. -1.
        -12    1    4    4    0    0  0.17887823241E+02 -0.40716819908E+02  0.57467147372E+01  0.44842595531E+02  0.00000000000E+00 0.  1.
</event>
<event>
12    1  0.8451514E-002  0.3006086E+03  0.7818608E-02  0.1085037E+00
         21   -1    0    0  501  502  0.00000000000E+00  0.00000000000E+00  0.91721655159E+02  0.91721655159E+02  0.00000000000E+00 0. -1.
         21   -1    0    0  502  503 -0.00000000000E+00 -0.00000000000E+00 -0.14343123276E+04  0.14343123276E+04  0.00000000000E+00 0.  1.
         -6    2    1    2    0  503  0.21745897331E+03 -0.11516662851E+03 -0.11001220585E+04  0.11404534418E+04  0.17266659181E+03 0.  0.
        -24    2    3    3    0    0  0.23769225805E+03 -0.11016642290E+03 -0.94527190557E+03  0.98413630350E+03  0.79693400753E+02 0.  0.
          6    2    1    2  501    0 -0.21745897331E+03  0.11516662851E+03 -0.24246861394E+03  0.38558054095E+03  0.17125877326E+03 0.  0.
         24    2    5    5    0    0 -0.20490825534E+03  0.14238140004E+03 -0.24009305008E+03  0.35515197517E+03  0.78920191292E+02 0.  0.
          5    1    5    5  501    0 -0.12550717978E+02 -0.27214771535E+02 -0.23755638592E+01  0.30428565774E+02  0.47000000000E+01 0. -1.
        -13    1    6    6    0    0 -0.19505217933E+03  0.13095917730E+03 -0.18793991600E+03  0.30086055043E+03  0.00000000000E+00 0.  1.
         14    1    6    6    0    0 -0.98560760068E+01  0.11422222744E+02 -0.52153134080E+02  0.54291424747E+02  0.00000000000E+00 0. -1.
         -5    1    3    3    0  503 -0.20233284735E+02 -0.50002056071E+01 -0.15485015291E+03  0.15631713829E+03  0.47000000000E+01 0.  1.
         13    1    4    4    0    0  0.11686004832E+03 -0.39529707049E+02 -0.31034400396E+03  0.33396447330E+03  0.00000000000E+00 0. -1.
        -14    1    4    4    0    0  0.12083220973E+03 -0.70636715851E+02 -0.63492790162E+03  0.65017183020E+03  0.00000000000E+00 0.  1.
</event>
<event>
12    1  0.8451514E-002  0.1860456E+03  0.7818608E-02  0.1162371E+00
         21   -1    0    0  501  502  0.00000000000E+00  0.00000000000E+00  0.19670919822E+03  0.19670919822E+03  0.00000000000E+00 0. -1.
         21   -1    0    0  502  503 -0.00000000000E+00 -0.00000000000E+00 -0.17852744354E+03  0.17852744354E+03  0.00000000000E+00 0.  1.
         -6    2    1    2    0  503  0.46810315444E+02 -0.54515999768E+02 -0.18173077822E+02  0.18567233380E+03  0.17023734878E+03 0.  0.
        -24    2    3    3    0    0 -0.31058276260E+01 -0.90815399552E+02 -0.26219396108E+02  0.12325357860E+03  0.79037364225E+02 0.  0.
          6    2    1    2  501    0 -0.46810315444E+02  0.54515999768E+02  0.36354832500E+02  0.18956430796E+03  0.17160930378E+03 0.  0.
         24    2    5    5    0    0  0.15027864783E+02  0.32658319316E+01  0.65494462333E+02  0.10399709307E+03  0.79305538226E+02 0.  0.
          5    1    5    5  501    0 -0.61838180227E+02  0.51250167836E+02 -0.29139629833E+02  0.85567214889E+02  0.47000000000E+01 0. -1.
        -11    1    6    6    0    0 -0.21873789251E+02 -0.24718296477E+02  0.37169586274E+02  0.49709505939E+02  0.00000000000E+00 0.  1.
         12    1    6    6    0    0  0.36901654033E+02  0.27984128408E+02  0.28324876059E+02  0.54287587135E+02  0.00000000000E+00 0. -1.
         -5    1    3    3    0  503  0.49916143070E+02  0.36299399784E+02  0.80463182861E+01  0.62418755207E+02  0.47000000000E+01 0.  1.
         11    1    4    4    0    0 -0.13061761479E+02  0.18991056406E+01 -0.26943985687E+02  0.30003242823E+02  0.00000000000E+00 0. -1.
        -12    1    4    4    0    0  0.99559338528E+01 -0.92714505192E+02  0.72458957877E+00  0.93250335774E+02  0.00000000000E+00 0.  1.
</event>
<event>
12    1  0.8451514E-002  0.3019399E+03  0.7818608E-02  0.1085015E+00
         21   -1    0    0  501  502  0.00000000000E+00  0.00000000000E+00  0.47428589519E+03  0.47428589519E+03  0.00000000000E+00 0.  1.
         21   -1    0    0  502  503 -0.00000000000E+00 -0.00000000000E+00 -0.40398255964E+03  0.40398255964E+03  0.00000000000E+00 0. -1.
         -6    2    1    2    0  503  0.19723812528E+03  0.15002276705E+03 -0.28541424774E+03  0.41548645280E+03  0.17250504615E+03 0.  0.
        -24    2    3    3    0    0  0.21457545852E+03  0.10376262101E+03 -0.24660422088E+03  0.35248730661E+03  0.81390113960E+02 0.  0.
          6    2    1    2  501    0 -0.19723812528E+03 -0.15002276705E+03  0.35571758330E+03  0.46278200203E+03  0.16193354699E+03 0.  0.
         24    2    5    5    0    0 -0.93393054175E+02 -0.13988646215E+02  0.16215070283E+03  0.20436507526E+03  0.80958562052E+02 0.  0.
          5    1    5    5  501    0 -0.10384507111E+03 -0.13603412084E+03  0.19356688047E+03  0.25841692677E+03  0.47000000000E+01 0. -1.
        -13    1    6    6    0    0 -0.77684018431E+02 -0.36283013844E+02  0.15337808487E+03  0.17571596607E+03  0.00000000000E+00 0.  1.
         14    1    6    6    0    0 -0.15709035744E+02  0.22294367629E+02  0.87726179595E+01  0.28649109198E+02  0.00000000000E+00 0. -1.
         -5    1    3    3    0  503 -0.17337333234E+02  0.46260146042E+02 -0.38810026868E+02  0.62999146193E+02  0.47000000000E+01 0.  1.
         11    1    4    4    0    0  0.12372280468E+03  0.84852511546E+02 -0.19587433135E+03  0.24672663982E+03  0.00000000000E+00 0. -1.
        -12    1    4    4    0    0  0.90852653834E+02  0.18910109467E+02 -0.50729889522E+02  0.10576066679E+03  0.00000000000E+00 0.  1.
</event>
<event>
12    1  0.8451514E-002  0.2789555E+03  0.7818608E-02  0.1097130E+00
         21   -1    0    0  503  502  0.00000000000E+00  0.00000000000E+00  0.52249368310E+03  0.52249368310E+03  0.00000000000E+00 0.  1.
         21   -1    0    0  501  503 -0.00000000000E+00 -0.00000000000E+00 -0.14986287551E+03  0.14986287551E+03  0.00000000000E+00 0. -1.
          6    2    1    2  501    0 -0.16620056065E+03  0.13444889059E+03  0.24089812012E+03  0.36386077547E+03  0.16930336412E+03 0.  0.
         24    2    3    3    0    0 -0.84005857031E+02  0.84028152629E+02  0.22395959380E+03  0.26584432891E+03  0.79984955526E+02 0.  0.
         -6    2    1    2    0  502  0.16620056065E+03 -0.13444889059E+03  0.13173268746E+03  0.30849578314E+03  0.17921221143E+03 0.  0.
        -24    2    5    5    0    0  0.27822025978E+02 -0.11396947493E+03  0.74369008403E+02  0.15723208294E+03  0.73675451457E+02 0.  0.
          5    1    3    3  501    0 -0.82194703624E+02  0.50420737965E+02  0.16938526318E+02  0.98016446552E+02  0.47000000000E+01 0. -1.
        -11    1    4    4    0    0  0.12260639593E+02 -0.83754789311E+00  0.37712428163E+02  0.39664240919E+02  0.00000000000E+00 0.  1.
         12    1    4    4    0    0 -0.96266496624E+02  0.84865700522E+02  0.18624716564E+03  0.22618008800E+03  0.00000000000E+00 0. -1.
         -5    1    5    5    0  502  0.13837853468E+03 -0.20479415660E+02  0.57363679061E+02  0.15126370021E+03  0.47000000000E+01 0.  1.
         13    1    6    6    0    0 -0.17171534850E+02 -0.41793231663E+02  0.14594332645E+01  0.45206921675E+02  0.00000000000E+00 0. -1.
        -14    1    6    6    0    0  0.44993560828E+02 -0.72176243272E+02  0.72909575139E+02  0.11202516126E+03  0.00000000000E+00 0.  1.
</event>
<event>
12    1  0.8451514E-002  0.2036716E+03  0.7818608E-02  0.1147006E+00
         21   -1    0    0  501  502  0.00000000000E+00  0.00000000000E+00  0.24551253368E+03  0.24551253368E+03  0.00000000000E+00 0. -1.
         21   -1    0    0  502  503 -0.00000000000E+00 -0.00000000000E+00 -0.30638040282E+03  0.30638040282E+03  0.00000000000E+00 0. -1.
         -6    2    1    2    0  503 -0.10162851096E+03 -0.35927506409E+02 -0.21605712200E+03  0.29583468919E+03  0.17093373980E+03 0.  0.
        -24    2    3    3    0    0 -0.21375396005E+02 -0.76767705896E+02 -0.11296370001E+03  0.15887181826E+03  0.78289647435E+02 0.  0.
          6    2    1    2  501    0  0.10162851096E+03  0.35927506409E+02  0.15518925286E+03  0.25605824731E+03  0.17280909078E+03 0.  0.
         24    2    5    5    0    0  0.74443739266E+02  0.10272670417E+02  0.22322745537E+02  0.11795400701E+03  0.88133108010E+02 0.  0.
          5    1    5    5  501    0  0.27184771695E+02  0.25654835992E+02  0.13286650732E+03  0.13810424030E+03  0.47000000000E+01 0. -1.
        -11    1    6    6    0    0  0.55224025538E+02 -0.28630027419E+02 -0.11094670851E+02  0.63185941378E+02  0.00000000000E+00 0.  1.
         12    1    6    6    0    0  0.19219713729E+02  0.38902697836E+02  0.33417416388E+02  0.54768065630E+02  0.00000000000E+00 0. -1.
         -5    1    3    3    0  503 -0.80253114956E+02  0.40840199488E+02 -0.10309342199E+03  0.13696287092E+03  0.47000000000E+01 0.  1.
         13    1    4    4    0    0 -0.50616347276E+02 -0.41757940629E+02 -0.59326728166E+02  0.88461296011E+02  0.00000000000E+00 0. -1.
        -14    1    4    4    0    0  0.29240951270E+02 -0.35009765267E+02 -0.53636971842E+02  0.70410522251E+02  0.00000000000E+00 0.  1.
</event>
<event>
12    1  0.8451514E-002  0.1883693E+03  0.7818608E-02  0.1164664E+00
         21   -1    0    0  501  502  0.00000000000E+00  0.00000000000E+00  0.99432182307E+02  0.99432182307E+02  0.00000000000E+00 0. -1.
         21   -1    0    0  502  503 -0.00000000000E+00 -0.00000000000E+00 -0.55212608269E+03  0.55212608269E+03  0.00000000000E+00 0. -1.
         -6    2    1    2    0  503  0.17236176114E+02  0.74093795421E+02 -0.44423011859E+03  0.48251778178E+03  0.17232537593E+03 0.  0.
        -24    2    3    3    0    0 -0.20131250508E+02 -0.19934521408E+02 -0.16983010519E+03  0.19001973685E+03  0.80390194505E+02 0.  0.
          6    2    1    2  501    0 -0.17236176114E+02 -0.74093795421E+02 -0.84637817935E+01  0.16904048321E+03  0.15071852267E+03 0.  0.
         24    2    5    5    0    0  0.30512306183E+02 -0.13836343466E+02 -0.25550249394E+02  0.90142349819E+02  0.79689288851E+02 0.  0.
          5    1    5    5  501    0 -0.47748482297E+02 -0.60257451956E+02  0.17086467601E+02  0.78898133393E+02  0.47000000000E+01 0. -1.
        -11    1    6    6    0    0  0.50333873640E+02 -0.28264120691E+01 -0.39037125137E+02  0.63760368409E+02  0.00000000000E+00 0.  1.
         12    1    6    6    0    0 -0.19821567457E+02 -0.11009931397E+02  0.13486875742E+02  0.26381981410E+02  0.00000000000E+00 0. -1.
         -5    1    3    3    0  503  0.37367426621E+02  0.94028316829E+02 -0.27440001339E+03  0.29249804493E+03  0.47000000000E+01 0.  1.
         13    1    4    4    0    0  0.20943519450E+01  0.10761618087E+02 -0.14339424931E+03  0.14381275837E+03  0.00000000000E+00 0. -1.
        -14    1    4    4    0    0 -0.22225602453E+02 -0.30696139495E+02 -0.26435855880E+02  0.46206978482E+02  0.00000000000E+00 0.  1.
</event>
<event>
12    1  0.8451514E-002  0.1854122E+03  0.7818608E-02  0.1163435E+00
         21   -1    0    0  503  502  0.00000000000E+00  0.00000000000E+00  0.21316093873E+03  0.21316093873E+03  0.00000000000E+00 0.  1.
         21   -1    0    0  501  503 -0.00000000000E+00 -0.00000000000E+00 -0.30695149020E+03  0.30695149020E+03  0.00000000000E+00 0.  1.
          6    2    1    2  501    0 -0.36134890167E+02 -0.52457966055E+02 -0.22799696485E+03  0.29387122053E+03  0.17412670613E+03 0.  0.
         24    2    3    3    0    0 -0.30036102826E+02 -0.61019580689E+02 -0.50600799984E+02  0.11610174689E+03  0.79332326139E+02 0.  0.
         -6    2    1    2    0  502  0.36134890167E+02  0.52457966055E+02  0.13420641338E+03  0.22624120840E+03  0.17063456419E+03 0.  0.
        -24    2    5    5    0    0 -0.22339044929E+02 -0.21081122909E+02  0.44419075043E+02  0.96198696826E+02  0.79609599748E+02 0.  0.
          5    1    3    3  501    0 -0.60987873409E+01  0.85616146338E+01 -0.17739616486E+03  0.17776947364E+03  0.47000000000E+01 0. -1.
        -11    1    4    4    0    0 -0.38855912514E+01 -0.21638942940E+02 -0.63419534378E+02  0.67122120137E+02  0.00000000000E+00 0.  1.
         12    1    4    4    0    0 -0.26150511574E+02 -0.39380637749E+02  0.12818734394E+02  0.48979626750E+02  0.00000000000E+00 0. -1.
         -5    1    5    5    0  502  0.58473935095E+02  0.73539088964E+02  0.89787338336E+02  0.13004251157E+03  0.47000000000E+01 0.  1.
         13    1    6    6    0    0  0.38844722159E+01 -0.40612389783E+02  0.48353092239E+02  0.63265131449E+02  0.00000000000E+00 0. -1.
        -14    1    6    6    0    0 -0.26223517145E+02  0.19531266874E+02 -0.39340171955E+01  0.32933565377E+02  0.00000000000E+00 0.  1.
</event>
<event>
12    1  0.8451514E-002  0.1796028E+03  0.7818608E-02  0.1168315E+00
         21   -1    0    0  503  502  0.00000000000E+00  0.00000000000E+00  0.27055380908E+03  0.27055380908E+03  0.00000000000E+00 0.  1.
         21   -1    0    0  501  503 -0.00000000000E+00 -0.00000000000E+00 -0.12449167090E+03  0.12449167090E+03  0.00000000000E+00 0.  1.
          6    2    1    2  501    0 -0.36781909323E+02 -0.42491676143E+02  0.31197616794E+02  0.18229223388E+03  0.17058345712E+03 0.  0.
         24    2    3    3    0    0 -0.61548227362E+02  0.27202323248E+02  0.11184418447E+02  0.10552477874E+03  0.80512340863E+02 0.  0.
         -6    2    1    2    0  502  0.36781909323E+02  0.42491676143E+02  0.11486452138E+03  0.21275324609E+03  0.17003421437E+03 0.  0.
        -24    2    5    5    0    0 -0.29221926883E+02  0.26649954004E+02  0.11375124643E+02  0.88900059652E+02  0.78801561446E+02 0.  0.
          5    1    3    3  501    0  0.24766318039E+02 -0.69693999391E+02  0.20013198346E+02  0.76767455138E+02  0.47000000000E+01 0. -1.
        -11    1    4    4    0    0 -0.55140515418E+02  0.14582798151E+02  0.42519938513E+02  0.71141265196E+02  0.00000000000E+00 0.  1.
         12    1    4    4    0    0 -0.64077119439E+01  0.12619525096E+02 -0.31335520066E+02  0.34383513547E+02  0.00000000000E+00 0. -1.
         -5    1    5    5    0  502  0.66003836206E+02  0.15841722139E+02  0.10348939674E+03  0.12385318644E+03  0.47000000000E+01 0.  1.
         11    1    6    6    0    0 -0.38394266056E+02  0.31167116506E+02  0.36704393816E+02  0.61585074025E+02  0.00000000000E+00 0. -1.
        -12    1    6    6    0    0  0.91723391733E+01 -0.45171625021E+01 -0.25329269173E+02  0.27314985627E+02  0.00000000000E+00 0.  1.
</event>
<event>
12    1  0.8451514E-002  0.1922099E+03  0.7818608E-02  0.1157146E+00
         21   -1    0    0  503  502  0.00000000000E+00  0.00000000000E+00  0.31780846527E+03  0.31780846527E+03  0.00000000000E+00 0. -1.
         21   -1    0    0  501  503 -0.00000000000E+00 -0.00000000000E+00 -0.21235667002E+03  0.21235667002E+03  0.00000000000E+00 0.  1.
          6    2    1    2  501    0  0.79875151902E+02 -0.16857774300E+02 -0.12702873536E+03  0.23039299847E+03  0.17401267106E+03 0.  0.
         24    2    3    3    0    0 -0.26009369024E+01 -0.46348539104E+02 -0.10556615782E+03  0.14008938465E+03  0.79535338474E+02 0.  0.
         -6    2    1    2    0  502 -0.79875151902E+02  0.16857774300E+02  0.23248053061E+03  0.29977213683E+03  0.17073931141E+03 0.  0.
        -24    2    5    5    0    0  0.14170524450E+02  0.38171314919E+02  0.13711066528E+03  0.16406525614E+03  0.80375498078E+02 0.  0.
          5    1    3    3  501    0  0.82476088804E+02  0.29490764805E+02 -0.21462577546E+02  0.90303613816E+02  0.47000000000E+01 0. -1.
        -13    1    4    4    0    0  0.36139326345E+02 -0.37420640403E+02 -0.54071042401E+02  0.75033544920E+02  0.00000000000E+00 0.  1.
         14    1    4    4    0    0 -0.38740263247E+02 -0.89278987011E+01 -0.51495115416E+02  0.65055839733E+02  0.00000000000E+00 0. -1.
         -5    1    5    5    0  502 -0.94045676352E+02 -0.21313540620E+02  0.95369865330E+02  0.13570688069E+03  0.47000000000E+01 0.  1.
         11    1    6    6    0    0 -0.12509584646E+02  0.54579558760E+02  0.67288441042E+02  0.87539432488E+02  0.00000000000E+00 0. -1.
        -12    1    6    6    0    0  0.26680109096E+02 -0.16408243841E+02  0.69822224241E+02  0.76525823650E+02  0.00000000000E+00 0.  1.
</event>
<event>
12    1  0.8451514E-002  0.3045546E+03  0.7818608E-02  0.1083209E+00
         21   -1    0    0  501  502  0.00000000000E+00  0.00000000000E+00  0.77007223926E+03  0.77007223926E+03  0.00000000000E+00 0.  1.
         21   -1    0    0  502  503 -0.00000000000E+00 -0.00000000000E+00 -0.23330814694E+03  0.23330814694E+03  0.00000000000E+00 0.  1.
         -6    2    1    2    0  503 -0.23363791899E+03  0.94338024780E+02 -0.81244050313E+02  0.31520486531E+03  0.17107650714E+03 0.  0.
        -24    2    3    3    0    0 -0.71799238240E+02  0.69485184254E+02 -0.80893175304E+02  0.15140121644E+03  0.79970626405E+02 0.  0.
          6    2    1    2  501    0  0.23363791899E+03 -0.94338024780E+02  0.61800814263E+03  0.68817552088E+03  0.16782473915E+03 0.  0.
         24    2    5    5    0    0  0.25036197807E+03 -0.78201151996E+02  0.52276345180E+03  0.59002393431E+03  0.77782236277E+02 0.  0.
          5    1    5    5  501    0 -0.16724059078E+02 -0.16136872784E+02  0.95244690832E+02  0.98151586574E+02  0.47000000000E+01 0. -1.
        -13    1    6    6    0    0  0.63097938381E+02  0.17577269173E+01  0.74260449476E+02  0.97463089363E+02  0.00000000000E+00 0.  1.
         14    1    6    6    0    0  0.18726403969E+03 -0.79958878913E+02  0.44850300232E+03  0.49256084494E+03  0.00000000000E+00 0. -1.
         -5    1    3    3    0  503 -0.16183868075E+03  0.24852840527E+02 -0.35087500972E+00  0.16380364887E+03  0.47000000000E+01 0.  1.
         13    1    4    4    0    0  0.16363857265E+02  0.31959156488E+01 -0.46423091535E+01  0.17307245179E+02  0.00000000000E+00 0. -1.
        -14    1    4    4    0    0 -0.88163095505E+02  0.66289268605E+02 -0.76250866150E+02  0.13409397127E+03  0.00000000000E+00 0.  1.
</event>
<event>
12    1  0.8451514E-002  0.1891748E+03  0.7818608E-02  0.1159354E+00
         21   -1    0    0  501  502  0.00000000000E+00  0.00000000000E+00  0.86439067494E+02  0.86439067494E+02  0.00000000000E+00 0. -1.
         21   -1    0    0  502  503 -0.00000000000E+00 -0.00000000000E+00 -0.42514323643E+03  0.42514323643E+03  0.00000000000E+00 0. -1.
         -6    2    1    2    0  503  0.32449730380E+02 -0.70469165043E+02 -0.12570942752E+03  0.22713421998E+03  0.17253465013E+03 0.  0.
        -24    2    3    3    0    0  0.64737517752E+02 -0.97631703375E+02 -0.68366114316E+02  0.15578542692E+03  0.76630789799E+02 0.  0.
          6    2    1    2  501    0 -0.32449730380E+02  0.70469165043E+02 -0.21299474141E+03  0.28444808394E+03  0.17182859007E+03 0.  0.
         24    2    5    5    0    0 -0.53984142361E+02  0.16953617832E+02 -0.44709082545E+02  0.10648798259E+03  0.78352253252E+02 0.  0.
          5    1    5    5  501    0  0.21534411981E+02  0.53515547211E+02 -0.16828565887E+03  0.17796010135E+03  0.47000000000E+01 0. -1.
        -11    1    6    6    0    0 -0.15710630725E+02 -0.24546051284E+02 -0.40474638120E+02  0.49875132905E+02  0.00000000000E+00 0.  1.
         12    1    6    6    0    0 -0.38273511636E+02  0.41499669116E+02 -0.42344444256E+01  0.56612849683E+02  0.00000000000E+00 0. -1.
         -5    1    3    3    0  503 -0.32287787372E+02  0.27162538332E+02 -0.57343313207E+02  0.71348793063E+02  0.47000000000E+01 0.  1.
         13    1    4    4    0    0  0.22357617582E+02 -0.16870597126E+01 -0.42038558020E+02  0.47643988024E+02  0.00000000000E+00 0. -1.
        -14    1    4    4    0    0  0.42379900170E+02 -0.95944643663E+02 -0.26327556296E+02  0.10814143890E+03  0.00000000000E+00 0.  1.
</event>
<event>
12    1  0.8451514E-002  0.1775258E+03  0.7818608E-02  0.1170268E+00
         21   -1    0    0  501  502  0.00000000000E+00  0.00000000000E+00  0.20257746084E+03  0.20257746084E+03  0.00000000000E+00 0.  1.
         21   -1    0    0  502  503 -0.00000000000E+00 -0.00000000000E+00 -0.16480655213E+03  0.16480655213E+03  0.00000000000E+00 0.  1.
         -6    2    1    2    0  503  0.40628376756E+02 -0.80902086161E+01 -0.24990281389E+02  0.17927610685E+03  0.17262471390E+03 0.  0.
        -24    2    3    3    0    0  0.73086956546E+02  0.37249035566E+02  0.71374829041E+01  0.11475099775E+03  0.79922799975E+02 0.  0.
          6    2    1    2  501    0 -0.40628376756E+02  0.80902086161E+01  0.62761190098E+02  0.18810790612E+03  0.17242244891E+03 0.  0.
         24    2    5    5    0    0  0.13701746784E+02 -0.47157006889E+02  0.14728294072E+02  0.96821180656E+02  0.82133411068E+02 0.  0.
          5    1    5    5  501    0 -0.54330123541E+02  0.55247215506E+02  0.48032896026E+02  0.91286725463E+02  0.47000000000E+01 0. -1.
        -11    1    6    6    0    0 -0.80518675111E+01 -0.63992814687E+02  0.22378932354E+02  0.68269535778E+02  0.00000000000E+00 0.  1.
         12    1    6    6    0    0  0.21753614296E+02  0.16835807798E+02 -0.76506382820E+01  0.28551644878E+02  0.00000000000E+00 0. -1.
         -5    1    3    3    0  503 -0.32458579790E+02 -0.45339244182E+02 -0.32127764293E+02  0.64525109093E+02  0.47000000000E+01 0.  1.
         13    1    4    4    0    0  0.29165717602E+02 -0.24630280980E+02 -0.25150758819E+01  0.38257227174E+02  0.00000000000E+00 0. -1.
        -14    1    4    4    0    0  0.43921238944E+02  0.61879316546E+02  0.96525587860E+01  0.76493770581E+02  0.00000000000E+00 0.  1.
</event>
<event>
12    1  0.8451514E-002  0.2383828E+03  0.7818608E-02  0.1120924E+00
         21   -1    0    0  503  502  0.00000000000E+00  0.00000000000E+00  0.44661566684E+03  0.44661566684E+03  0.00000000000E+00 0.  1.
         21   -1    0    0  501  503 -0.00000000000E+00 -0.00000000000E+00 -0.12733087016E+03  0.12733087016E+03  0.00000000000E+00 0. -1.
          6    2    1    2  501    0 -0.11861937417E+03 -0.11532425075E+03  0.14705394349E+03  0.28009146909E+03  0.17162788242E+03 0.  0.
         24    2    3    3    0    0 -0.50513890513E+02 -0.11983405548E+03  0.15293880731E+03  0.21142257610E+03  0.66312690447E+02 0.  0.
         -6    2    1    2    0  502  0.11861937417E+03  0.11532425075E+03  0.17223085319E+03  0.29385506790E+03  0.17122235661E+03 0.  0.
        -24    2    5    5    0    0 -0.42833920386E+01  0.30640701967E+02  0.84104967975E+02  0.12046344463E+03  0.80502147740E+02 0.  0.
          5    1    3    3  501    0 -0.68105483656E+02  0.45098047370E+01 -0.58848638217E+01  0.68668892993E+02  0.47000000000E+01 0. -1.
        -11    1    4    4    0    0 -0.55463110378E+02 -0.12032449781E+03  0.12206243632E+03  0.18014821605E+03  0.00000000000E+00 0.  1.
         12    1    4    4    0    0  0.49492198644E+01  0.49044232526E+00  0.30876370989E+02  0.31274360048E+02  0.00000000000E+00 0. -1.
         -5    1    5    5    0  502  0.12290276621E+03  0.84683548780E+02  0.88125885212E+02  0.17339162327E+03  0.47000000000E+01 0.  1.
         13    1    6    6    0    0  0.25518740971E+02 -0.13350700521E+02  0.48810931214E+02  0.56674106531E+02  0.00000000000E+00 0. -1.
        -14    1    6    6    0    0 -0.29802133009E+02  0.43991402488E+02  0.35294036760E+02  0.63789338103E+02  0.00000000000E+00 0.  1.
</event>
<event>
12    1  0.8451514E-002  0.1777098E+03  0.7818608E-02  0.1170809E+00
         21   -1    0    0  503  502  0.00000000000E+00  0.00000000000E+00  0.41542006986E+03  0.41542006986E+03  0.00000000000E+00 0.  1.
         21   -1    0    0  501  503 -0.00000000000E+00 -0.00000000000E+00 -0.88862538163E+02  0.88862538163E+02  0.00000000000E+00 0.  1.
          6    2    1    2  501    0  0.29369485009E+02  0.23449949459E+02  0.61412484032E+02  0.18509196567E+03  0.17051415126E+03 0.  0.
         24    2    3    3    0    0 -0.32800778180E+02  0.54479146787E+02  0.52616380785E+02  0.11489642347E+03  0.79930195274E+02 0.  0.
         -6    2    1    2    0  502 -0.29369485009E+02 -0.23449949459E+02  0.26514504767E+03  0.31919064235E+03  0.17369025040E+03 0.  0.
        -24    2    5    5    0    0 -0.34094499999E+02 -0.12670668473E+02  0.44342022793E+02  0.98024224336E+02  0.79495614984E+02 0.  0.
          5    1    3    3  501    0  0.62170263189E+02 -0.31029197328E+02  0.87961032460E+01  0.70195542196E+02  0.47000000000E+01 0. -1.
        -11    1    4    4    0    0 -0.26670333602E+02 -0.12402788483E+02 -0.26465280322E+00  0.29414382498E+02  0.00000000000E+00 0.  1.
         12    1    4    4    0    0 -0.61304445779E+01  0.66881935270E+02  0.52881033589E+02  0.85482040977E+02  0.00000000000E+00 0. -1.
         -5    1    5    5    0  502  0.47250149897E+01 -0.10779280986E+02  0.22080302487E+03  0.22116641802E+03  0.47000000000E+01 0.  1.
         11    1    6    6    0    0 -0.29376266831E+01 -0.21719367463E+01 -0.22892061690E+02  0.23181748169E+02  0.00000000000E+00 0. -1.
        -12    1    6    6    0    0 -0.31156873316E+02 -0.10498731726E+02  0.67234084482E+02  0.74842476167E+02  0.00000000000E+00 0.  1.
</event>
<event>
12    1  0.8451514E-002  0.2051865E+03  0.7818608E-02  0.1145459E+00
         21   -1    0    0  503  502  0.00000000000E+00  0.00000000000E+00  0.87669272300E+02  0.87669272300E+02  0.00000000000E+00 0. -1.
         21   -1    0    0  501  503 -0.00000000000E+00 -0.00000000000E+00 -0.10431352977E+04  0.10431352977E+04  0.00000000000E+00 0.  1.
          6    2    1    2  501    0  0.22742059573E+02 -0.11004582459E+03 -0.89323827284E+03  0.91650210111E+03  0.17168053031E+03 0.  0.
         24    2    3    3    0    0 -0.23967860337E+02 -0.10931012687E+03 -0.44396436019E+03  0.46478150554E+03  0.79964570978E+02 0.  0.
         -6    2    1    2    0  502 -0.22742059573E+02  0.11004582459E+03 -0.62227752604E+02  0.21430246894E+03  0.17153999596E+03 0.  0.
        -24    2    5    5    0    0  0.32403350720E+02  0.95227396817E+02 -0.84607404272E+02  0.15279197482E+03  0.77902121079E+02 0.  0.
          5    1    3    3  501    0  0.46709919909E+02 -0.73569772152E+00 -0.44927391265E+03  0.45172059556E+03  0.47000000000E+01 0. -1.
        -13    1    4    4    0    0 -0.26936717882E+02 -0.14453764485E+02 -0.21140042825E+03  0.21359924893E+03  0.00000000000E+00 0.  1.
         14    1    4    4    0    0  0.29688575449E+01 -0.94856362382E+02 -0.23256393194E+03  0.25118225662E+03  0.00000000000E+00 0. -1.
         -5    1    5    5    0  502 -0.55145410293E+02  0.14818427772E+02  0.22379651667E+02  0.61510494119E+02  0.47000000000E+01 0.  1.
         11    1    6    6    0    0 -0.30163492437E+01  0.91024561964E+02 -0.66657396345E+02  0.11286176381E+03  0.00000000000E+00 0. -1.
        -12    1    6    6    0    0  0.35419699964E+02  0.42028348536E+01 -0.17950007926E+02  0.39930211005E+02  0.00000000000E+00 0.  1.
</event>
<event>
12    1  0.8451514E-002  0.2022557E+03  0.7818608E-02  0.1148594E+00
         21   -1    0    0  501  502  0.00000000000E+00  0.00000000000E+00  0.70597115468E+02  0.70597115468E+02  0.00000000000E+00 0. -1.
         21   -1    0    0  502  503 -0.00000000000E+00 -0.00000000000E+00 -0.69132480175E+03  0.69132480175E+03  0.00000000000E+00 0. -1.
         -6    2    1    2    0  503 -0.24545839180E+02  0.98808388773E+02 -0.14807640462E+03  0.24781435749E+03  0.17064506516E+03 0.  0.
        -24    2    3    3    0    0 -0.20904107503E+02  0.54764175281E+02 -0.17072307464E+03  0.19793333290E+03  0.81210463933E+02 0.  0.
          6    2    1    2  501    0  0.24545839180E+02 -0.98808388773E+02 -0.47265128166E+03  0.51410755972E+03  0.17476198955E+03 0.  0.
         24    2    5    5    0    0 -0.35767005877E+02 -0.95002082607E+02 -0.23046948515E+03  0.26445532198E+03  0.80720253536E+02 0.  0.
          5    1    5    5  501    0  0.60312845057E+02 -0.38063061655E+01 -0.24218179651E+03  0.24965223774E+03  0.47000000000E+01 0. -1.
        -11    1    6    6    0    0  0.14038803678E+02 -0.45244894348E+01 -0.35994421974E+01  0.15182720358E+02  0.00000000000E+00 0.  1.
         12    1    6    6    0    0 -0.49805809554E+02 -0.90477593173E+02 -0.22687004295E+03  0.24927260162E+03  0.00000000000E+00 0. -1.
         -5    1    3    3    0  503 -0.36417316775E+01  0.44044213492E+02  0.22646670024E+02  0.49881024598E+02  0.47000000000E+01 0.  1.
         13    1    4    4    0    0 -0.83430782442E+01 -0.17191545935E+02 -0.10402507052E+02  0.21757030110E+02  0.00000000000E+00 0. -1.
        -14    1    4    4    0    0 -0.12561029258E+02  0.71955721216E+02 -0.16032056759E+03  0.17617630279E+03  0.00000000000E+00 0.  1.
</event>
<event>
12    1  0.8451514E-002  0.1884553E+03  0.7818608E-02  0.1160245E+00
         21   -1    0    0  503  502  0.00000000000E+00  0.00000000000E+00  0.72867500255E+03  0.72867500255E+03  0.00000000000E+00 0.  1.
         21   -1    0    0  501  503 -0.00000000000E+00 -0.00000000000E+00 -0.13103504062E+03  0.13103504062E+03  0.00000000000E+00 0.  1.
          6    2    1    2  501    0  0.64646973877E+01  0.77080961535E+02 -0.43219212359E+02  0.19171610950E+03  0.17001146838E+03 0.  0.
         24    2    3    3    0    0 -0.48341220144E+02  0.23817929831E+01 -0.88558398057E+01  0.92788935517E+02  0.78669016473E+02 0.  0.
         -6    2    1    2    0  502 -0.64646973877E+01 -0.77080961535E+02  0.64085917429E+03  0.66799393367E+03  0.17184919900E+03 0.  0.
        -24    2    5    5    0    0  0.36229486720E+02 -0.78990949405E+02  0.59062088882E+03  0.60186968140E+03  0.76563263280E+02 0.  0.
          5    1    3    3  501    0  0.54805917532E+02  0.74699168552E+02 -0.34363372553E+02  0.98927173982E+02  0.47000000000E+01 0. -1.
        -11    1    4    4    0    0  0.17467195279E+01 -0.35017567985E+00 -0.35802616934E+02  0.35846911044E+02  0.00000000000E+00 0.  1.
         12    1    4    4    0    0 -0.50087939672E+02  0.27319686630E+01  0.26946777128E+02  0.56942024472E+02  0.00000000000E+00 0. -1.
         -5    1    5    5    0  502 -0.42694184107E+02  0.19099878702E+01  0.50238285468E+02  0.66124252260E+02  0.47000000000E+01 0.  1.
         11    1    6    6    0    0  0.47726528955E+01  0.97237353449E+01  0.14440590123E+02  0.18051589620E+02  0.00000000000E+00 0. -1.
        -12    1    6    6    0    0  0.31456833824E+02 -0.88714684750E+02  0.57618029870E+03  0.58381809178E+03  0.00000000000E+00 0.  1.
</event>
<event>
12    1  0.8451514E-002  0.1848479E+03  0.7818608E-02  0.1163762E+00
         21   -1    0    0  503  502  0.00000000000E+00  0.00000000000E+00  0.58314531618E+03  0.58314531618E+03  0.00000000000E+00 0. -1.
         21   -1    0    0  501  503 -0.00000000000E+00 -0.00000000000E+00 -0.11067130876E+03  0.11067130876E+03  0.00000000000E+00 0. -1.
          6    2    1    2  501    0  0.65081269064E+02  0.14207707362E+02 -0.26574083290E+01  0.18486696882E+03  0.17242767704E+03 0.  0.
         24    2    3    3    0    0 -0.41492039438E+01 -0.62421315974E+01 -0.52030689088E+02  0.97283493442E+02  0.81857836455E+02 0.  0.
         -6    2    1    2    0  502 -0.65081269064E+02 -0.14207707362E+02  0.47513141575E+03  0.50894965611E+03  0.16983067949E+03 0.  0.
        -24    2    5    5    0    0 -0.26628646879E+02  0.15827051172E+02  0.11042350474E+03  0.14096237206E+03  0.81960109534E+02 0.  0.
          5    1    3    3  501    0  0.69230473008E+02  0.20449838959E+02  0.49373280759E+02  0.87583475378E+02  0.47000000000E+01 0. -1.
        -13    1    4    4    0    0  0.16553376181E+02  0.23775489179E+02  0.51900425222E+01  0.29431695331E+02  0.00000000000E+00 0.  1.
         14    1    4    4    0    0 -0.20702580125E+02 -0.30017620776E+02 -0.57220731610E+02  0.67851798111E+02  0.00000000000E+00 0. -1.
         -5    1    5    5    0  502 -0.38452622185E+02 -0.30034758534E+02  0.36470791101E+03  0.36798728405E+03  0.47000000000E+01 0.  1.
         13    1    6    6    0    0  0.19068884045E+02  0.16500034797E+02  0.85006116315E+02  0.88667430875E+02  0.00000000000E+00 0. -1.
        -14    1    6    6    0    0 -0.45697530924E+02 -0.67298362440E+00  0.25417388428E+02  0.52294941189E+02  0.00000000000E+00 0.  1.
</event>
<event>
12    1  0.8451514E-002  0.1835275E+03  0.7818608E-02  0.1164821E+00
         21   -1    0    0  503  502  0.00000000000E+00  0.00000000000E+00  0.15056322097E+03  0.15056322097E+03  0.00000000000E+00 0. -1.
         21   -1    0    0  501  503 -0.00000000000E+00 -0.00000000000E+00 -0.50277962112E+03  0.50277962112E+03  0.00000000000E+00 0.  1.
          6    2    1    2  501    0  0.35332045174E+01  0.60329166744E+02 -0.42070233439E+03  0.45899104800E+03  0.17329234285E+03 0.  0.
         24    2    3    3    0    0 -0.67069849741E-01  0.38307884118E+01 -0.36091949407E+03  0.37652222524E+03  0.10719806653E+03 0.  0.
         -6    2    1    2    0  502 -0.35332045174E+01 -0.60329166744E+02  0.68485934232E+02  0.19435179409E+03  0.17155233832E+03 0.  0.
        -24    2    5    5    0    0  0.51774450893E+02 -0.76712444040E+02  0.31992678358E+02  0.12593252600E+03  0.79183816527E+02 0.  0.
          5    1    3    3  501    0  0.36002743671E+01  0.56498378332E+02 -0.59782840319E+02  0.82468822753E+02  0.47000000000E+01 0. -1.
        -11    1    4    4    0    0  0.10135561999E+02  0.50766393026E+02 -0.11734057787E+03  0.12825274848E+03  0.00000000000E+00 0.  1.
         12    1    4    4    0    0 -0.10202631849E+02 -0.46935604614E+02 -0.24357891620E+03  0.24826947677E+03  0.00000000000E+00 0. -1.
         -5    1    5    5    0  502 -0.55307655410E+02  0.16383277296E+02  0.36493255874E+02  0.68419268092E+02  0.47000000000E+01 0.  1.
         13    1    6    6    0    0  0.12644691290E+02 -0.81165787115E+02  0.17649157814E+02  0.84019438152E+02  0.00000000000E+00 0. -1.
        -14    1    6    6    0    0  0.39129759603E+02  0.44533430757E+01  0.14343520544E+02  0.41913087845E+02  0.00000000000E+00 0.  1.
</event>
<event>
12    1  0.8451514E-002  0.1868175E+03  0.7818608E-02  0.1161793E+00
         21   -1    0    0  503  502  0.00000000000E+00  0.00000000000E+00  0.44161255481E+02  0.44161255481E+02  0.00000000000E+00 0.  1.
         21   -1    0    0  501  503 -0.00000000000E+00 -0.00000000000E+00 -0.10870343254E+04  0.10870343254E+04  0.00000000000E+00 0.  1.
          6    2    1    2  501    0  0.65815082404E+02 -0.24517390330E+02 -0.82268291844E+03  0.84362786887E+03  0.17311288032E+03 0.  0.
         24    2    3    3    0    0 -0.52379019749E+01  0.10931279107E+02 -0.18562692404E+03  0.20162509258E+03  0.77771425025E+02 0.  0.
         -6    2    1    2    0  502 -0.65815082404E+02  0.24517390330E+02 -0.22019015151E+03  0.28756771204E+03  0.17111036990E+03 0.  0.
        -24    2    5    5    0    0  0.30852665286E+02  0.13058298331E+02 -0.12262630992E+03  0.14966645238E+03  0.78996385811E+02 0.  0.
          5    1    3    3  501    0  0.71052984379E+02 -0.35448669436E+02 -0.63705599441E+03  0.64200277629E+03  0.47000000000E+01 0. -1.
        -13    1    4    4    0    0  0.11781545067E+02 -0.11250224553E+02 -0.16753132168E+03  0.16832146655E+03  0.00000000000E+00 0.  1.
         14    1    4    4    0    0 -0.17019447042E+02  0.22181503660E+02 -0.18095602355E+02  0.33303626031E+02  0.00000000000E+00 0. -1.
         -5    1    5    5    0  502 -0.96667747690E+02  0.11459091998E+02 -0.97563841586E+02  0.13790125967E+03  0.47000000000E+01 0.  1.
         11    1    6    6    0    0  0.26657362114E+02  0.24933962944E+02 -0.12143321525E+02  0.38467879076E+02  0.00000000000E+00 0. -1.
        -12    1    6    6    0    0  0.41953031722E+01 -0.11875664613E+02 -0.11048298840E+03  0.11119857330E+03  0.00000000000E+00 0.  1.
</event>
<event>
12    1  0.8451514E-002  0.1864693E+03  0.7818608E-02  0.1162093E+00
         21   -1    0    0  503  502  0.00000000000E+00  0.00000000000E+00  0.54689658005E+03  0.54689658005E+03  0.00000000000E+00 0.  1.
         21   -1    0    0  501  503 -0.00000000000E+00 -0.00000000000E+00 -0.75335088588E+02  0.75335088588E+02  0.00000000000E+00 0. -1.
          6    2    1    2  501    0  0.51492916412E+02  0.46765063026E+02  0.36269926119E+03  0.40782537875E+03  0.17300951975E+03 0.  0.
         24    2    3    3    0    0  0.50955942260E+01  0.75807574653E+02  0.14604904692E+03  0.18431791952E+03  0.82885571087E+02 0.  0.
         -6    2    1    2    0  502 -0.51492916412E+02 -0.46765063026E+02  0.10886223027E+03  0.21440628989E+03  0.17111569304E+03 0.  0.
        -24    2    5    5    0    0 -0.71152082549E+02 -0.86969165211E+02  0.80005014035E+02  0.16094900250E+03  0.82930842197E+02 0.  0.
          5    1    3    3  501    0  0.46397322186E+02 -0.29042511627E+02  0.21665021427E+03  0.22350745923E+03  0.47000000000E+01 0. -1.
        -11    1    4    4    0    0  0.21584746599E+02  0.32830563161E+02  0.12961712550E+03  0.13544130237E+03  0.00000000000E+00 0.  1.
         12    1    4    4    0    0 -0.16489152373E+02  0.42977011492E+02  0.16431921416E+02  0.48876617152E+02  0.00000000000E+00 0. -1.
         -5    1    5    5    0  502  0.19659166138E+02  0.40204102185E+02  0.28857216238E+02  0.53457287387E+02  0.47000000000E+01 0.  1.
         11    1    6    6    0    0  0.19039459377E+02 -0.16456337727E+02  0.15007137283E+02  0.29300618324E+02  0.00000000000E+00 0. -1.
        -12    1    6    6    0    0 -0.90191541926E+02 -0.70512827483E+02  0.64997876752E+02  0.13164838418E+03  0.00000000000E+00 0.  1.
</event>
<event>
12    1  0.8451514E-002  0.1936847E+03  0.7818608E-02  0.1155386E+00
         21   -1    0    0  501  502  0.00000000000E+00  0.00000000000E+00  0.58704732975E+03  0.58704732975E+03  0.00000000000E+00 0.  1.
         21   -1    0    0  502  503 -0.00000000000E+00 -0.00000000000E+00 -0.66038207510E+02  0.66038207510E+02  0.00000000000E+00 0.  1.
         -6    2    1    2    0  503 -0.78470774278E+02 -0.40793146848E+02  0.19707181123E+03  0.27566116987E+03  0.17126014873E+03 0.  0.
        -24    2    3    3    0    0 -0.64866625574E+01  0.15121552289E+02  0.35339777922E+02  0.89953048024E+02  0.81067335040E+02 0.  0.
          6    2    1    2  501    0  0.78470774278E+02  0.40793146848E+02  0.32393731101E+03  0.37742436739E+03  0.17231374987E+03 0.  0.
         24    2    5    5    0    0  0.60763366741E+02  0.82293717558E+02  0.15114058813E+03  0.19877205957E+03  0.78755390930E+02 0.  0.
          5    1    5    5  501    0  0.17707407537E+02 -0.41500570710E+02  0.17279672288E+03  0.17865230782E+03  0.47000000000E+01 0. -1.
        -11    1    6    6    0    0  0.89181395889E+01 -0.11539419309E+02  0.47396651339E+02  0.49589655876E+02  0.00000000000E+00 0.  1.
         12    1    6    6    0    0  0.51845227152E+02  0.93833136867E+02  0.10374393679E+03  0.14918240370E+03  0.00000000000E+00 0. -1.
         -5    1    3    3    0  503 -0.71984111720E+02 -0.55914699137E+02  0.16173203331E+03  0.18570812184E+03  0.47000000000E+01 0.  1.
         11    1    4    4    0    0  0.22270208929E+02  0.44994292429E+01  0.50777977916E+02  0.55629219934E+02  0.00000000000E+00 0. -1.
        -12    1    4    4    0    0 -0.28756871487E+02  0.10622123046E+02 -0.15438199994E+02  0.34323828090E+02  0.00000000000E+00 0.  1.
</event>
<event>
12    1  0.8451514E-002  0.2625811E+03  0.7818608E-02  0.1106025E+00
         21   -1    0    0  501  502  0.00000000000E+00  0.00000000000E+00  0.31949460624E+03  0.31949460624E+03  0.00000000000E+00 0. -1.
         21   -1    0    0  502  503 -0.00000000000E+00 -0.00000000000E+00 -0.21553376158E+03  0.21553376158E+03  0.00000000000E+00 0. -1.
         -6    2    1    2    0  503  0.22367983226E+02 -0.19411021025E+03  0.26163160346E+02  0.26388131002E+03  0.17541303949E+03 0.  0.
        -24    2    3    3    0    0 -0.66389223102E+01 -0.10343619292E+03  0.80597903515E+02  0.15411606392E+03  0.80700791895E+02 0.  0.
          6    2    1    2  501    0 -0.22367983226E+02  0.19411021025E+03  0.77797684313E+02  0.27114705780E+03  0.17114072243E+03 0.  0.
         24    2    5    5    0    0  0.81025958891E+01  0.34412094133E+02  0.63459485564E+02  0.10786932378E+03  0.79742337706E+02 0.  0.
          5    1    5    5  501    0 -0.30470579115E+02  0.15969811612E+03  0.14338198749E+02  0.16327773402E+03  0.47000000000E+01 0. -1.
        -11    1    6    6    0    0 -0.31106715555E+02  0.26741359005E+02  0.52143479884E+02  0.66345086694E+02  0.00000000000E+00 0.  1.
         12    1    6    6    0    0  0.39209311444E+02  0.76707351280E+01  0.11316005680E+02  0.41524237090E+02  0.00000000000E+00 0. -1.
         -5    1    3    3    0  503  0.29006905536E+02 -0.90674017335E+02 -0.54434743169E+02  0.10976524610E+03  0.47000000000E+01 0.  1.
         13    1    4    4    0    0  0.12907413898E+02 -0.24036230895E+02  0.65511564592E+02  0.70965532651E+02  0.00000000000E+00 0. -1.
        -14    1    4    4    0    0 -0.19546336209E+02 -0.79399962020E+02  0.15086338923E+02  0.83150531268E+02  0.00000000000E+00 0.  1.
</event>
<event>
12    1  0.8451514E-002  0.1999144E+03  0.7818608E-02  0.1150103E+00
         21   -1    0    0  501  502  0.00000000000E+00  0.00000000000E+00  0.46588639827E+03  0.46588639827E+03  0.00000000000E+00 0.  1.
         21   -1    0    0  502  503 -0.00000000000E+00 -0.00000000000E+00 -0.20360909259E+03  0.20360909259E+03  0.00000000000E+00 0.  1.
         -6    2    1    2    0  503 -0.10028428727E+03 -0.20162679207E+02 -0.12395359999E+03  0.23522383719E+03  0.17176229716E+03 0.  0.
        -24    2    3    3    0    0 -0.85870202484E+02  0.40229458236E+02 -0.12053507467E+03  0.17286397493E+03  0.79756809229E+02 0.  0.
          6    2    1    2  501    0  0.10028428727E+03  0.20162679207E+02  0.38623090567E+03  0.43427165367E+03  0.17015899851E+03 0.  0.
         24    2    5    5    0    0  0.12421412375E+02  0.28089409833E+02  0.85447756371E+02  0.12078272125E+03  0.79648228190E+02 0.  0.
          5    1    5    5  501    0  0.87862874893E+02 -0.79267306252E+01  0.30078314930E+03  0.31348893242E+03  0.47000000000E+01 0. -1.
        -13    1    6    6    0    0 -0.76142782233E+01  0.75371111199E+01  0.90932102660E+02  0.91561086554E+02  0.00000000000E+00 0.  1.
         14    1    6    6    0    0  0.20035690598E+02  0.20552298713E+02 -0.54843462889E+01  0.29221634697E+02  0.00000000000E+00 0. -1.
         -5    1    3    3    0  503 -0.14414084784E+02 -0.60392137443E+02 -0.34185253190E+01  0.62359862255E+02  0.47000000000E+01 0.  1.
         13    1    4    4    0    0 -0.32703489338E+02  0.12727361724E+02  0.33733166485E+01  0.35254548877E+02  0.00000000000E+00 0. -1.
        -14    1    4    4    0    0 -0.53166713146E+02  0.27502096511E+02 -0.12390839132E+03  0.13760942605E+03  0.00000000000E+00 0.  1.
</event>
<event>
12    1  0.8451514E-002  0.1936164E+03  0.7818608E-02  0.1155402E+00
         21   -1    0    0  503  502  0.00000000000E+00  0.00000000000E+00  0.53827621004E+02  0.53827621004E+02  0.00000000000E+00 0.  1.
         21   -1    0    0  501  503 -0.00000000000E+00 -0.00000000000E+00 -0.16647967952E+04  0.16647967952E+04  0.00000000000E+00 0.  1.
          6    2    1    2  501    0 -0.62197926099E+02  0.63103126604E+02 -0.14623938888E+04  0.14751553182E+04  0.17215324594E+03 0.  0.
         24    2    3    3    0    0 -0.24625949427E+02  0.15119200612E+02 -0.12801388851E+04  0.12829234609E+04  0.79385223330E+02 0.  0.
         -6    2    1    2    0  502  0.62197926099E+02 -0.63103126604E+02 -0.14857528532E+03  0.24346909797E+03  0.17132425299E+03 0.  0.
        -24    2    5    5    0    0  0.46838060167E+02  0.30871039551E+02 -0.78755281334E+02  0.12529976040E+03  0.79691973590E+02 0.  0.
          5    1    3    3  501    0 -0.37571976672E+02  0.47983925993E+02 -0.18225500376E+03  0.19223185735E+03  0.47000000000E+01 0. -1.
        -13    1    4    4    0    0  0.26656998301E+02  0.12336089772E+02 -0.66336237382E+03  0.66401235957E+03  0.00000000000E+00 0.  1.
         14    1    4    4    0    0 -0.51282947728E+02  0.27831108394E+01 -0.61677651127E+03  0.61891110128E+03  0.00000000000E+00 0. -1.
         -5    1    5    5    0  502  0.15359865932E+02 -0.93974166155E+02 -0.69820003986E+02  0.11816933757E+03  0.47000000000E+01 0.  1.
         13    1    6    6    0    0 -0.39565805581E+01  0.41989287567E+02 -0.51585564804E+02  0.66632014049E+02  0.00000000000E+00 0. -1.
        -14    1    6    6    0    0  0.50794640725E+02 -0.11118248017E+02 -0.27169716530E+02  0.58667746349E+02  0.00000000000E+00 0.  1.
</event>
<event>
12    1  0.8451514E-002  0.1866286E+03  0.7818608E-02  0.1161814E+00
         21   -1    0    0  503  502  0.00000000000E+00  0.00000000000E+00  0.56281385099E+03  0.56281385099E+03  0.00000000000E+00 0.  1.
         21   -1    0    0  501  503 -0.00000000000E+00 -0.00000000000E+00 -0.61710085214E+02  0.61710085214E+02  0.00000000000E+00 0.  1.
          6    2    1    2  501    0 -0.39569330646E+02 -0.59656000767E+02  0.26838499969E+03  0.32621491049E+03  0.17105873090E+03 0.  0.
         24    2    3    3    0    0 -0.83370854016E+02 -0.20557242458E+02  0.12138543558E+03  0.16785377827E+03  0.77892023934E+02 0.  0.
         -6    2    1    2    0  502  0.39569330646E+02  0.59656000767E+02  0.23271876608E+03  0.29830902571E+03  0.17235335905E+03 0.  0.
        -24    2    5    5    0    0  0.30083154845E+02 -0.18610426862E+02  0.18817814127E+03  0.20763610536E+03  0.80314352418E+02 0.  0.
          5    1    3    3  501    0  0.43801523370E+02 -0.39098758309E+02  0.14699956411E+03  0.15836113222E+03  0.47000000000E+01 0. -1.
        -11    1    4    4    0    0 -0.35179075374E+02 -0.48544632870E+02  0.68432063129E+02  0.90978546860E+02  0.00000000000E+00 0.  1.
         12    1    4    4    0    0 -0.48191778642E+02  0.27987390412E+02  0.52953372450E+02  0.76875231411E+02  0.00000000000E+00 0. -1.
         -5    1    5    5    0  502  0.94861758017E+01  0.78266427628E+02  0.44540624815E+02  0.90672920345E+02  0.47000000000E+01 0.  1.
         13    1    6    6    0    0 -0.84820627811E+01 -0.37086627633E+02  0.48991128692E+02  0.62028171251E+02  0.00000000000E+00 0. -1.
        -14    1    6    6    0    0  0.38565217626E+02  0.18476200772E+02  0.13918701258E+03  0.14560793411E+03  0.00000000000E+00 0.  1.
</event>
<event>
12    1  0.8451514E-002  0.2239061E+03  0.7818608E-02  0.1131047E+00
         21   -1    0    0  501  502  0.00000000000E+00  0.00000000000E+00  0.40165745413E+03  0.40165745413E+03  0.00000000000E+00 0. -1.
         21   -1    0    0  502  503 -0.00000000000E+00 -0.00000000000E+00 -0.13961692685E+03  0.13961692685E+03  0.00000000000E+00 0.  1.
         -6    2    1    2    0  503  0.23205094541E+02 -0.14124455136E+03  0.42581392831E+02  0.22791914979E+03  0.17217858207E+03 0.  0.
        -24    2    3    3    0    0 -0.37418575500E+02 -0.10840154989E+03 -0.11300832082E+02  0.14028766985E+03  0.80011722228E+02 0.  0.
          6    2    1    2  501    0 -0.23205094541E+02  0.14124455136E+03  0.21945913445E+03  0.31335523119E+03  0.17187405133E+03 0.  0.
         24    2    5    5    0    0  0.58507503345E+01  0.15234295987E+03  0.22051560272E+03  0.28188106848E+03  0.87104517821E+02 0.  0.
          5    1    5    5  501    0 -0.29055844876E+02 -0.11098408512E+02 -0.10564682697E+01  0.31474162707E+02  0.47000000000E+01 0. -1.
        -11    1    6    6    0    0 -0.14151136787E+02  0.20528089541E+02  0.88173041726E+00  0.24948638862E+02  0.00000000000E+00 0.  1.
         12    1    6    6    0    0  0.20001887121E+02  0.13181487033E+03  0.21963387230E+03  0.25693242962E+03  0.00000000000E+00 0. -1.
         -5    1    3    3    0  503  0.60623670041E+02 -0.32843001463E+02  0.53882224913E+02  0.87631479936E+02  0.47000000000E+01 0.  1.
         13    1    4    4    0    0 -0.42143071293E+02 -0.57317633470E+02  0.27179196422E+02  0.76158113703E+02  0.00000000000E+00 0. -1.
        -14    1    4    4    0    0  0.47244957934E+01 -0.51083916425E+02 -0.38480028504E+02  0.64129556146E+02  0.00000000000E+00 0.  1.
</event>
<event>
12    1  0.8451514E-002  0.1861931E+03  0.7818608E-02  0.1162211E+00
         21   -1    0    0  501  502  0.00000000000E+00  0.00000000000E+00  0.81410257210E+02  0.81410257210E+02  0.00000000000E+00 0. -1.
         21   -1    0    0  502  503 -0.00000000000E+00 -0.00000000000E+00 -0.42652553230E+03  0.42652553230E+03  0.00000000000E+00 0. -1.
         -6    2    1    2    0  503 -0.66796568449E+02 -0.29757160221E+02 -0.14953633043E+03  0.23790061220E+03  0.16996563484E+03 0.  0.
        -24    2    3    3    0    0 -0.30067993623E+02  0.48280710087E+02 -0.67914760509E+02  0.11906009685E+03  0.79547349176E+02 0.  0.
          6    2    1    2  501    0  0.66796568449E+02  0.29757160221E+02 -0.19557894466E+03  0.27003517731E+03  0.17123259985E+03 0.  0.
         24    2    5    5    0    0  0.35931679698E+02  0.82176729141E+02 -0.15914801737E+03  0.19897354894E+03  0.78856079836E+02 0.  0.
          5    1    5    5  501    0  0.30864888751E+02 -0.52419568920E+02 -0.36430927293E+02  0.71061628372E+02  0.47000000000E+01 0. -1.
        -11    1    6    6    0    0 -0.20395076932E+02  0.31319097404E+02 -0.25377908735E+02  0.45176136145E+02  0.00000000000E+00 0.  1.
         12    1    6    6    0    0  0.56326756630E+02  0.50857631737E+02 -0.13377010863E+03  0.15379741279E+03  0.00000000000E+00 0. -1.
         -5    1    3    3    0  503 -0.36728574826E+02 -0.78037870309E+02 -0.81621569923E+02  0.11884051535E+03  0.47000000000E+01 0.  1.
         13    1    4    4    0    0 -0.43046579140E+02 -0.28910192553E+01 -0.19188222238E+02  0.47218151602E+02  0.00000000000E+00 0. -1.
        -14    1    4    4    0    0  0.12978585517E+02  0.51171729343E+02 -0.48726538271E+02  0.71841945253E+02  0.00000000000E+00 0.  1.
</event>
<event>
12    1  0.8451514E-002  0.1972774E+03  0.7818608E-02  0.1152712E+00
         21   -1    0    0  501  502  0.00000000000E+00  0.00000000000E+00  0.48914101662E+03  0.48914101662E+03  0.00000000000E+00 0. -1.
         21   -1    0    0  502  503 -0.00000000000E+00 -0.00000000000E+00 -0.91497731616E+02  0.91497731616E+02  0.00000000000E+00 0. -1.
         -6    2    1    2    0  503 -0.80023559818E+02 -0.41138937521E+02  0.90083494894E+02  0.21687185743E+03  0.17556247944E+03 0.  0.
        -24    2    3    3    0    0 -0.10920635987E+03 -0.51764038268E+01  0.32062122009E+02  0.14248429557E+03  0.85562670738E+02 0.  0.
          6    2    1    2  501    0  0.80023559818E+02  0.41138937521E+02  0.30755979011E+03  0.36376689080E+03  0.17215441919E+03 0.  0.
         24    2    5    5    0    0  0.93945061015E+02 -0.88724345768E+01  0.13547144232E+03  0.18395745006E+03  0.81138382814E+02 0.  0.
          5    1    5    5  501    0 -0.13921501197E+02  0.50011372097E+02  0.17208834779E+03  0.17980944074E+03  0.47000000000E+01 0. -1.
        -11    1    6    6    0    0  0.11545052925E+02  0.29431351659E+02  0.21669170403E+02  0.38328131359E+02  0.00000000000E+00 0.  1.
         12    1    6    6    0    0  0.82400008089E+02 -0.38303786236E+02  0.11380227192E+03  0.14562931871E+03  0.00000000000E+00 0. -1.
         -5    1    3    3    0  503  0.29182800048E+02 -0.35962533694E+02  0.58021372885E+02  0.74387561862E+02  0.47000000000E+01 0.  1.
         13    1    4    4    0    0 -0.28068276156E+02  0.63283254645E+01 -0.28566436186E+02  0.40545247637E+02  0.00000000000E+00 0. -1.
        -14    1    4    4    0    0 -0.81138083710E+02 -0.11504729291E+02  0.60628558195E+02  0.10193904793E+03  0.00000000000E+00 0.  1.
</event>
<event>
12    1  0.8451514E-002  0.2646580E+03  0.7818608E-02  0.1104444E+00
         21   -1    0    0  503  502  0.00000000000E+00  0.00000000000E+00  0.12031451667E+04  0.12031451667E+04  0.00000000000E+00 0. -1.
         21   -1    0    0  501  503 -0.00000000000E+00 -0.00000000000E+00 -0.59247691954E+02  0.59247691954E+02  0.00000000000E+00 0.  1.
          6    2    1    2  501    0 -0.17500785048E+03  0.97501130300E+02  0.48519258660E+03  0.55268047290E+03  0.17294403978E+03 0.  0.
         24    2    3    3    0    0 -0.16929998664E+02  0.18910103061E+02  0.18813576629E+03  0.20709401296E+03  0.82756551384E+02 0.  0.
         -6    2    1    2    0  502  0.17500785048E+03 -0.97501130300E+02  0.65870488818E+03  0.70971238578E+03  0.17223624093E+03 0.  0.
        -24    2    5    5    0    0  0.33273846883E+02  0.84859303430E+00  0.15581227004E+03  0.17803177561E+03  0.79435386551E+02 0.  0.
          5    1    3    3  501    0 -0.15807785181E+03  0.78591027240E+02  0.29705682031E+03  0.34558645993E+03  0.47000000000E+01 0. -1.
        -11    1    4    4    0    0 -0.10931761274E+02  0.22478114048E+02  0.71834203950E+01  0.26007124875E+02  0.00000000000E+00 0.  1.
         12    1    4    4    0    0 -0.59982373900E+01 -0.35680109874E+01  0.18095234589E+03  0.18108688809E+03  0.00000000000E+00 0. -1.
         -5    1    5    5    0  502  0.14173400359E+03 -0.98349723334E+02  0.50289261814E+03  0.53168061017E+03  0.47000000000E+01 0.  1.
         13    1    6    6    0    0  0.53287938939E+02 -0.11070710477E+02  0.13908219663E+03  0.14935200865E+03  0.00000000000E+00 0. -1.
        -14    1    6    6    0    0 -0.20014092056E+02  0.11919303512E+02  0.16730073408E+02  0.28679766966E+02  0.00000000000E+00 0.  1.
</event>
<event>
12    1  0.8451514E-002  0.1771817E+03  0.7818608E-02  0.1170961E+00
         21   -1    0    0  501  502  0.00000000000E+00  0.00000000000E+00  0.79294439136E+02  0.79294439136E+02  0.00000000000E+00 0. -1.
         21   -1    0    0  502  503 -0.00000000000E+00 -0.00000000000E+00 -0.57805378289E+03  0.57805378289E+03  0.00000000000E+00 0. -1.
         -6    2    1    2    0  503 -0.26167076193E+02 -0.22584803376E+02 -0.43491919389E+03  0.46901625940E+03  0.17212424916E+03 0.  0.
        -24    2    3    3    0    0 -0.67020619629E+01  0.53815498780E+02 -0.25191331395E+03  0.26969457207E+03  0.79585293331E+02 0.  0.
          6    2    1    2  501    0  0.26167076193E+02  0.22584803376E+02 -0.63840149873E+02  0.18833196263E+03  0.17377736962E+03 0.  0.
         24    2    5    5    0    0  0.59774752058E+02  0.68360601788E+02 -0.45451829065E+02  0.12845609154E+03  0.78669599131E+02 0.  0.
          5    1    5    5  501    0 -0.33607675865E+02 -0.45775798412E+02 -0.18388320809E+02  0.59875871096E+02  0.47000000000E+01 0. -1.
        -11    1    6    6    0    0  0.73253785886E+02  0.34503362295E+02 -0.43605640017E+02  0.91967662782E+02  0.00000000000E+00 0.  1.
         12    1    6    6    0    0 -0.13479033828E+02  0.33857239493E+02 -0.18461890475E+01  0.36488428755E+02  0.00000000000E+00 0. -1.
         -5    1    3    3    0  503 -0.19465014230E+02 -0.76400302156E+02 -0.18300587994E+03  0.19932168733E+03  0.47000000000E+01 0.  1.
         13    1    4    4    0    0 -0.32275665254E+02  0.11229946684E+02 -0.17377531721E+03  0.17710361697E+03  0.00000000000E+00 0. -1.
        -14    1    4    4    0    0  0.25573603291E+02  0.42585552096E+02 -0.78137996734E+02  0.92590955100E+02  0.00000000000E+00 0.  1.
</event>
<event>
12    1  0.8451514E-002  0.1768054E+03  0.7818608E-02  0.1171053E+00
         21   -1    0    0  503  502  0.00000000000E+00  0.00000000000E+00  0.12821347305E+03  0.12821347305E+03  0.00000000000E+00 0. -1.
         21   -1    0    0  501  503 -0.00000000000E+00 -0.00000000000E+00 -0.27849689829E+03  0.27849689829E+03  0.00000000000E+00 0. -1.
          6    2    1    2  501    0 -0.29207476791E+01  0.39480650875E+02 -0.14769389834E+03  0.23037719273E+03  0.17231631021E+03 0.  0.
         24    2    3    3    0    0 -0.66287944845E+02  0.22429294508E+02 -0.63744593029E+02  0.12372014284E+03  0.79662636914E+02 0.  0.
         -6    2    1    2    0  502  0.29207476791E+01 -0.39480650875E+02 -0.25895269000E+01  0.17633317861E+03  0.17181219884E+03 0.  0.
        -24    2    5    5    0    0  0.19960580921E+02  0.17521483836E+02  0.46793256857E+02  0.98871261450E+02  0.82948720707E+02 0.  0.
          5    1    3    3  501    0  0.63367197166E+02  0.17051356366E+02 -0.83949305307E+02  0.10665704989E+03  0.47000000000E+01 0. -1.
        -11    1    4    4    0    0 -0.53902803220E+01  0.14718637170E+02  0.16454705559E+02  0.22725552515E+02  0.00000000000E+00 0.  1.
         12    1    4    4    0    0 -0.60897664523E+02  0.77106573386E+01 -0.80199298588E+02  0.10099459033E+03  0.00000000000E+00 0. -1.
         -5    1    5    5    0  502 -0.17039833242E+02 -0.57002134711E+02 -0.49382783757E+02  0.77461917160E+02  0.47000000000E+01 0.  1.
         11    1    6    6    0    0 -0.13912536462E+02 -0.26654586610E+02  0.24951618088E+02  0.39071842846E+02  0.00000000000E+00 0. -1.
        -12    1    6    6    0    0  0.33873117383E+02  0.44176070446E+02  0.21841638769E+02  0.59799418604E+02  0.00000000000E+00 0.  1.
</event>
<event>
12    1  0.8451514E-002  0.2098663E+03  0.7818608E-02  0.1141786E+00
         21   -1    0    0  501  502  0.00000000000E+00  0.00000000000E+00  0.69929660307E+02  0.69929660307E+02  0.00000000000E+00 0. -1.
         21   -1    0    0  502  503 -0.00000000000E+00 -0.00000000000E+00 -0.68293275401E+03  0.68293275401E+03  0.00000000000E+00 0.  1.
         -6    2    1    2    0  503  0.67926301868E+02  0.98985993675E+02 -0.19945204586E+03  0.28910781098E+03  0.17143511409E+03 0.  0.
        -24    2    3    3    0    0  0.32225231906E+02  0.13004761448E+03 -0.11863123467E+03  0.19533423152E+03  0.78302264077E+02 0.  0.
          6    2    1    2  501    0 -0.67926301868E+02 -0.98985993675E+02 -0.41355104784E+03  0.46375460334E+03  0.17213847193E+03 0.  0.
         24    2    5    5    0    0 -0.78811277617E+02 -0.70886045360E+02 -0.15739846810E+03  0.20579273813E+03  0.79626154004E+02 0.  0.
          5    1    5    5  501    0  0.10884975749E+02 -0.28099948315E+02 -0.25615257974E+03  0.25796186520E+03  0.47000000000E+01 0. -1.
        -11    1    6    6    0    0  0.28815725302E+01 -0.93772371111E+01 -0.71709469979E+02  0.72377372989E+02  0.00000000000E+00 0.  1.
         12    1    6    6    0    0 -0.81692850147E+02 -0.61508808249E+02 -0.85688998120E+02  0.13341536514E+03  0.00000000000E+00 0. -1.
         -5    1    3    3    0  503  0.35701069963E+02 -0.31061620805E+02 -0.80820811192E+02  0.93773579462E+02  0.47000000000E+01 0.  1.
         13    1    4    4    0    0  0.40035872205E+02  0.91469997143E+02 -0.11980306450E+03  0.15595642246E+03  0.00000000000E+00 0. -1.
        -14    1    4    4    0    0 -0.78106402993E+01  0.38577617338E+02  0.11718298341E+01  0.39377809062E+02  0.00000000000E+00 0.  1.
</event>
<event>
12    1  0.8451514E-002  0.2451545E+03  0.7818608E-02  0.1116536E+00
         21   -1    0    0  501  502  0.00000000000E+00  0.00000000000E+00  0.52495474985E+03  0.52495474985E+03  0.00000000000E+00 0.  1.
         21   -1    0    0  502  503 -0.00000000000E+00 -0.00000000000E+00 -0.23281902036E+03  0.23281902036E+03  0.00000000000E+00 0. -1.
         -6    2    1    2    0  503 -0.17249288274E+03 -0.15350818648E+02 -0.12435635478E+03  0.27489133016E+03  0.17352607353E+03 0.  0.
        -24    2    3    3    0    0 -0.63572947979E+02 -0.62200217396E+02 -0.24570268012E+02  0.11985013736E+03  0.76485100492E+02 0.  0.
          6    2    1    2  501    0  0.17249288274E+03  0.15350818648E+02  0.41649208427E+03  0.48288244005E+03  0.17239591764E+03 0.  0.
         24    2    5    5    0    0  0.20143527806E+02  0.75756452431E+01  0.21610130605E+03  0.23099092915E+03  0.78701224627E+02 0.  0.
          5    1    5    5  501    0  0.15234935493E+03  0.77751734051E+01  0.20039077822E+03  0.25189151090E+03  0.47000000000E+01 0. -1.
        -11    1    6    6    0    0  0.11992957776E+02 -0.32784416292E+02  0.58725249875E+02  0.68317669462E+02  0.00000000000E+00 0.  1.
         12    1    6    6    0    0  0.81505700307E+01  0.40360061535E+02  0.15737605618E+03  0.16267325968E+03  0.00000000000E+00 0. -1.
         -5    1    3    3    0  503 -0.10891993476E+03  0.46849398748E+02 -0.99786086771E+02  0.15504119280E+03  0.47000000000E+01 0.  1.
         11    1    4    4    0    0 -0.37913416108E+02 -0.42074240101E+02 -0.52264516395E+02  0.77066519806E+02  0.00000000000E+00 0. -1.
        -12    1    4    4    0    0 -0.25659531871E+02 -0.20125977296E+02  0.27694248382E+02  0.42783617559E+02  0.00000000000E+00 0.  1.
</event>
<event>
12    1  0.8451514E-002  0.1773633E+03  0.7818608E-02  0.1170402E+00
         21   -1    0    0  503  502  0.00000000000E+00  0.00000000000E+00  0.10651768742E+03  0.10651768742E+03  0.00000000000E+00 0.  1.
         21   -1    0    0  501  503 -0.00000000000E+00 -0.00000000000E+00 -0.63778545195E+03  0.63778545195E+03  0.00000000000E+00 0.  1.
          6    2    1    2  501    0 -0.17983757489E+02 -0.36803262127E+02 -0.53842723243E+03  0.56688767137E+03  0.17256839712E+03 0.  0.
         24    2    3    3    0    0 -0.47782922794E+02  0.12834997932E+02 -0.45750850410E+03  0.46727904870E+03  0.81164851671E+02 0.  0.
         -6    2    1    2    0  502  0.17983757489E+02  0.36803262127E+02  0.71594679082E+01  0.17741546801E+03  0.17247346077E+03 0.  0.
        -24    2    5    5    0    0  0.16131820154E+01  0.73807642726E+02 -0.39029068805E+02  0.11582982968E+03  0.80268989967E+02 0.  0.
          5    1    3    3  501    0  0.29799165305E+02 -0.49638260059E+02 -0.80918728333E+02  0.99608622667E+02  0.47000000000E+01 0. -1.
        -13    1    4    4    0    0 -0.44201556026E+02 -0.29128359022E+02 -0.25694834503E+03  0.26234460328E+03  0.00000000000E+00 0.  1.
         14    1    4    4    0    0 -0.35813667678E+01  0.41963356953E+02 -0.20056015907E+03  0.20493444542E+03  0.00000000000E+00 0. -1.
         -5    1    5    5    0  502  0.16370575474E+02 -0.37004380598E+02  0.46188536713E+02  0.61585638330E+02  0.47000000000E+01 0.  1.
         13    1    6    6    0    0  0.37563079964E+02  0.32986577625E+02 -0.20060807820E+01  0.50031226648E+02  0.00000000000E+00 0. -1.
        -14    1    6    6    0    0 -0.35949897948E+02  0.40821065101E+02 -0.37022988023E+02  0.65798603029E+02  0.00000000000E+00 0.  1.
</event>
<event>
12    1  0.8451514E-002  0.2566740E+03  0.7818608E-02  0.1109184E+00
         21   -1    0    0  501  502  0.00000000000E+00  0.00000000000E+00  0.31785464084E+03  0.31785464084E+03  0.00000000000E+00 0. -1.
         21   -1    0    0  502  503 -0.00000000000E+00 -0.00000000000E+00 -0.20745009754E+03  0.20745009754E+03  0.00000000000E+00 0. -1.
         -6    2    1    2    0  503 -0.14234672829E+03  0.12561503690E+03  0.65466886862E+02  0.26472669857E+03  0.17248937100E+03 0.  0.
        -24    2    3    3    0    0 -0.16484969861E+03  0.12289946193E+03  0.82754403428E+02  0.23583541529E+03  0.80562714351E+02 0.  0.
          6    2    1    2  501    0  0.14234672829E+03 -0.12561503690E+03  0.44937656440E+02  0.26057803981E+03  0.17274198479E+03 0.  0.
         24    2    5    5    0    0  0.10820850758E+03 -0.84343876019E+02  0.97193659361E+02  0.18560133225E+03  0.78602013836E+02 0.  0.
          5    1    5    5  501    0  0.34138220711E+02 -0.41271160886E+02 -0.52256002922E+02  0.74976707553E+02  0.47000000000E+01 0. -1.
        -13    1    6    6    0    0  0.10877223671E+02 -0.54749931486E+02  0.42050136175E+02  0.69886214269E+02  0.00000000000E+00 0.  1.
         14    1    6    6    0    0  0.97331283909E+02 -0.29593944533E+02  0.55143523186E+02  0.11571511798E+03  0.00000000000E+00 0. -1.
         -5    1    3    3    0  503  0.22502970318E+02  0.27155749711E+01 -0.17287516565E+02  0.28891283280E+02  0.47000000000E+01 0.  1.
         11    1    4    4    0    0 -0.87639681610E+02  0.87395862558E+02  0.86127264932E+02  0.15078679103E+03  0.00000000000E+00 0. -1.
        -12    1    4    4    0    0 -0.77210016998E+02  0.35503599376E+02 -0.33728615047E+01  0.85048624259E+02  0.00000000000E+00 0.  1.
</event>
<event>
12    1  0.8451514E-002  0.2185367E+03  0.7818608E-02  0.1135106E+00
         21   -1    0    0  501  502  0.00000000000E+00  0.00000000000E+00  0.20435784559E+03  0.20435784559E+03  0.00000000000E+00 0. -1.
         21   -1    0    0  502  503 -0.00000000000E+00 -0.00000000000E+00 -0.34340509299E+03  0.34340509299E+03  0.00000000000E+00 0. -1.
         -6    2    1    2    0  503  0.13417135264E+03 -0.87469609180E+01 -0.22490707598E+03  0.31359446883E+03  0.17227837026E+03 0.  0.
        -24    2    3    3    0    0  0.16304197123E+03 -0.21981378706E+02 -0.20828159957E+03  0.27743981632E+03  0.80782185953E+02 0.  0.
          6    2    1    2  501    0 -0.13417135264E+03  0.87469609180E+01  0.85859828582E+02  0.23416846975E+03  0.17141907965E+03 0.  0.
         24    2    5    5    0    0 -0.11327781772E+02 -0.27359002355E+02  0.31270356235E+02  0.94897927359E+02  0.84563276830E+02 0.  0.
          5    1    5    5  501    0 -0.12284357087E+03  0.36105963273E+02  0.54589472347E+02  0.13927054239E+03  0.47000000000E+01 0. -1.
        -11    1    6    6    0    0 -0.82138754138E+01 -0.50808513809E+02  0.44285667039E+02  0.67898403000E+02  0.00000000000E+00 0.  1.
         12    1    6    6    0    0 -0.31139063583E+01  0.23449511455E+02 -0.13015310804E+02  0.26999524359E+02  0.00000000000E+00 0. -1.
         -5    1    3    3    0  503 -0.28870618594E+02  0.13234417788E+02 -0.16625476411E+02  0.36154652510E+02  0.47000000000E+01 0.  1.
         13    1    4    4    0    0  0.28155373210E+02 -0.14898025267E+02 -0.33929435354E+01  0.32034173366E+02  0.00000000000E+00 0. -1.
        -14    1    4    4    0    0  0.13488659802E+03 -0.70833534394E+01 -0.20488865604E+03  0.24540564296E+03  0.00000000000E+00 0.  1.
</event>
<event>
12    1  0.8451514E-002  0.1901412E+03  0.7818608E-02  0.1158989E+00
         21   -1    0    0  501  502  0.00000000000E+00  0.00000000000E+00  0.14750915109E+03  0.14750915109E+03  0.00000000000E+00 0.  1.
         21   -1    0    0  502  503 -0.00000000000E+00 -0.00000000000E+00 -0.24139751101E+03  0.24139751101E+03  0.00000000000E+00 0.  1.
         -6    2    1    2    0  503 -0.67897201521E+02 -0.44507101019E+02 -0.46252019858E+02  0.19568574211E+03  0.17193821072E+03 0.  0.
        -24    2    3    3    0    0 -0.51164695018E+02 -0.27975533824E+02 -0.98090889393E+02  0.13856632437E+03  0.78602462802E+02 0.  0.
          6    2    1    2  501    0  0.67897201521E+02  0.44507101019E+02 -0.47636340064E+02  0.19322092000E+03  0.16874297323E+03 0.  0.
         24    2    5    5    0    0  0.45126723270E+02 -0.12011993106E+02  0.25984527434E+02  0.97539026141E+02  0.81596303980E+02 0.  0.
          5    1    5    5  501    0  0.22770478251E+02  0.56519094125E+02 -0.73620867497E+02  0.95681893854E+02  0.47000000000E+01 0. -1.
        -11    1    6    6    0    0  0.38773771541E+02  0.30812208313E+02  0.61066702708E+01  0.49900791201E+02  0.00000000000E+00 0.  1.
         12    1    6    6    0    0  0.63529517293E+01 -0.42824201419E+02  0.19877857163E+02  0.47638234940E+02  0.00000000000E+00 0. -1.
         -5    1    3    3    0  503 -0.16732506503E+02 -0.16531567195E+02  0.51838869535E+02  0.57119417736E+02  0.47000000000E+01 0.  1.
         11    1    4    4    0    0  0.18093226070E+02  0.75944325989E+01 -0.15007497649E+02  0.24703546746E+02  0.00000000000E+00 0. -1.
        -12    1    4    4    0    0 -0.69257921088E+02 -0.35569966423E+02 -0.83083391744E+02  0.11386277762E+03  0.00000000000E+00 0.  1.
</event>
<event>
12    1  0.8451514E-002  0.2099491E+03  0.7818608E-02  0.1141836E+00
         21   -1    0    0  503  502  0.00000000000E+00  0.00000000000E+00  0.12414356546E+03  0.12414356546E+03  0.00000000000E+00 0.  1.
         21   -1    0    0  501  503 -0.00000000000E+00 -0.00000000000E+00 -0.48802463836E+03  0.48802463836E+03  0.00000000000E+00 0.  1.
          6    2    1    2  501    0 -0.80814366997E+02  0.90208282799E+02 -0.34323903793E+03  0.40235765502E+03  0.17149387510E+03 0.  0.
         24    2    3    3    0    0 -0.21245883528E+02 -0.12901708652E+02 -0.91564887328E+02  0.12389393630E+03  0.79672687972E+02 0.  0.
         -6    2    1    2    0  502  0.80814366997E+02 -0.90208282799E+02 -0.20642034973E+02  0.20981054879E+03  0.17007609055E+03 0.  0.
        -24    2    5    5    0    0 -0.21801289601E+02 -0.23772621124E+02 -0.23845031227E+02  0.87434001587E+02  0.77689673547E+02 0.  0.
          5    1    3    3  501    0 -0.59568483469E+02  0.10310999145E+03 -0.25167415060E+03  0.27846371872E+03  0.47000000000E+01 0. -1.
        -11    1    4    4    0    0 -0.37036921385E+02  0.99126176170E+01 -0.87911305107E+02  0.95908243125E+02  0.00000000000E+00 0.  1.
         12    1    4    4    0    0  0.15791037857E+02 -0.22814326269E+02 -0.36535822211E+01  0.27985693180E+02  0.00000000000E+00 0. -1.
         -5    1    5    5    0  502  0.10261565660E+03 -0.66435661675E+02  0.32029962549E+01  0.12237654721E+03  0.47000000000E+01 0.  1.
         13    1    6    6    0    0 -0.19845565444E+02 -0.50687715721E+02 -0.53034618247E+01  0.54692025928E+02  0.00000000000E+00 0. -1.
        -14    1    6    6    0    0 -0.19557241561E+01  0.26915094597E+02 -0.18541569403E+02  0.32741975659E+02  0.00000000000E+00 0.  1.
</event>
<event>
12    1  0.8451514E-002  0.1891140E+03  0.7818608E-02  0.1159702E+00
         21   -1    0    0  503  502  0.00000000000E+00  0.00000000000E+00  0.11430889434E+03  0.11430889434E+03  0.00000000000E+00 0. -1.
         21   -1    0    0  501  503 -0.00000000000E+00 -0.00000000000E+00 -0.38454223132E+03  0.38454223132E+03  0.00000000000E+00 0. -1.
          6    2    1    2  501    0  0.60823708099E+02 -0.45568310193E+02 -0.24459788398E+03  0.30800749558E+03  0.17106869417E+03 0.  0.
         24    2    3    3    0    0 -0.79115836909E+00 -0.85235712155E+01 -0.45710597880E+02  0.96472753686E+02  0.84523702282E+02 0.  0.
         -6    2    1    2    0  502 -0.60823708099E+02  0.45568310193E+02 -0.25635453001E+02  0.19084363009E+03  0.17317078372E+03 0.  0.
        -24    2    5    5    0    0 -0.15635356010E+00  0.81563318355E+02 -0.37375033777E+02  0.11917720646E+03  0.78445612000E+02 0.  0.
          5    1    3    3  501    0  0.61614866468E+02 -0.37044738977E+02 -0.19888728610E+03  0.21153474189E+03  0.47000000000E+01 0. -1.
        -11    1    4    4    0    0 -0.35238877335E+02 -0.25969473580E+02 -0.35950614711E+02  0.56644847355E+02  0.00000000000E+00 0.  1.
         12    1    4    4    0    0  0.34447718965E+02  0.17445902365E+02 -0.97599831697E+01  0.39827906331E+02  0.00000000000E+00 0. -1.
         -5    1    5    5    0  502 -0.60667354538E+02 -0.35995008162E+02  0.11739580775E+02  0.71666423631E+02  0.47000000000E+01 0.  1.
         11    1    6    6    0    0 -0.48759146678E+01  0.55011794534E+02  0.17583258534E+02  0.57958977410E+02  0.00000000000E+00 0. -1.
        -12    1    6    6    0    0  0.47195611077E+01  0.26551523821E+02 -0.54958292311E+02  0.61218229049E+02  0.00000000000E+00 0.  1.
</event>
<event>
12    1  0.8451514E-002  0.1946657E+03  0.7818608E-02  0.1154824E+00
         21   -1    0    0  501  502  0.00000000000E+00  0.00000000000E+00  0.11259008344E+04  0.11259008344E+04  0.00000000000E+00 0.  1.
         21   -1    0    0  502  503 -0.00000000000E+00 -0.00000000000E+00 -0.39741949927E+02  0.39741949927E+02  0.00000000000E+00 0.  1.
         -6    2    1    2    0  503 -0.22208832002E+02 -0.87165624807E+02  0.30504644901E+03  0.36063883748E+03  0.17004692493E+03 0.  0.
        -24    2    3    3    0    0  0.36624403215E+02 -0.70596485216E+02  0.11716108631E+03  0.16300562804E+03  0.80739729960E+02 0.  0.
          6    2    1    2  501    0  0.22208832002E+02  0.87165624807E+02  0.78111243545E+03  0.80500394684E+03  0.17263730547E+03 0.  0.
         24    2    5    5    0    0  0.80852593511E+02  0.55617623457E+02  0.51338290598E+03  0.52907722087E+03  0.82038012970E+02 0.  0.
          5    1    5    5  501    0 -0.58643761509E+02  0.31548001350E+02  0.26772952947E+03  0.27592672597E+03  0.47000000000E+01 0. -1.
        -13    1    6    6    0    0  0.16364939028E+02 -0.17605416039E+02  0.49292308172E+02  0.54840619510E+02  0.00000000000E+00 0.  1.
         14    1    6    6    0    0  0.64487654483E+02  0.73223039495E+02  0.46409059781E+03  0.47423660136E+03  0.00000000000E+00 0. -1.
         -5    1    3    3    0  503 -0.58833235217E+02 -0.16569139591E+02  0.18788536270E+03  0.19763320943E+03  0.47000000000E+01 0.  1.
         11    1    4    4    0    0  0.58330606120E+02 -0.28320719075E+02  0.77955805462E+02  0.10139837447E+03  0.00000000000E+00 0. -1.
        -12    1    4    4    0    0 -0.21706202905E+02 -0.42275766141E+02  0.39205280845E+02  0.61607253578E+02  0.00000000000E+00 0.  1.
</event>
<event>
12    1  0.8451514E-002  0.2039789E+03  0.7818608E-02  0.1146477E+00
         21   -1    0    0  501  502  0.00000000000E+00  0.00000000000E+00  0.84501293610E+02  0.84501293610E+02  0.00000000000E+00 0. -1.
         21   -1    0    0  502  503 -0.00000000000E+00 -0.00000000000E+00 -0.55634061110E+03  0.55634061110E+03  0.00000000000E+00 0. -1.
         -6    2    1    2    0  503  0.89483626248E+02 -0.60142583649E+02 -0.34520094552E+03  0.40096269401E+03  0.17315582424E+03 0.  0.
        -24    2    3    3    0    0  0.33348407577E+02 -0.95655148541E+02 -0.27035347378E+03  0.30078016526E+03  0.84354509669E+02 0.  0.
          6    2    1    2  501    0 -0.89483626248E+02  0.60142583649E+02 -0.12663837197E+03  0.23987921070E+03  0.17285921652E+03 0.  0.
         24    2    5    5    0    0 -0.43400942551E+02  0.78239933981E+02 -0.21770020953E+02  0.12381634467E+03  0.82773330918E+02 0.  0.
          5    1    5    5  501    0 -0.46082683696E+02 -0.18097350332E+02 -0.10486835102E+03  0.11606286603E+03  0.47000000000E+01 0. -1.
        -11    1    6    6    0    0  0.33574469328E+01  0.59471281261E+02  0.15018836044E+02  0.61430213909E+02  0.00000000000E+00 0.  1.
         12    1    6    6    0    0 -0.46758389484E+02  0.18768652720E+02 -0.36788856998E+02  0.62386130761E+02  0.00000000000E+00 0. -1.
         -5    1    3    3    0  503  0.56135218670E+02  0.35512564892E+02 -0.74847471741E+02  0.10018252875E+03  0.47000000000E+01 0.  1.
         11    1    4    4    0    0  0.45808878625E+02 -0.13741186228E+02 -0.11861581132E+03  0.12789442621E+03  0.00000000000E+00 0. -1.
        -12    1    4    4    0    0 -0.12460471048E+02 -0.81913962313E+02 -0.15173766246E+03  0.17288573905E+03  0.00000000000E+00 0.  1.
</event>
<event>
12    1  0.8451514E-002  0.2481245E+03  0.7818608E-02  0.1114633E+00
         21   -1    0    0  503  502  0.00000000000E+00  0.00000000000E+00  0.21122193526E+03  0.21122193526E+03  0.00000000000E+00 0. -1.
         21   -1    0    0  501  503 -0.00000000000E+00 -0.00000000000E+00 -0.44511159226E+03  0.44511159226E+03  0.00000000000E+00 0. -1.
          6    2    1    2  501    0 -0.85398385251E+02  0.15866730749E+03 -0.31050869094E+03  0.39746875122E+03  0.17058007615E+03 0.  0.
         24    2    3    3    0    0 -0.19634291828E+02  0.16110945233E+03 -0.22061542656E+03  0.28596193961E+03  0.82227145294E+02 0.  0.
         -6    2    1    2    0  502  0.85398385251E+02 -0.15866730749E+03  0.76619033935E+02  0.25886477630E+03  0.16932896202E+03 0.  0.
        -24    2    5    5    0    0  0.42172522206E+02 -0.10829916048E+03  0.11508494199E+03  0.18200684534E+03  0.79841831701E+02 0.  0.
          5    1    3    3  501    0 -0.65764093423E+02 -0.24421448448E+01 -0.89893264380E+02  0.11150681161E+03  0.47000000000E+01 0. -1.
        -13    1    4    4    0    0 -0.27676429283E+02  0.15156478467E+02 -0.66183914543E+02  0.73321307419E+02  0.00000000000E+00 0.  1.
         14    1    4    4    0    0  0.80421374555E+01  0.14595297386E+03 -0.15443151201E+03  0.21264063219E+03  0.00000000000E+00 0. -1.
         -5    1    5    5    0  502  0.43225863045E+02 -0.50368147010E+02 -0.38465908053E+02  0.76857930960E+02  0.47000000000E+01 0.  1.
         11    1    6    6    0    0  0.52390198844E+01 -0.95715577915E+01 -0.12445958211E+02  0.16551855597E+02  0.00000000000E+00 0. -1.
        -12    1    6    6    0    0  0.36933502321E+02 -0.98727602685E+02  0.12753090020E+03  0.16545498974E+03  0.00000000000E+00 0.  1.
</event>
<event>
12    1  0.8451514E-002  0.2042498E+03  0.7818608E-02  0.1147136E+00
         21   -1    0    0  503  502  0.00000000000E+00  0.00000000000E+00  0.11992654953E+03  0.11992654953E+03  0.00000000000E+00 0. -1.
         21   -1    0    0  501  503 -0.00000000000E+00 -0.00000000000E+00 -0.14259964317E+04  0.14259964317E+04  0.00000000000E+00 0. -1.
          6    2    1    2  501    0  0.62625085839E+02 -0.79800991440E+02 -0.13257619629E+04  0.13407261518E+04  0.17208059771E+03 0.  0.
         24    2    3    3    0    0  0.33833262732E+02 -0.71651786191E+00 -0.10164076246E+04  0.10200931533E+04  0.79751984973E+02 0.  0.
         -6    2    1    2    0  502 -0.62625085839E+02  0.79800991440E+02  0.19692080771E+02  0.20519682945E+03  0.17727904884E+03 0.  0.
        -24    2    5    5    0    0 -0.16417985452E+02  0.11152238988E+03  0.39448693639E+02  0.14558343332E+03  0.83255888308E+02 0.  0.
          5    1    3    3  501    0  0.28791823107E+02 -0.79084473578E+02 -0.30935433837E+03  0.32063299847E+03  0.47000000000E+01 0. -1.
        -13    1    4    4    0    0  0.19658720707E+02 -0.26666677008E+02 -0.17163395716E+03  0.17480215163E+03  0.00000000000E+00 0.  1.
         14    1    4    4    0    0  0.14174542025E+02  0.25950159146E+02 -0.84477366741E+03  0.84529100170E+03  0.00000000000E+00 0. -1.
         -5    1    5    5    0  502 -0.46207100388E+02 -0.31721398440E+02 -0.19756612869E+02  0.59613396122E+02  0.47000000000E+01 0.  1.
         13    1    6    6    0    0  0.18657188802E+02  0.58148439769E+02  0.52338928671E+02  0.80428199010E+02  0.00000000000E+00 0. -1.
        -14    1    6    6    0    0 -0.35075174254E+02  0.53373950111E+02 -0.12890235032E+02  0.65155234314E+02  0.00000000000E+00 0.  1.
</event>
<event>
12    1  0.8451514E-002  0.1739753E+03  0.7818608E-02  0.1174127E+00
         21   -1    0    0  503  502  0.00000000000E+00  0.00000000000E+00  0.79087255658E+03  0.79087255658E+03  0.00000000000E+00 0. -1.
         21   -1    0    0  501  503 -0.00000000000E+00 -0.00000000000E+00 -0.41097345724E+02  0.41097345724E+02  0.00000000000E+00 0. -1.
          6    2    1    2  501    0  0.85000398488E+01  0.82074480676E+01  0.26133682300E+03  0.31394956368E+03  0.17357355962E+03 0.  0.
         24    2    3    3    0    0  0.30782461195E+01 -0.29563462524E+02  0.26209378168E+03  0.27549568844E+03  0.79506289302E+02 0.  0.
         -6    2    1    2    0  502 -0.85000398488E+01 -0.82074480676E+01  0.48843838786E+03  0.51802033863E+03  0.17214354363E+03 0.  0.
        -24    2    5    5    0    0 -0.11936358756E+02 -0.30286432388E+01  0.49866768605E+03  0.50516122324E+03  0.79791923230E+02 0.  0.
          5    1    3    3  501    0  0.54217937293E+01  0.37770910592E+02 -0.75695868664E+00  0.38453875236E+02  0.47000000000E+01 0. -1.
        -11    1    4    4    0    0 -0.12925333540E+02 -0.51555856140E+02  0.12670207387E+03  0.13739900317E+03  0.00000000000E+00 0.  1.
         12    1    4    4    0    0  0.16003579660E+02  0.21992393616E+02  0.13539170781E+03  0.13809668527E+03  0.00000000000E+00 0. -1.
         -5    1    5    5    0  502  0.34363189068E+01 -0.51788048288E+01 -0.10229298189E+02  0.12859115387E+02  0.47000000000E+01 0.  1.
         11    1    6    6    0    0 -0.27624545243E+02  0.31573499544E+02  0.29668743998E+03  0.29963884664E+03  0.00000000000E+00 0. -1.
        -12    1    6    6    0    0  0.15688186488E+02 -0.34602142783E+02  0.20198024607E+03  0.20552237660E+03  0.00000000000E+00 0.  1.
</event>
<event>
12    1  0.8451514E-002  0.1913940E+03  0.7818608E-02  0.1157695E+00
         21   -1    0    0  501  502  0.00000000000E+00  0.00000000000E+00  0.53785606116E+03  0.53785606116E+03  0.00000000000E+00 0.  1.
         21   -1    0    0  502  503 -0.00000000000E+00 -0.00000000000E+00 -0.58126198921E+03  0.58126198921E+03  0.00000000000E+00 0.  1.
         -6    2    1    2    0  503 -0.13334747449E+02  0.82009156663E+02 -0.54786459690E+03  0.58033377990E+03  0.17241914708E+03 0.  0.
        -24    2    3    3    0    0 -0.60371113759E+02  0.82406022051E+02 -0.28307080192E+03  0.31135344396E+03  0.79852766513E+02 0.  0.
          6    2    1    2  501    0  0.13334747449E+02 -0.82009156663E+02  0.50445866886E+03  0.53878427047E+03  0.17001948199E+03 0.  0.
         24    2    5    5    0    0 -0.35047616833E+02 -0.69903899834E+02  0.19063598911E+03  0.22098849526E+03  0.79868291808E+02 0.  0.
          5    1    5    5  501    0  0.48382364282E+02 -0.12105256829E+02  0.31382267975E+03  0.31779577521E+03  0.47000000000E+01 0. -1.
        -11    1    6    6    0    0 -0.98018092517E+01 -0.57150623094E+02  0.18259895554E+03  0.19158457075E+03  0.00000000000E+00 0.  1.
         12    1    6    6    0    0 -0.25245807581E+02 -0.12753276740E+02  0.80370335672E+01  0.29403924510E+02  0.00000000000E+00 0. -1.
         -5    1    3    3    0  503  0.47036366310E+02 -0.39686538856E+00 -0.26479379498E+03  0.26898033593E+03  0.47000000000E+01 0.  1.
         11    1    4    4    0    0 -0.11322208248E+02  0.67582489268E+02 -0.21808210395E+03  0.22859437727E+03  0.00000000000E+00 0. -1.
        -12    1    4    4    0    0 -0.49048905511E+02  0.14823532783E+02 -0.64988697970E+02  0.82759066692E+02  0.00000000000E+00 0.  1.
</event>
<event>
12    1  0.8451514E-002  0.1800582E+03  0.7818608E-02  0.1167801E+00
         21   -1    0    0  503  502  0.00000000000E+00  0.00000000000E+00  0.24841500833E+02  0.24841500833E+02  0.00000000000E+00 0. -1.
         21   -1    0    0  501  503 -0.00000000000E+00 -0.00000000000E+00 -0.24249156204E+04  0.24249156204E+04  0.00000000000E+00 0.  1.
          6    2    1    2  501    0 -0.59640069788E+01 -0.50634732461E+02 -0.20326060979E+04  0.20405460554E+04  0.17245639884E+03 0.  0.
         24    2    3    3    0    0  0.57882228957E+02 -0.24185089862E+02 -0.14961579957E+04  0.14996444175E+04  0.80680605571E+02 0.  0.
         -6    2    1    2    0  502  0.59640069788E+01  0.50634732461E+02 -0.36746802168E+03  0.40921106584E+03  0.17268903827E+03 0.  0.
        -24    2    5    5    0    0  0.63796072813E+02  0.45097218352E+02 -0.16993569208E+03  0.20325883075E+03  0.79575843230E+02 0.  0.
          5    1    3    3  501    0 -0.63846235936E+02 -0.26449642599E+02 -0.53644810222E+03  0.54090163783E+03  0.47000000000E+01 0. -1.
        -11    1    4    4    0    0  0.32334301763E+01  0.13697009178E+01 -0.15822411144E+01  0.38515760740E+01  0.00000000000E+00 0.  1.
         12    1    4    4    0    0  0.54648798780E+02 -0.25554790780E+02 -0.14945757545E+04  0.14957928415E+04  0.00000000000E+00 0. -1.
         -5    1    5    5    0  502 -0.57832065835E+02  0.55375141093E+01 -0.19753232959E+03  0.20595223508E+03  0.47000000000E+01 0.  1.
         13    1    6    6    0    0  0.53840103383E+02  0.17248965963E+02 -0.38169123106E+02  0.68214115238E+02  0.00000000000E+00 0. -1.
        -14    1    6    6    0    0  0.99559694307E+01  0.27848252389E+02 -0.13176656898E+03  0.13504471551E+03  0.00000000000E+00 0.  1.
</event>
<event>
12    1  0.8451514E-002  0.2850048E+03  0.7818608E-02  0.1093389E+00
         21   -1    0    0  501  502  0.00000000000E+00  0.00000000000E+00  0.54562196876E+02  0.54562196876E+02  0.00000000000E+00 0. -1.
         21   -1    0    0  502  503 -0.00000000000E+00 -0.00000000000E+00 -0.20360184830E+04  0.20360184830E+04  0.00000000000E+00 0.  1.
         -6    2    1    2    0  503  0.18877168206E+03 -0.11838385407E+03 -0.15365660651E+04  0.15622294547E+04  0.17284707697E+03 0.  0.
        -24    2    3    3    0    0  0.61544945180E+02 -0.29320090873E+02 -0.37549112628E+03  0.39080463853E+03  0.84185696990E+02 0.  0.
          6    2    1    2  501    0 -0.18877168206E+03  0.11838385407E+03 -0.44489022101E+03  0.52835122511E+03  0.17770262653E+03 0.  0.
         24    2    5    5    0    0 -0.16829984942E+03  0.35123159442E+02 -0.23861169472E+03  0.30491362843E+03  0.80487914019E+02 0.  0.
          5    1    5    5  501    0 -0.20471832644E+02  0.83260694629E+02 -0.20627852629E+03  0.22343759668E+03  0.47000000000E+01 0. -1.
        -13    1    6    6    0    0 -0.77134111493E+02  0.29085843142E+02 -0.17542029764E+03  0.19382450374E+03  0.00000000000E+00 0.  1.
         14    1    6    6    0    0 -0.91165737924E+02  0.60373163008E+01 -0.63191397082E+02  0.11108912469E+03  0.00000000000E+00 0. -1.
         -5    1    3    3    0  503  0.12722673688E+03 -0.89063763199E+02 -0.11610749388E+04  0.11714248162E+04  0.47000000000E+01 0.  1.
         11    1    4    4    0    0  0.77094033950E+02 -0.33083670818E+02 -0.23734598957E+03  0.25173624712E+03  0.00000000000E+00 0. -1.
        -12    1    4    4    0    0 -0.15549088770E+02  0.37635799452E+01 -0.13814513670E+03  0.13906839141E+03  0.00000000000E+00 0.  1.
</event>
<event>
12    1  0.8451514E-002  0.1850809E+03  0.7818608E-02  0.1162984E+00
         21   -1    0    0  503  502  0.00000000000E+00  0.00000000000E+00  0.73672618593E+02  0.73672618593E+02  0.00000000000E+00 0. -1.
         21   -1    0    0  501  503 -0.00000000000E+00 -0.00000000000E+00 -0.99092820086E+03  0.99092820086E+03  0.00000000000E+00 0. -1.
          6    2    1    2  501    0 -0.24898000739E+02  0.63087431951E+02 -0.84649917122E+03  0.86649627674E+03  0.17220631874E+03 0.  0.
         24    2    3    3    0    0 -0.57468619995E+02  0.91494977694E+02 -0.52437426217E+03  0.54145107846E+03  0.80789419541E+02 0.  0.
         -6    2    1    2    0  502  0.24898000739E+02 -0.63087431951E+02 -0.70756411044E+02  0.19810454271E+03  0.17215982583E+03 0.  0.
        -24    2    5    5    0    0  0.20742072977E+02  0.28544094336E+02 -0.10119847508E+02  0.88047779256E+02  0.80031251430E+02 0.  0.
          5    1    3    3  501    0  0.32570619256E+02 -0.28407545743E+02 -0.32212490905E+03  0.32504519828E+03  0.47000000000E+01 0. -1.
        -11    1    4    4    0    0 -0.32637915799E+00  0.20498633633E+02 -0.19087586043E+02  0.28011362786E+02  0.00000000000E+00 0.  1.
         12    1    4    4    0    0 -0.57142240837E+02  0.70996344061E+02 -0.50528667613E+03  0.51343971567E+03  0.00000000000E+00 0. -1.
         -5    1    5    5    0  502  0.41559277622E+01 -0.91631526287E+02 -0.60636563536E+02  0.11005676346E+03  0.47000000000E+01 0.  1.
         13    1    6    6    0    0 -0.26079231965E+02  0.89323695756E+01  0.15028701743E+02  0.31397061044E+02  0.00000000000E+00 0. -1.
        -14    1    6    6    0    0  0.46821304942E+02  0.19611724760E+02 -0.25148549251E+02  0.56650718212E+02  0.00000000000E+00 0.  1.
</event>
<event>
12    1  0.8451514E-002  0.1949139E+03  0.7818608E-02  0.1155547E+00
         21   -1    0    0  501  502  0.00000000000E+00  0.00000000000E+00  0.12631552254E+03  0.12631552254E+03  0.00000000000E+00 0. -1.
         21   -1    0    0  502  503 -0.00000000000E+00 -0.00000000000E+00 -0.31373333109E+03  0.31373333109E+03  0.00000000000E+00 0.  1.
         -6    2    1    2    0  503  0.56120429545E+02 -0.30760967640E+02 -0.15464301210E+03  0.24880895840E+03  0.18410784026E+03 0.  0.
        -24    2    3    3    0    0  0.56363932374E+02  0.25774401956E+02 -0.16257931098E+03  0.19152560874E+03  0.80055067144E+02 0.  0.
          6    2    1    2  501    0 -0.56120429545E+02  0.30760967640E+02 -0.32774796450E+02  0.19123989523E+03  0.17720826872E+03 0.  0.
         24    2    5    5    0    0 -0.19196311062E+02  0.86647717461E+02 -0.31573420656E+02  0.12408148075E+03  0.80765138975E+02 0.  0.
          5    1    5    5  501    0 -0.36924118483E+02 -0.55886749821E+02 -0.12013757941E+01  0.67158414478E+02  0.47000000000E+01 0. -1.
        -11    1    6    6    0    0 -0.26943967775E+02  0.55982450204E+02 -0.56370701715E+02  0.83890810833E+02  0.00000000000E+00 0.  1.
         12    1    6    6    0    0  0.77476567130E+01  0.30665267257E+02  0.24797281060E+02  0.40190669918E+02  0.00000000000E+00 0. -1.
         -5    1    3    3    0  503 -0.24350282944E+00 -0.56535369595E+02  0.79362988762E+01  0.57283349664E+02  0.47000000000E+01 0.  1.
         11    1    4    4    0    0  0.12499440010E+02  0.83615857493E+01 -0.13704279701E+03  0.13786544284E+03  0.00000000000E+00 0. -1.
        -12    1    4    4    0    0  0.43864492365E+02  0.17412816206E+02 -0.25536513968E+02  0.53660165899E+02  0.00000000000E+00 0.  1.
</event>
<event>
12    1  0.8451514E-002  0.2067527E+03  0.7818608E-02  0.1144902E+00
         21   -1    0    0  501  502  0.00000000000E+00  0.00000000000E+00  0.30865546849E+02  0.30865546849E+02  0.00000000000E+00 0. -1.
         21   -1    0    0  502  503 -0.00000000000E+00 -0.00000000000E+00 -0.14856116790E+04  0.14856116790E+04  0.00000000000E+00 0. -1.
         -6    2    1    2    0  503 -0.38007424286E+02 -0.10311644533E+03 -0.51348168799E+03  0.55354322890E+03  0.17512594540E+03 0.  0.
        -24    2    3    3    0    0 -0.50895948644E+02 -0.97727146168E+02 -0.21654571519E+03  0.25624166389E+03  0.81404857733E+02 0.  0.
          6    2    1    2  501    0  0.38007424286E+02  0.10311644533E+03 -0.94126444416E+03  0.96293399696E+03  0.17083782678E+03 0.  0.
         24    2    5    5    0    0  0.25676648431E+01  0.47762705669E+02 -0.22249856694E+03  0.24115391320E+03  0.79760445139E+02 0.  0.
          5    1    5    5  501    0  0.35439759443E+02  0.55353739661E+02 -0.71876587722E+03  0.72178008375E+03  0.47000000000E+01 0. -1.
        -11    1    6    6    0    0 -0.32114711968E+02  0.92449407624E+00 -0.53699368307E+02  0.62576605618E+02  0.00000000000E+00 0.  1.
         12    1    6    6    0    0  0.34682376811E+02  0.46838211593E+02 -0.16879919863E+03  0.17857730759E+03  0.00000000000E+00 0. -1.
         -5    1    3    3    0  503  0.12888524357E+02 -0.53892991617E+01 -0.29693597281E+03  0.29730156500E+03  0.47000000000E+01 0.  1.
         11    1    4    4    0    0 -0.21524219209E+02 -0.86656228852E+02 -0.93624242331E+02  0.12937578121E+03  0.00000000000E+00 0. -1.
        -12    1    4    4    0    0 -0.29371729435E+02 -0.11070917316E+02 -0.12292147285E+03  0.12686588268E+03  0.00000000000E+00 0.  1.
</event>
<event>
12    1  0.8451514E-002  0.2158444E+03  0.7818608E-02  0.1137111E+00
         21   -1    0    0  501  502  0.00000000000E+00  0.00000000000E+00  0.76882031190E+03  0.76882031190E+03  0.00000000000E+00 0.  1.
         21   -1    0    0  502  503 -0.00000000000E+00 -0.00000000000E+00 -0.62768339075E+02  0.62768339075E+02  0.00000000000E+00 0.  1.
         -6    2    1    2    0  503  0.56853863107E+02 -0.11695347791E+03  0.27373423622E+03  0.34859607020E+03  0.17227393982E+03 0.  0.
        -24    2    3    3    0    0  0.35897539778E+02  0.21332078741E+01  0.84549697619E+02  0.12402161515E+03  0.83303815755E+02 0.  0.
          6    2    1    2  501    0 -0.56853863107E+02  0.11695347791E+03  0.43231773661E+03  0.48299258077E+03  0.17167623582E+03 0.  0.
         24    2    5    5    0    0  0.17108552974E+02  0.11544608199E+03  0.26889075740E+03  0.30354013925E+03  0.78828144004E+02 0.  0.
          5    1    5    5  501    0 -0.73962416082E+02  0.15073959200E+01  0.16342697921E+03  0.17945244152E+03  0.47000000000E+01 0. -1.
        -13    1    6    6    0    0  0.37042933999E+01  0.12240223321E+03  0.25560809823E+03  0.28342817144E+03  0.00000000000E+00 0.  1.
         14    1    6    6    0    0  0.13404259574E+02 -0.69561512186E+01  0.13282659170E+02  0.20111967809E+02  0.00000000000E+00 0. -1.
         -5    1    3    3    0  503  0.20956323329E+02 -0.11908668578E+03  0.18918453860E+03  0.22457445505E+03  0.47000000000E+01 0.  1.
         13    1    4    4    0    0 -0.26121355302E+02 -0.51086117824E+01  0.14986780312E+02  0.30545485776E+02  0.00000000000E+00 0. -1.
        -14    1    4    4    0    0  0.62018895080E+02  0.72418196566E+01  0.69562917306E+02  0.93476129376E+02  0.00000000000E+00 0.  1.
</event>
<event>
12    1  0.8451514E-002  0.2175727E+03  0.7818608E-02  0.1136064E+00
         21   -1    0    0  501  502  0.00000000000E+00  0.00000000000E+00  0.24992955438E+04  0.24992955438E+04  0.00000000000E+00 0. -1.
         21   -1    0    0  502  503 -0.00000000000E+00 -0.00000000000E+00 -0.44275816886E+02  0.44275816886E+02  0.00000000000E+00 0.  1.
         -6    2    1    2    0  503 -0.12982191044E+03  0.18638720566E+01  0.26463289925E+03  0.34259081725E+03  0.17458721101E+03 0.  0.
        -24    2    3    3    0    0 -0.22925109226E+02  0.11365073672E+01  0.38117313187E+02  0.92073640393E+02  0.80608767567E+02 0.  0.
          6    2    1    2  501    0  0.12982191044E+03 -0.18638720566E+01  0.21903868276E+04  0.22009805434E+04  0.17223151670E+03 0.  0.
         24    2    5    5    0    0  0.50151263358E+02 -0.25936898688E+02  0.17571203252E+04  0.17597675849E+04  0.78244768107E+02 0.  0.
          5    1    5    5  501    0  0.79670647080E+02  0.24073026631E+02  0.43326650247E+03  0.44121295854E+03  0.47000000000E+01 0. -1.
        -13    1    6    6    0    0  0.23876694292E+02 -0.41492433522E+02  0.50235978280E+03  0.50463558133E+03  0.00000000000E+00 0.  1.
         14    1    6    6    0    0  0.26274569066E+02  0.15555534834E+02  0.12547605424E+04  0.12551320035E+04  0.00000000000E+00 0. -1.
         -5    1    3    3    0  503 -0.10689680121E+03  0.72736468949E+00  0.22651558607E+03  0.25051717686E+03  0.47000000000E+01 0.  1.
         13    1    4    4    0    0 -0.38741179657E+02  0.28624139893E+02  0.36287990723E+02  0.60307865628E+02  0.00000000000E+00 0. -1.
        -14    1    4    4    0    0  0.15816070432E+02 -0.27487632526E+02  0.18293224634E+01  0.31765774766E+02  0.00000000000E+00 0.  1.
</event>
<event>
12    1  0.8451514E-002  0.2789389E+03  0.7818608E-02  0.1096339E+00
         21   -1    0    0  501  502  0.00000000000E+00  0.00000000000E+00  0.97773759258E+03  0.97773759258E+03  0.00000000000E+00 0.  1.
         21   -1    0    0  502  503 -0.00000000000E+00 -0.00000000000E+00 -0.14432222686E+03  0.14432222686E+03  0.00000000000E+00 0. -1.
         -6    2    1    2    0  503 -0.27464815769E+02 -0.21768808935E+03  0.40732113592E+02  0.28189717779E+03  0.17223383354E+03 0.  0.
        -24    2    3    3    0    0  0.24945401488E+02 -0.20099986833E+03  0.54974682764E+02  0.22488605282E+03  0.80797901466E+02 0.  0.
          6    2    1    2  501    0  0.27464815769E+02  0.21768808935E+03  0.79268325213E+03  0.84016264165E+03  0.17141792751E+03 0.  0.
         24    2    5    5    0    0  0.57392296681E+02  0.94058041885E+02  0.26005439383E+03  0.29253536563E+03  0.76209326416E+02 0.  0.
          5    1    5    5  501    0 -0.29927480911E+02  0.12363004746E+03  0.53262885830E+03  0.54762727602E+03  0.47000000000E+01 0. -1.
        -13    1    6    6    0    0  0.69792686997E+02  0.58946582645E+02  0.21798170905E+03  0.23635089220E+03  0.00000000000E+00 0.  1.
         14    1    6    6    0    0 -0.12400390316E+02  0.35111459240E+02  0.42072684778E+02  0.56184473428E+02  0.00000000000E+00 0. -1.
         -5    1    3    3    0  503 -0.52410217257E+02 -0.16688221015E+02 -0.14242569172E+02  0.57011124969E+02  0.47000000000E+01 0.  1.
         11    1    4    4    0    0  0.26024411994E+02 -0.64555939715E+02 -0.15505228427E+02  0.71310248076E+02  0.00000000000E+00 0. -1.
        -12    1    4    4    0    0 -0.10790105062E+01 -0.13644392862E+03  0.70479911190E+02  0.15357580474E+03  0.00000000000E+00 0.  1.
</event>
<event>
12    1  0.8451514E-002  0.2508650E+03  0.7818608E-02  0.1112818E+00
         21   -1    0    0  503  502  0.00000000000E+00  0.00000000000E+00  0.22234476123E+03  0.22234476123E+03  0.00000000000E+00 0.  1.
         21   -1    0    0  501  503 -0.00000000000E+00 -0.00000000000E+00 -0.48095953135E+03  0.48095953135E+03  0.00000000000E+00 0. -1.
          6    2    1    2  501    0  0.17467669162E+03 -0.53068978738E+02 -0.35506913971E+03  0.43453539976E+03  0.17151867704E+03 0.  0.
         24    2    3    3    0    0  0.10904373825E+03 -0.98541420127E+02 -0.22336062971E+03  0.28044241128E+03  0.84599212798E+02 0.  0.
         -6    2    1    2    0  502 -0.17467669162E+03  0.53068978738E+02  0.96454369595E+02  0.26876889282E+03  0.17206106253E+03 0.  0.
        -24    2    5    5    0    0 -0.88526209325E+02 -0.25965926353E+02  0.23082041758E+02  0.13066020260E+03  0.89600160849E+02 0.  0.
          5    1    3    3  501    0  0.65632953361E+02  0.45472441389E+02 -0.13170851000E+03  0.15409298848E+03  0.47000000000E+01 0. -1.
        -13    1    4    4    0    0  0.77310230144E+02 -0.57322598899E+02 -0.71432722135E+02  0.11985568748E+03  0.00000000000E+00 0.  1.
         14    1    4    4    0    0  0.31733508110E+02 -0.41218821228E+02 -0.15192790758E+03  0.16058672380E+03  0.00000000000E+00 0. -1.
         -5    1    5    5    0  502 -0.86150482290E+02  0.79034905091E+02  0.73372327837E+02  0.13810869022E+03  0.47000000000E+01 0.  1.
         13    1    6    6    0    0 -0.81154720979E+02 -0.37261189776E+01 -0.18143823619E+02  0.83241642435E+02  0.00000000000E+00 0. -1.
        -14    1    6    6    0    0 -0.73714883464E+01 -0.22239807375E+02  0.41225865377E+02  0.47418560170E+02  0.00000000000E+00 0.  1.
</event>
<event>
12    1  0.8451514E-002  0.2114299E+03  0.7818608E-02  0.1140907E+00
         21   -1    0    0  503  502  0.00000000000E+00  0.00000000000E+00  0.16864047917E+03  0.16864047917E+03  0.00000000000E+00 0.  1.
         21   -1    0    0  501  503 -0.00000000000E+00 -0.00000000000E+00 -0.28255037876E+03  0.28255037876E+03  0.00000000000E+00 0. -1.
          6    2    1    2  501    0 -0.11503421672E+02  0.11834229716E+03  0.34191734683E+01  0.21145752953E+03  0.17482953995E+03 0.  0.
         24    2    3    3    0    0 -0.45779271577E+02  0.13623527238E+03 -0.14424591742E+02  0.16861499919E+03  0.86989412915E+02 0.  0.
         -6    2    1    2    0  502  0.11503421672E+02 -0.11834229716E+03 -0.11732907306E+03  0.23973332839E+03  0.17195560285E+03 0.  0.
        -24    2    5    5    0    0 -0.25792568216E+02 -0.14018595110E+03 -0.10469436654E+03  0.19445792792E+03  0.80843168440E+02 0.  0.
          5    1    3    3  501    0  0.34275849905E+02 -0.17892975218E+02  0.17843765210E+02  0.42842530338E+02  0.47000000000E+01 0. -1.
        -13    1    4    4    0    0  0.20776605637E+02  0.47544905793E+02  0.14775226930E+02  0.53948982747E+02  0.00000000000E+00 0.  1.
         14    1    4    4    0    0 -0.66555877213E+02  0.88690366588E+02 -0.29199818672E+02  0.11466601645E+03  0.00000000000E+00 0. -1.
         -5    1    5    5    0  502  0.37295989888E+02  0.21843653942E+02 -0.12634706511E+02  0.45275400472E+02  0.47000000000E+01 0.  1.
         13    1    6    6    0    0 -0.90176508287E+01 -0.30716925445E+02 -0.72300051271E+02  0.79070506189E+02  0.00000000000E+00 0. -1.
        -14    1    6    6    0    0 -0.16774917387E+02 -0.10946902566E+03 -0.32394315274E+02  0.11538742173E+03  0.00000000000E+00 0.  1.
</event>
<event>
12    1  0.8451514E-002  0.2078703E+03  0.7818608E-02  0.1143582E+00
         21   -1    0    0  503  502  0.00000000000E+00  0.00000000000E+00  0.75142687634E+03  0.75142687634E+03  0.00000000000E+00 0. -1.
         21   -1    0    0  501  503 -0.00000000000E+00 -0.00000000000E+00 -0.99511455604E+02  0.99511455604E+02  0.00000000000E+00 0. -1.
          6    2    1    2  501    0 -0.44759626442E+01 -0.11602334469E+03  0.60453621499E+03  0.63927623254E+03  0.17241988140E+03 0.  0.
         24    2    3    3    0    0 -0.32276937850E+02 -0.70861741684E+02  0.55612482875E+03  0.56731640398E+03  0.80683888877E+02 0.  0.
         -6    2    1    2    0  502  0.44759626442E+01  0.11602334469E+03  0.47379205744E+02  0.21166209940E+03  0.17051276912E+03 0.  0.
        -24    2    5    5    0    0  0.50469128960E+02  0.11839396486E+03  0.85660242345E+01  0.15125064149E+03  0.78988074343E+02 0.  0.
          5    1    3    3  501    0  0.27800975206E+02 -0.45161603004E+02  0.48411386242E+02  0.71959828558E+02  0.47000000000E+01 0. -1.
        -11    1    4    4    0    0 -0.32126916028E+02 -0.48152942736E+02  0.15350738347E+03  0.16405901806E+03  0.00000000000E+00 0.  1.
         12    1    4    4    0    0 -0.15002182196E+00 -0.22708798948E+02  0.40261744528E+03  0.40325738592E+03  0.00000000000E+00 0. -1.
         -5    1    5    5    0  502 -0.45993166316E+02 -0.23706201689E+01  0.38813181510E+02  0.60411457909E+02  0.47000000000E+01 0.  1.
         13    1    6    6    0    0  0.67369979765E+01  0.47073802518E+02 -0.32951967880E+02  0.57854664569E+02  0.00000000000E+00 0. -1.
        -14    1    6    6    0    0  0.43732130984E+02  0.71320162339E+02  0.41517992115E+02  0.93395976924E+02  0.00000000000E+00 0.  1.
</event>
<event>
12    1  0.8451514E-002  0.2115119E+03  0.7818608E-02  0.1140375E+00
         21   -1    0    0  503  502  0.00000000000E+00  0.00000000000E+00  0.21470882985E+03  0.21470882985E+03  0.00000000000E+00 0. -1.
         21   -1    0    0  501  503 -0.00000000000E+00 -0.00000000000E+00 -0.80107605484E+03  0.80107605484E+03  0.00000000000E+00 0.  1.
          6    2    1    2  501    0  0.10412516408E+03 -0.66736779180E+02 -0.73005918719E+03  0.76008063900E+03  0.17158179822E+03 0.  0.
         24    2    3    3    0    0  0.79902711748E+02 -0.57335058334E+02 -0.72050297286E+03  0.73199984869E+03  0.83830139682E+02 0.  0.
         -6    2    1    2    0  502 -0.10412516408E+03  0.66736779180E+02  0.14369196221E+03  0.25570424569E+03  0.17158506278E+03 0.  0.
        -24    2    5    5    0    0 -0.11264842038E+03  0.70186753679E+01  0.13489379892E+03  0.19456182589E+03  0.83180759142E+02 0.  0.
          5    1    3    3  501    0  0.24222452331E+02 -0.94017208464E+01 -0.95562143305E+01  0.28080790305E+02  0.47000000000E+01 0. -1.
        -13    1    4    4    0    0  0.14503191262E+02 -0.56151700456E+02 -0.23207822546E+03  0.23921467086E+03  0.00000000000E+00 0.  1.
         14    1    4    4    0    0  0.65399520486E+02 -0.11833578774E+01 -0.48842474740E+03  0.49278517783E+03  0.00000000000E+00 0. -1.
         -5    1    5    5    0  502  0.85232562965E+01  0.59718103812E+02  0.87981632889E+01  0.61142419793E+02  0.47000000000E+01 0.  1.
         13    1    6    6    0    0 -0.78902963775E+02  0.14400880124E+02  0.32574524437E+02  0.86568832053E+02  0.00000000000E+00 0. -1.
        -14    1    6    6    0    0 -0.33745456600E+02 -0.73822047564E+01  0.10231927448E+03  0.10799299384E+03  0.00000000000E+00 0.  1.
</event>
<event>
12    1  0.8451514E-002  0.2003986E+03  0.7818608E-02  0.1149470E+00
         21   -1    0    0  503  502  0.00000000000E+00  0.00000000000E+00  0.98780808841E+03  0.98780808841E+03  0.00000000000E+00 0.  1.
         21   -1    0    0  501  503 -0.00000000000E+00 -0.00000000000E+00 -0.76047464265E+02  0.76047464265E+02  0.00000000000E+00 0.  1.
          6    2    1    2  501    0 -0.29373823746E+01 -0.10189732799E+03  0.92477331288E+02  0.22041929863E+03  0.17216537614E+03 0.  0.
         24    2    3    3    0    0  0.37877178982E+02 -0.12464921502E+03  0.68742371478E+02  0.16779881689E+03  0.80366795504E+02 0.  0.
         -6    2    1    2    0  502  0.29373823746E+01  0.10189732799E+03  0.81928329286E+03  0.84343625405E+03  0.17253378513E+03 0.  0.
        -24    2    5    5    0    0 -0.18139701631E+02  0.12436802125E+03  0.77630456236E+03  0.79034730226E+03  0.78763133324E+02 0.  0.
          5    1    3    3  501    0 -0.40814561357E+02  0.22751887031E+02  0.23734959809E+02  0.52620481747E+02  0.47000000000E+01 0. -1.
        -13    1    4    4    0    0  0.42398058648E+02 -0.97077333020E+02  0.14681399501E+02  0.10694459993E+03  0.00000000000E+00 0.  1.
         14    1    4    4    0    0 -0.45208796659E+01 -0.27571881998E+02  0.54060971978E+02  0.60854216953E+02  0.00000000000E+00 0. -1.
         -5    1    5    5    0  502  0.21077084005E+02 -0.22470693261E+02  0.42978730502E+02  0.53088951783E+02  0.47000000000E+01 0.  1.
         11    1    6    6    0    0 -0.11281847510E+02  0.16452931901E+02  0.28636481413E+02  0.34900245258E+02  0.00000000000E+00 0. -1.
        -12    1    6    6    0    0 -0.68578541208E+01  0.10791508935E+03  0.74766808095E+03  0.75544705701E+03  0.00000000000E+00 0.  1.
</event>
<event>
12    1  0.8451514E-002  0.3310795E+03  0.7818608E-02  0.1070709E+00
         21   -1    0    0  503  502  0.00000000000E+00  0.00000000000E+00  0.12683027934E+04  0.12683027934E+04  0.00000000000E+00 0. -1.
         21   -1    0    0  501  503 -0.00000000000E+00 -0.00000000000E+00 -0.12029086809E+03  0.12029086809E+03  0.00000000000E+00 0.  1.
          6    2    1    2  501    0 -0.27987468724E+03  0.37817418128E+02  0.94275058361E+03  0.99904799064E+03  0.17192506227E+03 0.  0.
         24    2    3    3    0    0 -0.23227071866E+03  0.73365882868E+02  0.61869789919E+03  0.66956041356E+03  0.78688102216E+02 0.  0.
         -6    2    1    2    0  502  0.27987468724E+03 -0.37817418128E+02  0.20526134169E+03  0.38954567084E+03  0.17278198288E+03 0.  0.
        -24    2    5    5    0    0  0.21596847426E+03 -0.48904333129E+02  0.79989258931E+02  0.24839997144E+03  0.79184901290E+02 0.  0.
          5    1    3    3  501    0 -0.47603968579E+02 -0.35548464740E+02  0.32405268443E+03  0.32948757708E+03  0.47000000000E+01 0. -1.
        -13    1    4    4    0    0 -0.51548755836E+02  0.49178982986E+02  0.21754712687E+03  0.22891613968E+03  0.00000000000E+00 0.  1.
         14    1    4    4    0    0 -0.18072196282E+03  0.24186899881E+02  0.40115077232E+03  0.44064427388E+03  0.00000000000E+00 0. -1.
         -5    1    5    5    0  502  0.63906212975E+02  0.11086915001E+02  0.12527208276E+03  0.14114569940E+03  0.47000000000E+01 0.  1.
         13    1    6    6    0    0  0.39889469466E+02  0.40488086595E+01  0.46684943375E+02  0.61538984097E+02  0.00000000000E+00 0. -1.
        -14    1    6    6    0    0  0.17607900480E+03 -0.52953141789E+02  0.33304315556E+02  0.18686098734E+03  0.00000000000E+00 0.  1.
</event>
<event>
12    1  0.8451514E-002  0.2210134E+03  0.7818608E-02  0.1133436E+00
         21   -1    0    0  503  502  0.00000000000E+00  0.00000000000E+00  0.18445871523E+02  0.18445871523E+02  0.00000000000E+00 0. -1.
         21   -1    0    0  501  503 -0.00000000000E+00 -0.00000000000E+00 -0.27061568568E+04  0.27061568568E+04  0.00000000000E+00 0.  1.
          6    2    1    2  501    0 -0.73533843160E+02 -0.11672507968E+03 -0.15698834812E+04  0.15851356371E+04  0.17055460501E+03 0.  0.
         24    2    3    3    0    0 -0.44851201696E+02 -0.76642943702E+02 -0.51011615445E+03  0.52421238432E+03  0.81819079245E+02 0.  0.
         -6    2    1    2    0  502  0.73533843160E+02  0.11672507968E+03 -0.11178275041E+04  0.11394670912E+04  0.17267006888E+03 0.  0.
        -24    2    5    5    0    0  0.96535241781E+02  0.72697850672E+02 -0.52491102645E+03  0.54445490586E+03  0.79344366087E+02 0.  0.
          5    1    3    3  501    0 -0.28682641463E+02 -0.40082135975E+02 -0.10597673267E+04  0.10609232528E+04  0.47000000000E+01 0. -1.
        -11    1    4    4    0    0  0.10193817928E+02 -0.43173202966E+02 -0.32906064643E+03  0.33203726960E+03  0.00000000000E+00 0.  1.
         12    1    4    4    0    0 -0.55045019624E+02 -0.33469740736E+02 -0.18105550802E+03  0.19217511472E+03  0.00000000000E+00 0. -1.
         -5    1    5    5    0  502 -0.23001398621E+02  0.44027229005E+02 -0.59291647761E+03  0.59501218530E+03  0.47000000000E+01 0.  1.
         11    1    6    6    0    0 -0.46770984668E+00 -0.73242787484E+01 -0.35680343018E+01  0.81605563820E+01  0.00000000000E+00 0. -1.
        -12    1    6    6    0    0  0.97002951627E+02  0.80022129420E+02 -0.52134299215E+03  0.53629434948E+03  0.00000000000E+00 0.  1.
</event>
<event>
12    1  0.8451514E-002  0.1975756E+03  0.7818608E-02  0.1151814E+00
         21   -1    0    0  501  502  0.00000000000E+00  0.00000000000E+00  0.78031398840E+02  0.78031398840E+02  0.00000000000E+00 0.  1.
         21   -1    0    0  502  503 -0.00000000000E+00 -0.00000000000E+00 -0.72893766755E+03  0.72893766755E+03  0.00000000000E+00 0.  1.
         -6    2    1    2    0  503  0.13923497537E+02 -0.97298880690E+02 -0.55148731754E+03  0.58578982327E+03  0.17131993368E+03 0.  0.
        -24    2    3    3    0    0  0.27081638334E+02  0.17454151959E+02 -0.29394574242E+03  0.30349361699E+03  0.68309688229E+02 0.  0.
          6    2    1    2  501    0 -0.13923497537E+02  0.97298880690E+02 -0.99418951173E+02  0.22117924312E+03  0.17139193029E+03 0.  0.
         24    2    5    5    0    0  0.19531059506E+02  0.29197717272E+02  0.91193398162E+01  0.88666502387E+02  0.80898809061E+02 0.  0.
          5    1    5    5  501    0 -0.33454557043E+02  0.68101163417E+02 -0.10853829099E+03  0.13251274073E+03  0.47000000000E+01 0. -1.
        -11    1    6    6    0    0  0.50928068639E+02  0.22499323806E+02  0.99173258108E+01  0.56552993716E+02  0.00000000000E+00 0.  1.
         12    1    6    6    0    0 -0.31397009133E+02  0.66983934665E+01 -0.79798599460E+00  0.32113508671E+02  0.00000000000E+00 0. -1.
         -5    1    3    3    0  503 -0.13158140797E+02 -0.11475303265E+03 -0.25754157511E+03  0.28229620628E+03  0.47000000000E+01 0.  1.
         13    1    4    4    0    0  0.44782200080E+02 -0.65627853906E+01 -0.19266999883E+03  0.19791473933E+03  0.00000000000E+00 0. -1.
        -14    1    4    4    0    0 -0.17700561746E+02  0.24016937349E+02 -0.10127574359E+03  0.10557887765E+03  0.00000000000E+00 0.  1.
</event>
<event>
12    1  0.8451514E-002  0.2368126E+03  0.7818608E-02  0.1121965E+00
         21   -1    0    0  503  502  0.00000000000E+00  0.00000000000E+00  0.20352416277E+03  0.20352416277E+03  0.00000000000E+00 0.  1.
         21   -1    0    0  501  503 -0.00000000000E+00 -0.00000000000E+00 -0.68497168415E+03  0.68497168415E+03  0.00000000000E+00 0. -1.
          6    2    1    2  501    0 -0.20883263501E+02 -0.16210366218E+03 -0.58430884367E+03  0.63047365276E+03  0.17136654878E+03 0.  0.
         24    2    3    3    0    0  0.33779507089E+02 -0.43561559685E+02 -0.32009037957E+03  0.33573014507E+03  0.84960076693E+02 0.  0.
         -6    2    1    2    0  502  0.20883263501E+02  0.16210366218E+03  0.10286132229E+03  0.25802219416E+03  0.17111777543E+03 0.  0.
        -24    2    5    5    0    0 -0.52601000132E+02  0.87638515929E+02  0.61487049329E+02  0.14542150379E+03  0.83182821789E+02 0.  0.
          5    1    3    3  501    0 -0.54662770590E+02 -0.11854210249E+03 -0.26421846410E+03  0.29474350769E+03  0.47000000000E+01 0. -1.
        -13    1    4    4    0    0 -0.14327131606E+02 -0.26905632937E+01 -0.66964000899E+01  0.16042057383E+02  0.00000000000E+00 0.  1.
         14    1    4    4    0    0  0.48106638696E+02 -0.40870996391E+02 -0.31339397948E+03  0.31968808769E+03  0.00000000000E+00 0. -1.
         -5    1    5    5    0  502  0.73484263633E+02  0.74465146251E+02  0.41374272964E+02  0.11260069037E+03  0.47000000000E+01 0.  1.
         13    1    6    6    0    0  0.32507898952E+01  0.60779171428E+02  0.41755618634E+01  0.61009102856E+02  0.00000000000E+00 0. -1.
        -14    1    6    6    0    0 -0.55851790027E+02  0.26859344501E+02  0.57311487466E+02  0.84412400936E+02  0.00000000000E+00 0.  1.
</event>
<event>
12    1  0.8451514E-002  0.2607726E+03  0.7818608E-02  0.1106705E+00
         21   -1    0    0  503  502  0.00000000000E+00  0.00000000000E+00  0.65933587266E+02  0.65933587266E+02  0.00000000000E+00 0.  1.
         21   -1    0    0  501  503 -0.00000000000E+00 -0.00000000000E+00 -0.10543557676E+04  0.10543557676E+04  0.00000000000E+00 0. -1.
          6    2    1    2  501    0  0.17706717079E+03 -0.86039582988E+02 -0.41048314829E+03  0.48631137555E+03  0.17101680077E+03 0.  0.
         24    2    3    3    0    0  0.29551321948E+02 -0.46630627943E+02 -0.23266185362E+03  0.25188336051E+03  0.79158025996E+02 0.  0.
         -6    2    1    2    0  502 -0.17706717079E+03  0.86039582988E+02 -0.57793903207E+03  0.63397797934E+03  0.17075995049E+03 0.  0.
        -24    2    5    5    0    0 -0.13496248616E+03  0.12990123069E+03 -0.46271949569E+03  0.50361586763E+03  0.66561310321E+02 0.  0.
          5    1    3    3  501    0  0.14751584884E+03 -0.39408955045E+02 -0.17782129468E+03  0.23442801505E+03  0.47000000000E+01 0. -1.
        -13    1    4    4    0    0 -0.23648972978E+02  0.24884776443E+01 -0.66754187715E+02  0.70863164066E+02  0.00000000000E+00 0.  1.
         14    1    4    4    0    0  0.53200294926E+02 -0.49119105587E+02 -0.16590766590E+03  0.18102019644E+03  0.00000000000E+00 0. -1.
         -5    1    5    5    0  502 -0.42104684632E+02 -0.43861647701E+02 -0.11521953638E+03  0.13036211171E+03  0.47000000000E+01 0.  1.
         13    1    6    6    0    0 -0.17719262259E+01  0.34047412186E+02 -0.95377175996E+02  0.10128756933E+03  0.00000000000E+00 0. -1.
        -14    1    6    6    0    0 -0.13319055993E+03  0.95853818502E+02 -0.36734231970E+03  0.40232829831E+03  0.00000000000E+00 0.  1.
</event>
<event>
12    1  0.8451514E-002  0.2692700E+03  0.7818608E-02  0.1101708E+00
         21   -1    0    0  501  502  0.00000000000E+00  0.00000000000E+00  0.67494015272E+03  0.67494015272E+03  0.00000000000E+00 0.  1.
         21   -1    0    0  502  503 -0.00000000000E+00 -0.00000000000E+00 -0.11047036831E+03  0.11047036831E+03  0.00000000000E+00 0. -1.
         -6    2    1    2    0  503  0.26704812695E+02 -0.20435408925E+03  0.21679043011E+03  0.34569408667E+03  0.17329907719E+03 0.  0.
        -24    2    3    3    0    0 -0.15311194141E+02 -0.74566697545E+02  0.16789751599E+03  0.20070195265E+03  0.79354098021E+02 0.  0.
          6    2    1    2  501    0 -0.26704812695E+02  0.20435408925E+03  0.34767935430E+03  0.43971643436E+03  0.17319315351E+03 0.  0.
         24    2    5    5    0    0  0.48965954697E+02  0.82392307477E+02  0.18106179099E+03  0.21975224715E+03  0.79507992806E+02 0.  0.
          5    1    5    5  501    0 -0.75670767392E+02  0.12196178177E+03  0.16661756331E+03  0.21996418720E+03  0.47000000000E+01 0. -1.
        -13    1    6    6    0    0 -0.21388872820E+02  0.10714251907E+02  0.39520013198E+02  0.46196434036E+02  0.00000000000E+00 0.  1.
         14    1    6    6    0    0  0.70354827517E+02  0.71678055569E+02  0.14154177780E+03  0.17355581312E+03  0.00000000000E+00 0. -1.
         -5    1    3    3    0  503  0.42016006835E+02 -0.12978739170E+03  0.48892914120E+02  0.14499213402E+03  0.47000000000E+01 0.  1.
         13    1    4    4    0    0  0.73479097375E+01 -0.31341300943E+02  0.75128907305E+01  0.33056201377E+02  0.00000000000E+00 0. -1.
        -14    1    4    4    0    0 -0.22659103878E+02 -0.43225396602E+02  0.16038462526E+03  0.16764575128E+03  0.00000000000E+00 0.  1.
</event>
<event>
12    1  0.8451514E-002  0.2458664E+03  0.7818608E-02  0.1116142E+00
         21   -1    0    0  501  502  0.00000000000E+00  0.00000000000E+00  0.30488568543E+03  0.30488568543E+03  0.00000000000E+00 0.  1.
         21   -1    0    0  502  503 -0.00000000000E+00 -0.00000000000E+00 -0.23657424105E+03  0.23657424105E+03  0.00000000000E+00 0.  1.
         -6    2    1    2    0  503  0.56610017711E+02  0.16540095065E+03 -0.76092408247E+02  0.25737195255E+03  0.17288174798E+03 0.  0.
        -24    2    3    3    0    0  0.34815894440E+02  0.23976088830E+02  0.53567081408E+01  0.92653939235E+02  0.82274289985E+02 0.  0.
          6    2    1    2  501    0 -0.56610017711E+02 -0.16540095065E+03  0.14440385263E+03  0.28408797393E+03  0.17114711712E+03 0.  0.
         24    2    5    5    0    0 -0.10155026354E+03 -0.14219350596E+03  0.96725477990E+02  0.21442070333E+03  0.78031857365E+02 0.  0.
          5    1    5    5  501    0  0.44940245828E+02 -0.23207444686E+02  0.47678374641E+02  0.69667270597E+02  0.47000000000E+01 0. -1.
        -13    1    6    6    0    0 -0.38928264992E+02 -0.63414357167E+02  0.85212341946E+02  0.11312795291E+03  0.00000000000E+00 0.  1.
         14    1    6    6    0    0 -0.62621998547E+02 -0.78779148792E+02  0.11513136045E+02  0.10129275042E+03  0.00000000000E+00 0. -1.
         -5    1    3    3    0  503  0.21794123271E+02  0.14142486182E+03 -0.81449116388E+02  0.16471801331E+03  0.47000000000E+01 0.  1.
         11    1    4    4    0    0  0.57250021631E+02  0.95315862995E+01  0.21004458616E+02  0.61721984705E+02  0.00000000000E+00 0. -1.
        -12    1    4    4    0    0 -0.22434127191E+02  0.14444502531E+02 -0.15647750476E+02  0.30931954531E+02  0.00000000000E+00 0.  1.
</event>
<event>
12    1  0.8451514E-002  0.1859564E+03  0.7818608E-02  0.1162281E+00
         21   -1    0    0  501  502  0.00000000000E+00  0.00000000000E+00  0.39722537641E+02  0.39722537641E+02  0.00000000000E+00 0.  1.
         21   -1    0    0  502  503 -0.00000000000E+00 -0.00000000000E+00 -0.88120091530E+03  0.88120091530E+03  0.00000000000E+00 0.  1.
         -6    2    1    2    0  503  0.64799483737E+02 -0.28191947954E+02 -0.47746459544E+03  0.51239850759E+03  0.17200590589E+03 0.  0.
        -24    2    3    3    0    0 -0.30563787472E+02 -0.22025721858E+02 -0.20185490245E+03  0.22065380976E+03  0.80767719988E+02 0.  0.
          6    2    1    2  501    0 -0.64799483737E+02  0.28191947954E+02 -0.36401378222E+03  0.40852494535E+03  0.17144339680E+03 0.  0.
         24    2    5    5    0    0 -0.10128454547E+03  0.51739273508E+02 -0.30321195348E+03  0.33366114470E+03  0.80353961787E+02 0.  0.
          5    1    5    5  501    0  0.36485061729E+02 -0.23547325554E+02 -0.60801828733E+02  0.74863800648E+02  0.47000000000E+01 0. -1.
        -11    1    6    6    0    0 -0.52989773487E+02  0.63989416674E+02 -0.23452539648E+03  0.24880659785E+03  0.00000000000E+00 0.  1.
         12    1    6    6    0    0 -0.48294771978E+02 -0.12250143166E+02 -0.68686557002E+02  0.84854546849E+02  0.00000000000E+00 0. -1.
         -5    1    3    3    0  503  0.95363271208E+02 -0.61662260963E+01 -0.27560969299E+03  0.29174469782E+03  0.47000000000E+01 0.  1.
         13    1    4    4    0    0 -0.13446985869E+02 -0.30637786763E+02 -0.22597038182E+02  0.40374763668E+02  0.00000000000E+00 0. -1.
        -14    1    4    4    0    0 -0.17116801602E+02  0.86120649046E+01 -0.17925786427E+03  0.18027904610E+03  0.00000000000E+00 0.  1.
</event>
<event>
12    1  0.8451514E-002  0.2104329E+03  0.7818608E-02  0.1141727E+00
         21   -1    0    0  503  502  0.00000000000E+00  0.00000000000E+00  0.44742716361E+02  0.44742716361E+02  0.00000000000E+00 0.  1.
         21   -1    0    0  501  503 -0.00000000000E+00 -0.00000000000E+00 -0.97846372527E+03  0.97846372527E+03  0.00000000000E+00 0. -1.
          6    2    1    2  501    0 -0.48676590067E+02 -0.11002127163E+03 -0.45105395524E+03  0.49666159190E+03  0.16955522906E+03 0.  0.
         24    2    3    3    0    0  0.10064544789E+02 -0.73847632982E+02 -0.38860866073E+03  0.40349208046E+03  0.78958215767E+02 0.  0.
         -6    2    1    2    0  502  0.48676590067E+02  0.11002127163E+03 -0.48266705366E+03  0.52654484972E+03  0.17264965522E+03 0.  0.
        -24    2    5    5    0    0  0.93214147384E+02  0.49301603616E+02 -0.31643301884E+03  0.34398988148E+03  0.84140702157E+02 0.  0.
          5    1    3    3  501    0 -0.58741134855E+02 -0.36173638643E+02 -0.62445294510E+02  0.93169511446E+02  0.47000000000E+01 0. -1.
        -13    1    4    4    0    0  0.34189866977E+02 -0.46737596603E+01 -0.14844833551E+03  0.15240636256E+03  0.00000000000E+00 0.  1.
         14    1    4    4    0    0 -0.24125322188E+02 -0.69173873322E+02 -0.24016032522E+03  0.25108571790E+03  0.00000000000E+00 0. -1.
         -5    1    5    5    0  502 -0.44537557317E+02  0.60719668009E+02 -0.16623403483E+03  0.18255496824E+03  0.47000000000E+01 0.  1.
         13    1    6    6    0    0 -0.95392545897E+01  0.86353905447E+01 -0.10149643961E+03  0.10230881977E+03  0.00000000000E+00 0. -1.
        -14    1    6    6    0    0  0.10275340197E+03  0.40666213072E+02 -0.21493657922E+03  0.24168106171E+03  0.00000000000E+00 0.  1.
</event>
<event>
12    1  0.8451514E-002  0.2770082E+03  0.7818608E-02  0.1097459E+00
         21   -1    0    0  503  502  0.00000000000E+00  0.00000000000E+00  0.14261833288E+03  0.14261833288E+03  0.00000000000E+00 0. -1.
         21   -1    0    0  501  503 -0.00000000000E+00 -0.00000000000E+00 -0.55129963220E+03  0.55129963220E+03  0.00000000000E+00 0. -1.
          6    2    1    2  501    0 -0.19572748707E+02  0.21626047339E+03 -0.26190892371E+03  0.38122146081E+03  0.17199370052E+03 0.  0.
         24    2    3    3    0    0  0.52570813134E+02  0.93458196375E+02 -0.14100178895E+03  0.19433722394E+03  0.79920756111E+02 0.  0.
         -6    2    1    2    0  502  0.19572748707E+02 -0.21626047339E+03 -0.14677237561E+03  0.31269650428E+03  0.17054409606E+03 0.  0.
        -24    2    5    5    0    0  0.69000538649E+02 -0.18505422252E+03 -0.90018386932E+02  0.23108742547E+03  0.79321804199E+02 0.  0.
          5    1    3    3  501    0 -0.72143561841E+02  0.12280227702E+03 -0.12090713476E+03  0.18688423687E+03  0.47000000000E+01 0. -1.
        -11    1    4    4    0    0  0.28920934669E+02  0.19406454488E+01 -0.61089040352E+01  0.29622715531E+02  0.00000000000E+00 0.  1.
         12    1    4    4    0    0  0.23649878464E+02  0.91517550927E+02 -0.13489288492E+03  0.16471450841E+03  0.00000000000E+00 0. -1.
         -5    1    5    5    0  502 -0.49427789942E+02 -0.31206250875E+02 -0.56753988676E+02  0.81609078802E+02  0.47000000000E+01 0.  1.
         13    1    6    6    0    0  0.31021733738E+02 -0.42159467617E+02  0.90375175189E+01  0.53117279644E+02  0.00000000000E+00 0. -1.
        -14    1    6    6    0    0  0.37978804911E+02 -0.14289475490E+03 -0.99055904451E+02  0.17797014583E+03  0.00000000000E+00 0.  1.
</event>
<event>
12    1  0.8451514E-002  0.1766703E+03  0.7818608E-02  0.1171276E+00
         21   -1    0    0  501  502  0.00000000000E+00  0.00000000000E+00  0.15750197871E+04  0.15750197871E+04  0.00000000000E+00 0. -1.
         21   -1    0    0  502  503 -0.00000000000E+00 -0.00000000000E+00 -0.25140514311E+02  0.25140514311E+02  0.00000000000E+00 0. -1.
         -6    2    1    2    0  503  0.35202307761E+02  0.20206553845E+02  0.40204112022E+03  0.43880555949E+03  0.17107235137E+03 0.  0.
        -24    2    3    3    0    0  0.21938416130E+02  0.78223399641E+02  0.29207418327E+03  0.31367881399E+03  0.80541141409E+02 0.  0.
          6    2    1    2  501    0 -0.35202307761E+02 -0.20206553845E+02  0.11478381526E+04  0.11613547419E+04  0.17194448174E+03 0.  0.
         24    2    5    5    0    0 -0.66487184797E+02  0.32799736604E+02  0.87621360762E+03  0.88280421908E+03  0.78080948886E+02 0.  0.
          5    1    5    5  501    0  0.31284877036E+02 -0.53006290449E+02  0.27162454497E+03  0.27855052287E+03  0.47000000000E+01 0. -1.
        -11    1    6    6    0    0 -0.15574842571E+02  0.33779460616E+02  0.14082723913E+03  0.14565692212E+03  0.00000000000E+00 0.  1.
         12    1    6    6    0    0 -0.50912342226E+02 -0.97972401132E+00  0.73538636849E+03  0.73714729696E+03  0.00000000000E+00 0. -1.
         -5    1    3    3    0  503  0.13263891630E+02 -0.58016845796E+02  0.10996693694E+03  0.12512674549E+03  0.47000000000E+01 0.  1.
         11    1    4    4    0    0  0.27803458242E+02  0.72206560340E+02  0.12926376137E+03  0.15065171639E+03  0.00000000000E+00 0. -1.
        -12    1    4    4    0    0 -0.58650421116E+01  0.60168393009E+01  0.16281042190E+03  0.16302709760E+03  0.00000000000E+00 0.  1.
</event>
<event>
12    1  0.8451514E-002  0.2257059E+03  0.7818608E-02  0.1130504E+00
         21   -1    0    0  501  502  0.00000000000E+00  0.00000000000E+00  0.17238762791E+03  0.17238762791E+03  0.00000000000E+00 0.  1.
         21   -1    0    0  502  503 -0.00000000000E+00 -0.00000000000E+00 -0.34916727858E+03  0.34916727858E+03  0.00000000000E+00 0.  1.
         -6    2    1    2    0  503 -0.12126308098E+03 -0.68297503313E+02 -0.19522405742E+03  0.29509662988E+03  0.17204739056E+03 0.  0.
        -24    2    3    3    0    0 -0.10902865256E+03 -0.93632595386E+02 -0.91661349033E+02  0.18767748494E+03  0.78528500877E+02 0.  0.
          6    2    1    2  501    0  0.12126308098E+03  0.68297503313E+02  0.18444406751E+02  0.22645827661E+03  0.17769037998E+03 0.  0.
         24    2    5    5    0    0  0.49625395283E+02 -0.15283362992E+02  0.53996394885E+02  0.11068369786E+03  0.81480115797E+02 0.  0.
          5    1    5    5  501    0  0.71637685702E+02  0.83580866305E+02 -0.35551988134E+02  0.11577457875E+03  0.47000000000E+01 0. -1.
        -13    1    6    6    0    0  0.43041167839E+02  0.28949259505E+02  0.27662297029E+02  0.58786090461E+02  0.00000000000E+00 0.  1.
         14    1    6    6    0    0  0.65842274436E+01 -0.44232622496E+02  0.26334097856E+02  0.51897607400E+02  0.00000000000E+00 0. -1.
         -5    1    3    3    0  503 -0.12234428421E+02  0.25335092073E+02 -0.10356270839E+03  0.10741914493E+03  0.47000000000E+01 0.  1.
         13    1    4    4    0    0 -0.10227812200E+03 -0.56567613950E+02 -0.39581770630E+02  0.12339945605E+03  0.00000000000E+00 0. -1.
        -14    1    4    4    0    0 -0.67505305646E+01 -0.37064981436E+02 -0.52079578402E+02  0.64278028893E+02  0.00000000000E+00 0.  1.
</event>
<event>
12    1  0.8451514E-002  0.2141238E+03  0.7818608E-02  0.1138536E+00
         21   -1    0    0  501  502  0.00000000000E+00  0.00000000000E+00  0.35769651228E+03  0.35769651228E+03  0.00000000000E+00 0. -1.
         21   -1    0    0  502  503 -0.00000000000E+00 -0.00000000000E+00 -0.14434062393E+03  0.14434062393E+03  0.00000000000E+00 0. -1.
         -6    2    1    2    0  503 -0.26926890583E+02 -0.12525166478E+03  0.20914721863E+02  0.21414376891E+03  0.17031468288E+03 0.  0.
        -24    2    3    3    0    0 -0.37381193268E+01 -0.15137266301E+03  0.35737612252E+02  0.17590983449E+03  0.82094069809E+02 0.  0.
          6    2    1    2  501    0  0.26926890583E+02  0.12525166478E+03  0.19244116649E+03  0.28789336731E+03  0.17156908642E+03 0.  0.
         24    2    5    5    0    0  0.24129286791E+02  0.38395648662E+02  0.15729394448E+02  0.90913839185E+02  0.77210517344E+02 0.  0.
          5    1    5    5  501    0  0.27976037926E+01  0.86856016114E+02  0.17671177204E+03  0.19697952812E+03  0.47000000000E+01 0. -1.
        -13    1    6    6    0    0 -0.96793971757E+01 -0.13579483310E+02 -0.14349046693E+02  0.21999732672E+02  0.00000000000E+00 0.  1.
         14    1    6    6    0    0  0.33808683966E+02  0.51975131972E+02  0.30078441140E+02  0.68914106513E+02  0.00000000000E+00 0. -1.
         -5    1    3    3    0  503 -0.23188771257E+02  0.26120998237E+02 -0.14822890389E+02  0.38233934414E+02  0.47000000000E+01 0.  1.
         11    1    4    4    0    0  0.25388502427E+02 -0.78282032882E+02 -0.13059729493E+02  0.83325921910E+02  0.00000000000E+00 0. -1.
        -12    1    4    4    0    0 -0.29126621753E+02 -0.73090630130E+02  0.48797341746E+02  0.92583912582E+02  0.00000000000E+00 0.  1.
</event>
<event>
12    1  0.8451514E-002  0.1962355E+03  0.7818608E-02  0.1153169E+00
         21   -1    0    0  503  502  0.00000000000E+00  0.00000000000E+00  0.51931533537E+03  0.51931533537E+03  0.00000000000E+00 0.  1.
         21   -1    0    0  501  503 -0.00000000000E+00 -0.00000000000E+00 -0.98089844749E+02  0.98089844749E+02  0.00000000000E+00 0.  1.
          6    2    1    2  501    0  0.48017896977E+02 -0.82600902387E+02  0.56526850042E+02  0.20326332744E+03  0.17027057292E+03 0.  0.
         24    2    3    3    0    0  0.47836366034E+02  0.17481045890E+02  0.18730431655E+02  0.96178834786E+02  0.79408024217E+02 0.  0.
         -6    2    1    2    0  502 -0.48017896977E+02  0.82600902387E+02  0.36469864057E+03  0.41414185267E+03  0.17140521636E+03 0.  0.
        -24    2    5    5    0    0  0.19308599050E+02  0.25685664796E+02  0.12087871058E+03  0.15483036122E+03  0.91258987013E+02 0.  0.
          5    1    3    3  501    0  0.18153094350E+00 -0.10008194828E+03  0.37796418386E+02  0.10708449266E+03  0.47000000000E+01 0. -1.
        -11    1    4    4    0    0  0.62380646909E+02 -0.41211510295E+01  0.28047791144E+02  0.68520125384E+02  0.00000000000E+00 0.  1.
         12    1    4    4    0    0 -0.14544280875E+02  0.21602196919E+02 -0.93173594890E+01  0.27658709402E+02  0.00000000000E+00 0. -1.
         -5    1    5    5    0  502 -0.67326496027E+02  0.56915237592E+02  0.24381993000E+03  0.25931149146E+03  0.47000000000E+01 0.  1.
         13    1    6    6    0    0  0.44694812925E+02 -0.34075161272E+01  0.10289754042E+03  0.11223698718E+03  0.00000000000E+00 0. -1.
        -14    1    6    6    0    0 -0.25386213875E+02  0.29093180923E+02  0.17981170160E+02  0.42593374032E+02  0.00000000000E+00 0.  1.
</event>
<event>
12    1  0.8451514E-002  0.1962631E+03  0.7818608E-02  0.1153216E+00
         21   -1    0    0  501  502  0.00000000000E+00  0.00000000000E+00  0.32871146307E+03  0.32871146307E+03  0.00000000000E+00 0.  1.
         21   -1    0    0  502  503 -0.00000000000E+00 -0.00000000000E+00 -0.12321584168E+03  0.12321584168E+03  0.00000000000E+00 0. -1.
         -6    2    1    2    0  503  0.54228595317E+02  0.74770142338E+02  0.49919449122E+02  0.20251210086E+03  0.17317010383E+03 0.  0.
        -24    2    3    3    0    0  0.22767838908E+02  0.30223707371E+02 -0.40002045455E+02  0.97240408330E+02  0.80147903253E+02 0.  0.
          6    2    1    2  501    0 -0.54228595317E+02 -0.74770142338E+02  0.15557617227E+03  0.24941520389E+03  0.17167610148E+03 0.  0.
         24    2    5    5    0    0  0.20908016059E+02 -0.85817330808E+02  0.87983832091E+02  0.14763914977E+03  0.79084792671E+02 0.  0.
          5    1    5    5  501    0 -0.75136611376E+02  0.11047188470E+02  0.67592340176E+02  0.10177605412E+03  0.47000000000E+01 0. -1.
        -11    1    6    6    0    0 -0.48343813505E+01 -0.25676912950E+02  0.76991102786E+02  0.81303782260E+02  0.00000000000E+00 0.  1.
         12    1    6    6    0    0  0.25742397409E+02 -0.60140417859E+02  0.10992729305E+02  0.66335367506E+02  0.00000000000E+00 0. -1.
         -5    1    3    3    0  503  0.31460756409E+02  0.44546434967E+02  0.89921494577E+02  0.10527169253E+03  0.47000000000E+01 0.  1.
         13    1    4    4    0    0  0.31644207371E+02  0.44280245686E+02 -0.54911524769E+00  0.54427911458E+02  0.00000000000E+00 0. -1.
        -14    1    4    4    0    0 -0.88763684625E+01 -0.14056538315E+02 -0.39452930207E+02  0.42812496872E+02  0.00000000000E+00 0.  1.
</event>
<event>
12    1  0.8451514E-002  0.2297223E+03  0.7818608E-02  0.1126978E+00
         21   -1    0    0  501  502  0.00000000000E+00  0.00000000000E+00  0.21763606552E+03  0.21763606552E+03  0.00000000000E+00 0. -1.
         21   -1    0    0  502  503 -0.00000000000E+00 -0.00000000000E+00 -0.25337138001E+03  0.25337138001E+03  0.00000000000E+00 0.  1.
         -6    2    1    2    0  503 -0.70225183957E+02 -0.13613740272E+03 -0.68598803806E+02  0.23974600396E+03  0.17119398837E+03 0.  0.
        -24    2    3    3    0    0  0.17749517227E+02 -0.50189489325E+02 -0.59940379462E+02  0.11636184705E+03  0.84339789891E+02 0.  0.
          6    2    1    2  501    0  0.70225183957E+02  0.13613740272E+03  0.32863489315E+02  0.23126144156E+03  0.17010842585E+03 0.  0.
         24    2    5    5    0    0 -0.13649319320E+02  0.38391515275E+02 -0.18795060421E+02  0.92409410349E+02  0.80783862632E+02 0.  0.
          5    1    5    5  501    0  0.83874503277E+02  0.97745887440E+02  0.51658549736E+02  0.13885203121E+03  0.47000000000E+01 0. -1.
        -11    1    6    6    0    0 -0.29509181284E+02 -0.14803878841E+02  0.21397363421E+01  0.33083607428E+02  0.00000000000E+00 0.  1.
         12    1    6    6    0    0  0.15859861964E+02  0.53195394117E+02 -0.20934796763E+02  0.59325802921E+02  0.00000000000E+00 0. -1.
         -5    1    3    3    0  503 -0.87974701184E+02 -0.85947913390E+02 -0.86584243442E+01  0.12338415691E+03  0.47000000000E+01 0.  1.
         13    1    4    4    0    0 -0.17593525909E+02  0.10704520393E+02  0.43151998274E+01  0.21041384467E+02  0.00000000000E+00 0. -1.
        -14    1    4    4    0    0  0.35343043136E+02 -0.60894009718E+02 -0.64255579289E+02  0.95320462585E+02  0.00000000000E+00 0.  1.
</event>
<event>
12    1  0.8451514E-002  0.1806330E+03  0.7818608E-02  0.1167198E+00
         21   -1    0    0  501  502  0.00000000000E+00  0.00000000000E+00  0.11558480207E+03  0.11558480207E+03  0.00000000000E+00 0. -1.
         21   -1    0    0  502  503 -0.00000000000E+00 -0.00000000000E+00 -0.64945734889E+03  0.64945734889E+03  0.00000000000E+00 0. -1.
         -6    2    1    2    0  503  0.44238405033E+02  0.31581853323E+02 -0.55457785766E+03  0.58325369255E+03  0.17226090595E+03 0.  0.
        -24    2    3    3    0    0  0.13660695441E+02  0.44695143095E+02 -0.53770519464E+03  0.54565407220E+03  0.80169942935E+02 0.  0.
          6    2    1    2  501    0 -0.44238405033E+02 -0.31581853323E+02  0.20705310840E+02  0.18178845842E+03  0.17223206374E+03 0.  0.
         24    2    5    5    0    0  0.33471407650E+02 -0.18033006682E+02  0.43711397878E+02  0.99485625704E+02  0.80877555337E+02 0.  0.
          5    1    5    5  501    0 -0.77709812683E+02 -0.13548846641E+02 -0.23006087037E+02  0.82302832717E+02  0.47000000000E+01 0. -1.
        -13    1    6    6    0    0  0.10735484067E+02 -0.46107986884E+02  0.67827741801E+01  0.47824712213E+02  0.00000000000E+00 0.  1.
         14    1    6    6    0    0  0.22735923583E+02  0.28074980203E+02  0.36928623698E+02  0.51660913491E+02  0.00000000000E+00 0. -1.
         -5    1    3    3    0  503  0.30577709592E+02 -0.13113289773E+02 -0.16872663020E+02  0.37599620343E+02  0.47000000000E+01 0.  1.
         13    1    4    4    0    0 -0.20710189790E+02 -0.46046547409E+01 -0.28950999673E+03  0.29028632936E+03  0.00000000000E+00 0. -1.
        -14    1    4    4    0    0  0.34370885231E+02  0.49299797836E+02 -0.24819519792E+03  0.25536774285E+03  0.00000000000E+00 0.  1.
</event>
<event>
12    1  0.8451514E-002  0.1766022E+03  0.7818608E-02  0.1171427E+00
         21   -1    0    0  501  502  0.00000000000E+00  0.00000000000E+00  0.31651607233E+03  0.31651607233E+03  0.00000000000E+00 0.  1.
         21   -1    0    0  502  503 -0.00000000000E+00 -0.00000000000E+00 -0.12131290269E+03  0.12131290269E+03  0.00000000000E+00 0.  1.
         -6    2    1    2    0  503  0.14914428684E+02  0.32954440576E+02  0.16471336573E+01  0.17660986702E+03  0.17285802482E+03 0.  0.
        -24    2    3    3    0    0  0.23122653603E+02 -0.44191826268E+02 -0.20744939732E+02  0.95724661978E+02  0.79027107804E+02 0.  0.
          6    2    1    2  501    0 -0.14914428684E+02 -0.32954440576E+02  0.19355603598E+03  0.26121910799E+03  0.17164803517E+03 0.  0.
         24    2    5    5    0    0  0.17081012848E+02  0.37730120233E+02  0.64533822126E+02  0.11059096625E+03  0.79689551668E+02 0.  0.
          5    1    5    5  501    0 -0.31995441532E+02 -0.70684560809E+02  0.12902221386E+03  0.15062814174E+03  0.47000000000E+01 0. -1.
        -13    1    6    6    0    0 -0.65584042527E+01  0.13357844883E+02  0.73888818132E+02  0.75372422883E+02  0.00000000000E+00 0.  1.
         14    1    6    6    0    0  0.23639417101E+02  0.24372275350E+02 -0.93549960060E+01  0.35218543366E+02  0.00000000000E+00 0. -1.
         -5    1    3    3    0  503 -0.82082249190E+01  0.77146266844E+02  0.22392073390E+02  0.80885205044E+02  0.47000000000E+01 0.  1.
         11    1    4    4    0    0  0.74592703732E+01 -0.48173847066E+02  0.19386329340E+02  0.52461319283E+02  0.00000000000E+00 0. -1.
        -12    1    4    4    0    0  0.15663383230E+02  0.39820207980E+01 -0.40131269072E+02  0.43263342696E+02  0.00000000000E+00 0.  1.
</event>
<event>
12    1  0.8451514E-002  0.1862441E+03  0.7818608E-02  0.1162050E+00
         21   -1    0    0  501  502  0.00000000000E+00  0.00000000000E+00  0.26556541281E+03  0.26556541281E+03  0.00000000000E+00 0. -1.
         21   -1    0    0  502  503 -0.00000000000E+00 -0.00000000000E+00 -0.20345302217E+03  0.20345302217E+03  0.00000000000E+00 0. -1.
         -6    2    1    2    0  503 -0.39938524323E+02  0.59776149045E+02 -0.10975093116E+03  0.21559414135E+03  0.17107686335E+03 0.  0.
        -24    2    3    3    0    0 -0.16502402171E+01  0.84612711807E+02 -0.12198912671E+03  0.16811034432E+03  0.78852435213E+02 0.  0.
          6    2    1    2  501    0  0.39938524323E+02 -0.59776149045E+02  0.17186332180E+03  0.25342429364E+03  0.17180977128E+03 0.  0.
         24    2    5    5    0    0  0.51707125348E+02 -0.66713831345E+02  0.19297527799E+03  0.22784234492E+03  0.86881034281E+02 0.  0.
          5    1    5    5  501    0 -0.11768601025E+02  0.69376822994E+01 -0.21111956197E+02  0.25581948718E+02  0.47000000000E+01 0. -1.
        -11    1    6    6    0    0 -0.13774624898E+02 -0.36405677505E+02  0.28521846139E+02  0.48255666536E+02  0.00000000000E+00 0.  1.
         12    1    6    6    0    0  0.65481750246E+02 -0.30308153840E+02  0.16445343185E+03  0.17958667838E+03  0.00000000000E+00 0. -1.
         -5    1    3    3    0  503 -0.38288284106E+02 -0.24836562762E+02  0.12238195557E+02  0.47483797027E+02  0.47000000000E+01 0.  1.
         13    1    4    4    0    0  0.31686397762E+02  0.17264775604E+02 -0.19479126795E+02  0.41006544118E+02  0.00000000000E+00 0. -1.
        -14    1    4    4    0    0 -0.33336637979E+02  0.67347936203E+02 -0.10250999992E+03  0.12710380020E+03  0.00000000000E+00 0.  1.
</event>
<event>
12    1  0.8451514E-002  0.2233758E+03  0.7818608E-02  0.1131429E+00
         21   -1    0    0  503  502  0.00000000000E+00  0.00000000000E+00  0.22715932941E+04  0.22715932941E+04  0.00000000000E+00 0.  1.
         21   -1    0    0  501  503 -0.00000000000E+00 -0.00000000000E+00 -0.33114072226E+02  0.33114072226E+02  0.00000000000E+00 0. -1.
          6    2    1    2  501    0 -0.13989333422E+03  0.23498232312E+02  0.44963719283E+03  0.50197262523E+03  0.17228058340E+03 0.  0.
         24    2    3    3    0    0 -0.96954824893E+02 -0.52395423866E+02  0.27570867401E+03  0.30735304170E+03  0.79404664891E+02 0.  0.
         -6    2    1    2    0  502  0.13989333422E+03 -0.23498232312E+02  0.17888420290E+04  0.18027347411E+04  0.17255268769E+03 0.  0.
        -24    2    5    5    0    0  0.54785129059E+02 -0.69800725617E+02  0.75000388982E+03  0.75937761289E+03  0.79214724409E+02 0.  0.
          5    1    3    3  501    0 -0.42938509325E+02  0.75893656178E+02  0.17392851883E+03  0.19461958353E+03  0.47000000000E+01 0. -1.
        -11    1    4    4    0    0 -0.27399747210E+02 -0.52308991985E+02  0.17707245900E+03  0.18665913459E+03  0.00000000000E+00 0.  1.
         12    1    4    4    0    0 -0.69555077684E+02 -0.86431880591E-01  0.98636215004E+02  0.12069390711E+03  0.00000000000E+00 0. -1.
         -5    1    5    5    0  502  0.85108205159E+02  0.46302493305E+02  0.10388381392E+04  0.10433571282E+04  0.47000000000E+01 0.  1.
         13    1    6    6    0    0  0.74842164203E+02 -0.46642786879E+02  0.54103961704E+03  0.54817950191E+03  0.00000000000E+00 0. -1.
        -14    1    6    6    0    0 -0.20057035144E+02 -0.23157938738E+02  0.20896427278E+03  0.21119811098E+03  0.00000000000E+00 0.  1.
</event>
<event>
12    1  0.8451514E-002  0.2362931E+03  0.7818608E-02  0.1122814E+00
         21   -1    0    0  503  502  0.00000000000E+00  0.00000000000E+00  0.13560126547E+03  0.13560126547E+03  0.00000000000E+00 0. -1.
         21   -1    0    0  501  503 -0.00000000000E+00 -0.00000000000E+00 -0.57543372727E+03  0.57543372727E+03  0.00000000000E+00 0. -1.
          6    2    1    2  501    0 -0.13997038585E+03  0.82282744798E+02 -0.41361660640E+03  0.47635400341E+03  0.17167492673E+03 0.  0.
         24    2    3    3    0    0 -0.17531404778E+02 -0.10582452428E+02 -0.18817708507E+03  0.20347982596E+03  0.74659800253E+02 0.  0.
         -6    2    1    2    0  502  0.13997038585E+03 -0.82282744798E+02 -0.26215855406E+02  0.23468098933E+03  0.16740889066E+03 0.  0.
        -24    2    5    5    0    0  0.13956985654E+03 -0.62493269462E+02  0.29346968927E+02  0.17551088535E+03  0.80979458560E+02 0.  0.
          5    1    3    3  501    0 -0.12243898107E+03  0.92865197226E+02 -0.22543952133E+03  0.27287417745E+03  0.47000000000E+01 0. -1.
        -11    1    4    4    0    0  0.18090234501E+02 -0.83946762615E+01 -0.11063464264E+02  0.22806302097E+02  0.00000000000E+00 0.  1.
         12    1    4    4    0    0 -0.35621639279E+02 -0.21877761661E+01 -0.17711362080E+03  0.18067352386E+03  0.00000000000E+00 0. -1.
         -5    1    5    5    0  502  0.40052931429E+00 -0.19789475336E+02 -0.55562824333E+02  0.59170103985E+02  0.47000000000E+01 0.  1.
         13    1    6    6    0    0  0.49533855808E+01 -0.35252066395E+02  0.36803600883E+01  0.35788116243E+02  0.00000000000E+00 0. -1.
        -14    1    6    6    0    0  0.13461647096E+03 -0.27241203067E+02  0.25666608839E+02  0.13972276911E+03  0.00000000000E+00 0.  1.
</event>
<event>
12    1  0.8451514E-002  0.2899180E+03  0.7818608E-02  0.1090404E+00
         21   -1    0    0  503  502  0.00000000000E+00  0.00000000000E+00  0.16867229706E+03  0.16867229706E+03  0.00000000000E+00 0. -1.
         21   -1    0    0  501  503 -0.00000000000E+00 -0.00000000000E+00 -0.52402674259E+03  0.52402674259E+03  0.00000000000E+00 0. -1.
          6    2    1    2  501    0 -0.19903064611E+03 -0.12397552610E+03 -0.25459869367E+03  0.38577208094E+03  0.17034222745E+03 0.  0.
         24    2    3    3    0    0 -0.14637898143E+03 -0.14714042543E+02 -0.15528788356E+03  0.22894416064E+03  0.81595297999E+02 0.  0.
         -6    2    1    2    0  502  0.19903064611E+03  0.12397552610E+03 -0.10075575186E+03  0.30692695870E+03  0.17049723541E+03 0.  0.
        -24    2    5    5    0    0  0.16051905325E+03  0.44544843624E+02 -0.11399465419E+03  0.21754164314E+03  0.81110885616E+02 0.  0.
          5    1    3    3  501    0 -0.52651664681E+02 -0.10926148356E+03 -0.99310810105E+02  0.15682792031E+03  0.47000000000E+01 0. -1.
        -11    1    4    4    0    0 -0.22081921976E+01  0.11155721232E+01  0.92689433410E+01  0.95934313258E+01  0.00000000000E+00 0.  1.
         12    1    4    4    0    0 -0.14417078923E+03 -0.15829614666E+02 -0.16455682690E+03  0.21935072931E+03  0.00000000000E+00 0. -1.
         -5    1    5    5    0  502  0.38511592863E+02  0.79430682480E+02  0.13238902329E+02  0.89385315567E+02  0.47000000000E+01 0.  1.
         11    1    6    6    0    0  0.33569445699E+02  0.30352252272E+02  0.15696194255E+01  0.45283889052E+02  0.00000000000E+00 0. -1.
        -12    1    6    6    0    0  0.12694960755E+03  0.14192591352E+02 -0.11556427361E+03  0.17225775408E+03  0.00000000000E+00 0.  1.
</event>
<event>
12    1  0.8451514E-002  0.2094084E+03  0.7818608E-02  0.1142608E+00
         21   -1    0    0  501  502  0.00000000000E+00  0.00000000000E+00  0.11411662218E+03  0.11411662218E+03  0.00000000000E+00 0. -1.
         21   -1    0    0  502  503 -0.00000000000E+00 -0.00000000000E+00 -0.38848197855E+03  0.38848197855E+03  0.00000000000E+00 0.  1.
         -6    2    1    2    0  503  0.11595439044E+03 -0.72382712646E+00 -0.17728342252E+03  0.27437438618E+03  0.17437301197E+03 0.  0.
        -24    2    3    3    0    0  0.76994713428E+02  0.40374903679E+02 -0.18297578556E+03  0.21726523539E+03  0.78522134866E+02 0.  0.
          6    2    1    2  501    0 -0.11595439044E+03  0.72382712646E+00 -0.97081933845E+02  0.22822421455E+03  0.17092526332E+03 0.  0.
         24    2    5    5    0    0 -0.92197862411E+02 -0.55561511899E+02 -0.10058372267E+03  0.16685024175E+03  0.78322349729E+02 0.  0.
          5    1    5    5  501    0 -0.23756528027E+02  0.56285339025E+02  0.35017888242E+01  0.61373972807E+02  0.47000000000E+01 0. -1.
        -11    1    6    6    0    0 -0.40606051721E+02 -0.34421598905E+02 -0.97408459044E+02  0.11100498097E+03  0.00000000000E+00 0.  1.
         12    1    6    6    0    0 -0.51591810690E+02 -0.21139912994E+02 -0.31752636250E+01  0.55845260773E+02  0.00000000000E+00 0. -1.
         -5    1    3    3    0  503  0.38959677010E+02 -0.41098730806E+02  0.56923630456E+01  0.57109150787E+02  0.47000000000E+01 0.  1.
         11    1    4    4    0    0  0.42670247427E+02  0.62882267798E+02 -0.11424151035E+03  0.13720806210E+03  0.00000000000E+00 0. -1.
        -12    1    4    4    0    0  0.34324466001E+02 -0.22507364118E+02 -0.68734275212E+02  0.80057173287E+02  0.00000000000E+00 0.  1.
</event>
<event>
12    1  0.8451514E-002  0.2171021E+03  0.7818608E-02  0.1136245E+00
         21   -1    0    0  501  502  0.00000000000E+00  0.00000000000E+00  0.45172224921E+03  0.45172224921E+03  0.00000000000E+00 0. -1.
         21   -1    0    0  502  503 -0.00000000000E+00 -0.00000000000E+00 -0.22987556641E+03  0.22987556641E+03  0.00000000000E+00 0. -1.
         -6    2    1    2    0  503  0.12321594487E+03 -0.43104653231E+02 -0.14127301189E+03  0.25902004947E+03  0.17347375000E+03 0.  0.
        -24    2    3    3    0    0  0.90280007549E+02  0.16431092350E+02 -0.14716375472E+03  0.19056516053E+03  0.78977523035E+02 0.  0.
          6    2    1    2  501    0 -0.12321594487E+03  0.43104653231E+02  0.36311969469E+03  0.42257776615E+03  0.17226687313E+03 0.  0.
         24    2    5    5    0    0 -0.74601462416E+02  0.70252927806E+02  0.33049482645E+03  0.35787174832E+03  0.91348266946E+02 0.  0.
          5    1    5    5  501    0 -0.48614482449E+02 -0.27148274574E+02  0.32624868234E+02  0.64706017830E+02  0.47000000000E+01 0. -1.
        -13    1    6    6    0    0  0.10172456160E+02  0.34663460724E+02  0.43692667547E+02  0.56692888187E+02  0.00000000000E+00 0.  1.
         14    1    6    6    0    0 -0.84773918575E+02  0.35589467081E+02  0.28680215891E+03  0.30117886013E+03  0.00000000000E+00 0. -1.
         -5    1    3    3    0  503  0.32935937316E+02 -0.59535745581E+02  0.58907428327E+01  0.68454888941E+02  0.47000000000E+01 0.  1.
         13    1    4    4    0    0  0.28785424530E+02  0.21185762108E+02 -0.11615768609E+03  0.12153207486E+03  0.00000000000E+00 0. -1.
        -14    1    4    4    0    0  0.61494583019E+02 -0.47546697580E+01 -0.31006068631E+02  0.69033085670E+02  0.00000000000E+00 0.  1.
</event>
<event>
12    1  0.8451514E-002  0.1760303E+03  0.7818608E-02  0.1172219E+00
         21   -1    0    0  501  502  0.00000000000E+00  0.00000000000E+00  0.14724409789E+04  0.14724409789E+04  0.00000000000E+00 0.  1.
         21   -1    0    0  502  503 -0.00000000000E+00 -0.00000000000E+00 -0.45127450829E+02  0.45127450829E+02  0.00000000000E+00 0.  1.
         -6    2    1    2    0  503 -0.10707858557E+01  0.24264709270E+02  0.15846476512E+03  0.23684960288E+03  0.17434657984E+03 0.  0.
        -24    2    3    3    0    0  0.89694340310E+01  0.48783174687E+02  0.17957606946E+03  0.20264816529E+03  0.79739985556E+02 0.  0.
          6    2    1    2  501    0  0.10707858557E+01 -0.24264709270E+02  0.12688487629E+04  0.12807188268E+04  0.17226028998E+03 0.  0.
         24    2    5    5    0    0 -0.32412916199E+01 -0.65452084432E+02  0.11516158380E+04  0.11562975964E+04  0.80688362609E+02 0.  0.
          5    1    5    5  501    0  0.43120774756E+01  0.41187375163E+02  0.11723292494E+03  0.12442123041E+03  0.47000000000E+01 0. -1.
        -11    1    6    6    0    0  0.11319648834E+02 -0.11441635604E+02  0.80784213546E+03  0.80800245129E+03  0.00000000000E+00 0.  1.
         12    1    6    6    0    0 -0.14560940454E+02 -0.54010448828E+02  0.34377370254E+03  0.34829514514E+03  0.00000000000E+00 0. -1.
         -5    1    3    3    0  503 -0.10040219887E+02 -0.24518465418E+02 -0.21111304339E+02  0.34201437582E+02  0.47000000000E+01 0.  1.
         11    1    4    4    0    0 -0.11971534730E+02 -0.19105761973E+02  0.50686945659E+02  0.55475348080E+02  0.00000000000E+00 0. -1.
        -12    1    4    4    0    0  0.20940968761E+02  0.67888936661E+02  0.12888912380E+03  0.14717281721E+03  0.00000000000E+00 0.  1.
</event>
<event>
12    1  0.8451514E-002  0.1939247E+03  0.7818608E-02  0.1155341E+00
         21   -1    0    0  503  502  0.00000000000E+00  0.00000000000E+00  0.29540206101E+03  0.29540206101E+03  0.00000000000E+00 0. -1.
         21   -1    0    0  501  503 -0.00000000000E+00 -0.00000000000E+00 -0.12997173080E+03  0.12997173080E+03  0.00000000000E+00 0. -1.
          6    2    1    2  501    0  0.44794751506E+02 -0.72202831749E+02  0.46131302658E+02  0.19769189558E+03  0.17243598760E+03 0.  0.
         24    2    3    3    0    0  0.14667355573E+02 -0.10419693538E+03  0.67840552122E+02  0.14845101658E+03  0.79769863676E+02 0.  0.
         -6    2    1    2    0  502 -0.44794751506E+02  0.72202831749E+02  0.11929902755E+03  0.22768189623E+03  0.17431858542E+03 0.  0.
        -24    2    5    5    0    0 -0.10021822296E+03  0.66565660502E+02  0.10898719902E+03  0.17083154271E+03  0.53202697877E+02 0.  0.
          5    1    3    3  501    0  0.30127395933E+02  0.31994103627E+02 -0.21709249463E+02  0.49240879002E+02  0.47000000000E+01 0. -1.
        -13    1    4    4    0    0 -0.29877501357E+02 -0.19027810477E+02  0.24156205486E+02  0.42874758570E+02  0.00000000000E+00 0.  1.
         14    1    4    4    0    0  0.44544856930E+02 -0.85169124899E+02  0.43684346635E+02  0.10557625801E+03  0.00000000000E+00 0. -1.
         -5    1    5    5    0  502  0.55423471458E+02  0.56371712465E+01  0.10311828528E+02  0.56850353523E+02  0.47000000000E+01 0.  1.
         11    1    6    6    0    0 -0.33101454081E+02  0.38612064644E+02  0.17093623367E+02  0.53654354513E+02  0.00000000000E+00 0. -1.
        -12    1    6    6    0    0 -0.67116768883E+02  0.27953595858E+02  0.91893575658E+02  0.11717718820E+03  0.00000000000E+00 0.  1.
</event>
<event>
12    1  0.8451514E-002  0.2116003E+03  0.7818608E-02  0.1140445E+00
         21   -1    0    0  501  502  0.00000000000E+00  0.00000000000E+00  0.24683714815E+03  0.24683714815E+03  0.00000000000E+00 0. -1.
         21   -1    0    0  502  503 -0.00000000000E+00 -0.00000000000E+00 -0.37643449891E+03  0.37643449891E+03  0.00000000000E+00 0.  1.
         -6    2    1    2    0  503  0.11851054798E+03  0.33894775741E+02 -0.28941499921E+03  0.35809931749E+03  0.17111538099E+03 0.  0.
        -24    2    3    3    0    0  0.14944400978E+03  0.44719950966E+02 -0.26112135060E+03  0.31454838146E+03  0.80143237182E+02 0.  0.
          6    2    1    2  501    0 -0.11851054798E+03 -0.33894775741E+02  0.15981764845E+03  0.26517232958E+03  0.17199150505E+03 0.  0.
         24    2    5    5    0    0 -0.18681312782E+02 -0.58265209114E+02  0.11563305580E+03  0.15321625582E+03  0.79752062118E+02 0.  0.
          5    1    5    5  501    0 -0.99829235201E+02  0.24370433373E+02  0.44184592649E+02  0.11195607376E+03  0.47000000000E+01 0. -1.
        -11    1    6    6    0    0  0.15253448179E+02  0.11571972207E+02  0.42226531679E+02  0.46364406604E+02  0.00000000000E+00 0.  1.
         12    1    6    6    0    0 -0.33934760961E+02 -0.69837181321E+02  0.73406524124E+02  0.10685184921E+03  0.00000000000E+00 0. -1.
         -5    1    3    3    0  503 -0.30933461796E+02 -0.10825175225E+02 -0.28293648614E+02  0.43550936032E+02  0.47000000000E+01 0.  1.
         11    1    4    4    0    0  0.11976468063E+02 -0.16298750016E+02 -0.60628402151E+02  0.63913130003E+02  0.00000000000E+00 0. -1.
        -12    1    4    4    0    0  0.13746754172E+03  0.61018700982E+02 -0.20049294845E+03  0.25063525146E+03  0.00000000000E+00 0.  1.
</event>
<event>
12    1  0.8451514E-002  0.2388317E+03  0.7818608E-02  0.1120636E+00
         21   -1    0    0  503  502  0.00000000000E+00  0.00000000000E+00  0.12717495197E+04  0.12717495197E+04  0.00000000000E+00 0. -1.
         21   -1    0    0  501  503 -0.00000000000E+00 -0.00000000000E+00 -0.58607665237E+02  0.58607665237E+02  0.00000000000E+00 0. -1.
          6    2    1    2  501    0  0.10567819736E+03 -0.12718524599E+03  0.28385934369E+03  0.37096727460E+03  0.17232708327E+03 0.  0.
         24    2    3    3    0    0 -0.13874939422E+01 -0.97486344255E+02  0.17577813399E+03  0.21589076152E+03  0.78774082454E+02 0.  0.
         -6    2    1    2    0  502 -0.10567819736E+03  0.12718524599E+03  0.92928251079E+03  0.95938991036E+03  0.17181107949E+03 0.  0.
        -24    2    5    5    0    0 -0.53004764517E+02  0.14179428739E+03  0.81380620947E+03  0.83154320220E+03  0.79173389261E+02 0.  0.
          5    1    3    3  501    0  0.10706569130E+03 -0.29698901736E+02  0.10808120970E+03  0.15507651308E+03  0.47000000000E+01 0. -1.
        -11    1    4    4    0    0  0.18753741619E+02 -0.21434880029E+01  0.68088553006E+02  0.70656552534E+02  0.00000000000E+00 0.  1.
         12    1    4    4    0    0 -0.20141235561E+02 -0.95342856252E+02  0.10768958098E+03  0.14523420899E+03  0.00000000000E+00 0. -1.
         -5    1    5    5    0  502 -0.52673432840E+02 -0.14609041399E+02  0.11547630133E+03  0.12784670815E+03  0.47000000000E+01 0.  1.
         11    1    6    6    0    0 -0.26491831643E+02  0.47205510841E+02  0.13155999750E+03  0.14226106403E+03  0.00000000000E+00 0. -1.
        -12    1    6    6    0    0 -0.26512932874E+02  0.94588776550E+02  0.68224621197E+03  0.68928213817E+03  0.00000000000E+00 0.  1.
</event>
<event>
12    1  0.8451514E-002  0.2309589E+03  0.7818608E-02  0.1126061E+00
         21   -1    0    0  503  502  0.00000000000E+00  0.00000000000E+00  0.95177127774E+02  0.95177127774E+02  0.00000000000E+00 0.  1.
         21   -1    0    0  501  503 -0.00000000000E+00 -0.00000000000E+00 -0.11195801037E+04  0.11195801037E+04  0.00000000000E+00 0.  1.
          6    2    1    2  501    0 -0.12722969899E+03  0.87162450440E+02 -0.94223191010E+03  0.97012524862E+03  0.17192247244E+03 0.  0.
         24    2    3    3    0    0 -0.78277818096E+02  0.11669676589E+03 -0.80871791863E+03  0.82480959788E+03  0.80874278136E+02 0.  0.
         -6    2    1    2    0  502  0.12722969899E+03 -0.87162450440E+02 -0.82171065789E+02  0.24463198282E+03  0.17119589333E+03 0.  0.
        -24    2    5    5    0    0  0.45606840949E+02  0.17551405987E+02 -0.57357585825E+02  0.10948361446E+03  0.79427535463E+02 0.  0.
          5    1    3    3  501    0 -0.48951880890E+02 -0.29534315454E+02 -0.13351399147E+03  0.14531565074E+03  0.47000000000E+01 0. -1.
        -13    1    4    4    0    0 -0.82312755349E+02  0.87874446802E+02 -0.48250844876E+03  0.49730444521E+03  0.00000000000E+00 0.  1.
         14    1    4    4    0    0  0.40349372525E+01  0.28822319092E+02 -0.32620946987E+03  0.32750515268E+03  0.00000000000E+00 0. -1.
         -5    1    5    5    0  502  0.81622858037E+02 -0.10471385643E+03 -0.24813479964E+02  0.13514836836E+03  0.47000000000E+01 0.  1.
         11    1    6    6    0    0  0.21486882115E+02 -0.25056715948E+02 -0.50087002347E+02  0.59985272536E+02  0.00000000000E+00 0. -1.
        -12    1    6    6    0    0  0.24119958834E+02  0.42608121935E+02 -0.72705834780E+01  0.49498341923E+02  0.00000000000E+00 0.  1.
</event>
<event>
12    1  0.8451514E-002  0.1738899E+03  0.7818608E-02  0.1173936E+00
         21   -1    0    0  503  502  0.00000000000E+00  0.00000000000E+00  0.13862147894E+03  0.13862147894E+03  0.00000000000E+00 0.  1.
         21   -1    0    0  501  503 -0.00000000000E+00 -0.00000000000E+00 -0.23427124060E+04  0.23427124060E+04  0.00000000000E+00 0.  1.
          6    2    1    2  501    0  0.75708880853E+01 -0.25139039474E+02 -0.22837567317E+04  0.22903673268E+04  0.17189645877E+03 0.  0.
         24    2    3    3    0    0 -0.23967709035E+02 -0.76514504889E+02 -0.14301333293E+04  0.14346050206E+04  0.79883071670E+02 0.  0.
         -6    2    1    2    0  502 -0.75708880853E+01  0.25139039474E+02  0.79665804624E+02  0.19096655813E+03  0.17155843390E+03 0.  0.
        -24    2    5    5    0    0 -0.87902281650E+01  0.40323691176E+02  0.11805373833E+03  0.14939993820E+03  0.81733641900E+02 0.  0.
          5    1    3    3  501    0  0.31538597120E+02  0.51375465415E+02 -0.85362340243E+03  0.85576230621E+03  0.47000000000E+01 0. -1.
        -11    1    4    4    0    0 -0.26471684284E+02 -0.12220520427E+02 -0.14723026415E+03  0.15008944623E+03  0.00000000000E+00 0.  1.
         12    1    4    4    0    0  0.25039752497E+01 -0.64293984461E+02 -0.12829030651E+04  0.12845155744E+04  0.00000000000E+00 0. -1.
         -5    1    5    5    0  502  0.12193400797E+01 -0.15184651702E+02 -0.38387933710E+02  0.41566619926E+02  0.47000000000E+01 0.  1.
         13    1    6    6    0    0  0.26835391909E+02  0.48001797826E+02  0.74789331753E+02  0.92831864128E+02  0.00000000000E+00 0. -1.
        -14    1    6    6    0    0 -0.35625620074E+02 -0.76781066501E+01  0.43264406581E+02  0.56568074072E+02  0.00000000000E+00 0.  1.
</event>
<event>
12    1  0.8451514E-002  0.1811301E+03  0.7818608E-02  0.1166781E+00
         21   -1    0    0  503  502  0.00000000000E+00  0.00000000000E+00  0.58435151756E+03  0.58435151756E+03  0.00000000000E+00 0. -1.
         21   -1    0    0  501  503 -0.00000000000E+00 -0.00000000000E+00 -0.77303754693E+02  0.77303754693E+02  0.00000000000E+00 0.  1.
          6    2    1    2  501    0 -0.53082966231E+02 -0.23614041894E+02  0.79945888399E+02  0.19773271728E+03  0.17126429322E+03 0.  0.
         24    2    3    3    0    0  0.22542219587E+02  0.12101918232E+02  0.54719903131E+01  0.85646812574E+02  0.81552594915E+02 0.  0.
         -6    2    1    2    0  502  0.53082966231E+02  0.23614041894E+02  0.42710187447E+03  0.46392255497E+03  0.17155961518E+03 0.  0.
        -24    2    5    5    0    0  0.66144522510E+02 -0.33307142687E+02  0.17205846888E+03  0.20223599773E+03  0.76228724592E+02 0.  0.
          5    1    3    3  501    0 -0.75625185818E+02 -0.35715960126E+02  0.74473898086E+02  0.11208590471E+03  0.47000000000E+01 0. -1.
        -11    1    4    4    0    0  0.39602712854E+02 -0.23358913527E+02  0.54082056425E+01  0.46295382003E+02  0.00000000000E+00 0.  1.
         12    1    4    4    0    0 -0.17060493267E+02  0.35460831759E+02  0.63784670579E-01  0.39351430571E+02  0.00000000000E+00 0. -1.
         -5    1    5    5    0  502 -0.13061556279E+02  0.56921184581E+02  0.25504340559E+03  0.26168655724E+03  0.47000000000E+01 0.  1.
         13    1    6    6    0    0  0.53548599020E+02  0.90820185941E+01  0.13132582779E+03  0.14211406885E+03  0.00000000000E+00 0. -1.
        -14    1    6    6    0    0  0.12595923490E+02 -0.42389161281E+02  0.40732641082E+02  0.60121928880E+02  0.00000000000E+00 0.  1.
</event>
<event>
12    1  0.8451514E-002  0.1828371E+03  0.7818608E-02  0.1165424E+00
         21   -1    0    0  503  502  0.00000000000E+00  0.00000000000E+00  0.10896170175E+03  0.10896170175E+03  0.00000000000E+00 0. -1.
         21   -1    0    0  501  503 -0.00000000000E+00 -0.00000000000E+00 -0.35389822349E+03  0.35389822349E+03  0.00000000000E+00 0. -1.
          6    2    1    2  501    0  0.40955612135E+02  0.40241722288E+02 -0.20941446283E+03  0.27799968225E+03  0.17358757936E+03 0.  0.
         24    2    3    3    0    0  0.65112625339E+02 -0.26602762056E+02 -0.93239413497E+02  0.14172613946E+03  0.80282933744E+02 0.  0.
         -6    2    1    2    0  502 -0.40955612135E+02 -0.40241722288E+02 -0.35522058910E+02  0.18486024300E+03  0.17208932098E+03 0.  0.
        -24    2    5    5    0    0 -0.60521799745E+02 -0.79384136649E+02 -0.51547331081E+02  0.13802154482E+03  0.80175370879E+02 0.  0.
          5    1    3    3  501    0 -0.24157013204E+02  0.66844484344E+02 -0.11617504934E+03  0.13627354278E+03  0.47000000000E+01 0. -1.
        -13    1    4    4    0    0 -0.11776275693E+02  0.61667110589E+01 -0.41146525399E+02  0.43240554424E+02  0.00000000000E+00 0.  1.
         14    1    4    4    0    0  0.76888901033E+02 -0.32769473115E+02 -0.52092888098E+02  0.98485585040E+02  0.00000000000E+00 0. -1.
         -5    1    5    5    0  502  0.19566187610E+02  0.39142414361E+02  0.16025272172E+02  0.46838698186E+02  0.47000000000E+01 0.  1.
         11    1    6    6    0    0 -0.62056179321E+02 -0.81416909169E+02 -0.17471350941E+02  0.10385052043E+03  0.00000000000E+00 0. -1.
        -12    1    6    6    0    0  0.15343795756E+01  0.20327725193E+01 -0.34075980141E+02  0.34171024382E+02  0.00000000000E+00 0.  1.
</event>
<event>
12    1  0.8451514E-002  0.1865868E+03  0.7818608E-02  0.1161862E+00
         21   -1    0    0  503  502  0.00000000000E+00  0.00000000000E+00  0.15291755100E+03  0.15291755100E+03  0.00000000000E+00 0. -1.
         21   -1    0    0  501  503 -0.00000000000E+00 -0.00000000000E+00 -0.34910379547E+03  0.34910379547E+03  0.00000000000E+00 0. -1.
          6    2    1    2  501    0  0.64110597442E+02 -0.34064278774E+02 -0.24683651145E+03  0.30868208422E+03  0.17054565941E+03 0.  0.
         24    2    3    3    0    0  0.15214441155E+02  0.34179082768E+02 -0.68179551959E+02  0.11122730543E+03  0.79519640650E+02 0.  0.
         -6    2    1    2    0  502 -0.64110597442E+02  0.34064278774E+02  0.50650266982E+02  0.19333926225E+03  0.17188390556E+03 0.  0.
        -24    2    5    5    0    0 -0.14617726498E+02  0.41768955139E+02  0.91151211313E+02  0.12875348360E+03  0.79439238884E+02 0.  0.
          5    1    3    3  501    0  0.48896156287E+02 -0.68243361541E+02 -0.17865695949E+03  0.19745477879E+03  0.47000000000E+01 0. -1.
        -11    1    4    4    0    0  0.24605670792E+02  0.55742269538E+02 -0.61957698816E+02  0.86898769214E+02  0.00000000000E+00 0.  1.
         12    1    4    4    0    0 -0.93912296365E+01 -0.21563186771E+02 -0.62218531432E+01  0.24328536214E+02  0.00000000000E+00 0. -1.
         -5    1    5    5    0  502 -0.49492870944E+02 -0.77046763650E+01 -0.40500944331E+02  0.64585778650E+02  0.47000000000E+01 0.  1.
         13    1    6    6    0    0 -0.34607756120E+02  0.32213093145E+02  0.15240700513E+02  0.49675538303E+02  0.00000000000E+00 0. -1.
        -14    1    6    6    0    0  0.19990029622E+02  0.95558619940E+01  0.75910510800E+02  0.79077945299E+02  0.00000000000E+00 0.  1.
</event>
<event>
12    1  0.8451514E-002  0.1973508E+03  0.7818608E-02  0.1152228E+00
         21   -1    0    0  501  502  0.00000000000E+00  0.00000000000E+00  0.56032778768E+02  0.56032778768E+02  0.00000000000E+00 0. -1.
         21   -1    0    0  502  503 -0.00000000000E+00 -0.00000000000E+00 -0.15207823422E+04  0.15207823422E+04  0.00000000000E+00 0. -1.
         -6    2    1    2    0  503 -0.96546632123E+02 -0.42141413249E+01 -0.13137355034E+04  0.13283144125E+04  0.17081918579E+03 0.  0.
        -24    2    3    3    0    0 -0.70527340420E+02  0.85474912039E+01 -0.12760286767E+04  0.12805257362E+04  0.80310719812E+02 0.  0.
          6    2    1    2  501    0  0.96546632123E+02  0.42141413249E+01 -0.15101405997E+03  0.24850070847E+03  0.17207075475E+03 0.  0.
         24    2    5    5    0    0  0.22695324029E+02 -0.72498161667E+01 -0.43334119738E+01  0.83810877194E+02  0.80236195756E+02 0.  0.
          5    1    5    5  501    0  0.73851308095E+02  0.11463957492E+02 -0.14668064799E+03  0.16468983127E+03  0.47000000000E+01 0. -1.
        -11    1    6    6    0    0 -0.16282480066E+02 -0.32292142486E+02  0.51245865098E+01  0.36526196220E+02  0.00000000000E+00 0.  1.
         12    1    6    6    0    0  0.38977804094E+02  0.25042326319E+02 -0.94579984836E+01  0.47284680974E+02  0.00000000000E+00 0. -1.
         -5    1    3    3    0  503 -0.26019291703E+02 -0.12761632529E+02 -0.37706826695E+02  0.47788676325E+02  0.47000000000E+01 0.  1.
         11    1    4    4    0    0 -0.45495277168E+02 -0.29701240410E+02 -0.91548079889E+03  0.91709164049E+03  0.00000000000E+00 0. -1.
        -12    1    4    4    0    0 -0.25032063252E+02  0.38248731614E+02 -0.36054787786E+03  0.36343409566E+03  0.00000000000E+00 0.  1.
</event>
<event>
12    1  0.8451514E-002  0.1948840E+03  0.7818608E-02  0.1154588E+00
         21   -1    0    0  501  502  0.00000000000E+00  0.00000000000E+00  0.77303852048E+02  0.77303852048E+02  0.00000000000E+00 0. -1.
         21   -1    0    0  502  503 -0.00000000000E+00 -0.00000000000E+00 -0.48880113520E+03  0.48880113520E+03  0.00000000000E+00 0.  1.
         -6    2    1    2    0  503 -0.85679015755E+02  0.26795774043E+01 -0.18336426962E+03  0.26606422634E+03  0.17268365090E+03 0.  0.
        -24    2    3    3    0    0 -0.43403713758E+02 -0.64336406770E+02 -0.90852474475E+02  0.14416727997E+03  0.80665834719E+02 0.  0.
          6    2    1    2  501    0  0.85679015755E+02 -0.26795774043E+01 -0.22813301353E+03  0.30004076091E+03  0.17501917743E+03 0.  0.
         24    2    5    5    0    0  0.81880869453E+02  0.27063870301E+02 -0.65139609675E+02  0.13424559120E+03  0.79635294631E+02 0.  0.
          5    1    5    5  501    0  0.37981463021E+01 -0.29743447705E+02 -0.16299340386E+03  0.16579516971E+03  0.47000000000E+01 0. -1.
        -13    1    6    6    0    0  0.55699066478E+02  0.15564044467E+02 -0.82530524749E+02  0.10077654986E+03  0.00000000000E+00 0.  1.
         14    1    6    6    0    0  0.26181802975E+02  0.11499825834E+02  0.17390915074E+02  0.33469041342E+02  0.00000000000E+00 0. -1.
         -5    1    3    3    0  503 -0.42275301997E+02  0.67015984174E+02 -0.92511795145E+02  0.12189694637E+03  0.47000000000E+01 0.  1.
         13    1    4    4    0    0 -0.49483180453E+02 -0.56218985548E+02 -0.10362595630E+03  0.12785733574E+03  0.00000000000E+00 0. -1.
        -14    1    4    4    0    0  0.60794666952E+01 -0.81174212220E+01  0.12773481827E+02  0.16309944224E+02  0.00000000000E+00 0.  1.
</event>
<event>
12    1  0.8451514E-002  0.1926607E+03  0.7818608E-02  0.1156936E+00
         21   -1    0    0  503  502  0.00000000000E+00  0.00000000000E+00  0.84570793710E+03  0.84570793710E+03  0.00000000000E+00 0. -1.
         21   -1    0    0  501  503 -0.00000000000E+00 -0.00000000000E+00 -0.12553201839E+03  0.12553201839E+03  0.00000000000E+00 0. -1.
          6    2    1    2  501    0 -0.33828237741E+02 -0.70598085193E+02 -0.32368937749E+02  0.19536093314E+03  0.17603893537E+03 0.  0.
         24    2    3    3    0    0 -0.75948692242E+02 -0.49962021978E+02  0.21951168753E+02  0.12343914394E+03  0.80566500191E+02 0.  0.
         -6    2    1    2    0  502  0.33828237741E+02  0.70598085193E+02  0.75254485646E+03  0.77587902234E+03  0.17186057439E+03 0.  0.
        -24    2    5    5    0    0  0.30878972032E+02  0.11051344697E+03  0.48179561865E+03  0.50214708404E+03  0.82812698207E+02 0.  0.
          5    1    3    3  501    0  0.42120454501E+02 -0.20636063215E+02 -0.54320106502E+02  0.71921789207E+02  0.47000000000E+01 0. -1.
        -13    1    4    4    0    0 -0.41483897034E+02 -0.45767094010E+01  0.45531189655E+02  0.61765275143E+02  0.00000000000E+00 0.  1.
         14    1    4    4    0    0 -0.34464795208E+02 -0.45385312577E+02 -0.23580020901E+02  0.61673868795E+02  0.00000000000E+00 0. -1.
         -5    1    5    5    0  502  0.29492657086E+01 -0.39915361776E+02  0.27074923781E+03  0.27373193830E+03  0.47000000000E+01 0.  1.
         11    1    6    6    0    0 -0.19483913905E+02 -0.61699293344E+00  0.67851152688E+02  0.70595909955E+02  0.00000000000E+00 0. -1.
        -12    1    6    6    0    0  0.50362885937E+02  0.11113043990E+03  0.41394446597E+03  0.43155117409E+03  0.00000000000E+00 0.  1.
</event>
<event>
12    1  0.8451514E-002  0.1766910E+03  0.7818608E-02  0.1171607E+00
         21   -1    0    0  501  502  0.00000000000E+00  0.00000000000E+00  0.36647856683E+03  0.36647856683E+03  0.00000000000E+00 0.  1.
         21   -1    0    0  502  503 -0.00000000000E+00 -0.00000000000E+00 -0.91737584170E+02  0.91737584170E+02  0.00000000000E+00 0.  1.
         -6    2    1    2    0  503  0.28728097248E+02 -0.53951618440E+01  0.70477714605E+02  0.18813618119E+03  0.17197006448E+03 0.  0.
        -24    2    3    3    0    0  0.65286935343E+02  0.40406323934E+02  0.66011325431E+02  0.12917548772E+03  0.80210701300E+02 0.  0.
          6    2    1    2  501    0 -0.28728097248E+02  0.53951618440E+01  0.20426326805E+03  0.27007996980E+03  0.17425640898E+03 0.  0.
         24    2    5    5    0    0 -0.12254444332E+02  0.65650999258E+02  0.16870167191E+03  0.19804619784E+03  0.79383986195E+02 0.  0.
          5    1    5    5  501    0 -0.16473652916E+02 -0.60255837414E+02  0.35561596141E+02  0.72033771961E+02  0.47000000000E+01 0. -1.
        -11    1    6    6    0    0 -0.68462273229E+01  0.38289250916E+02  0.14767233901E+02  0.41605393417E+02  0.00000000000E+00 0.  1.
         12    1    6    6    0    0 -0.54082170095E+01  0.27361748342E+02  0.15393443801E+03  0.15644080442E+03  0.00000000000E+00 0. -1.
         -5    1    3    3    0  503 -0.36558838095E+02 -0.45801485778E+02  0.44663891743E+01  0.58960693471E+02  0.47000000000E+01 0.  1.
         13    1    4    4    0    0  0.19293679093E+02  0.26993157480E+02 -0.13923774154E+02  0.35982608165E+02  0.00000000000E+00 0. -1.
        -14    1    4    4    0    0  0.45993256251E+02  0.13413166454E+02  0.79935099584E+02  0.93192879558E+02  0.00000000000E+00 0.  1.
</event>
<event>
12    1  0.8451514E-002  0.2102569E+03  0.7818608E-02  0.1141459E+00
         21   -1    0    0  503  502  0.00000000000E+00  0.00000000000E+00  0.17106781019E+03  0.17106781019E+03  0.00000000000E+00 0. -1.
         21   -1    0    0  501  503 -0.00000000000E+00 -0.00000000000E+00 -0.28664496246E+03  0.28664496246E+03  0.00000000000E+00 0. -1.
          6    2    1    2  501    0 -0.88281411783E+01 -0.11972870507E+03 -0.13041124576E+03  0.24741678485E+03  0.17261249524E+03 0.  0.
         24    2    3    3    0    0 -0.42960867919E+02 -0.50024425898E+02 -0.11281550627E+02  0.10515750104E+03  0.81134131420E+02 0.  0.
         -6    2    1    2    0  502  0.88281411783E+01  0.11972870507E+03  0.14834093490E+02  0.21029598779E+03  0.17202166508E+03 0.  0.
        -24    2    5    5    0    0 -0.13345835996E+01  0.59826562159E+02  0.75690961498E+02  0.12417284291E+03  0.78158650267E+02 0.  0.
          5    1    3    3  501    0  0.34132726741E+02 -0.69704279173E+02 -0.11912969513E+03  0.14225928381E+03  0.47000000000E+01 0. -1.
        -11    1    4    4    0    0  0.23262208084E+02 -0.21865399101E+02 -0.89598052359E+01  0.33158771277E+02  0.00000000000E+00 0.  1.
         12    1    4    4    0    0 -0.66223076003E+02 -0.28159026798E+02 -0.23217453910E+01  0.71998729761E+02  0.00000000000E+00 0. -1.
         -5    1    5    5    0  502  0.10162724778E+02  0.59902142913E+02 -0.60856868008E+02  0.86123144881E+02  0.47000000000E+01 0.  1.
         13    1    6    6    0    0  0.11074969114E+02  0.69381222024E+02  0.81376888363E+02  0.10751096163E+03  0.00000000000E+00 0. -1.
        -14    1    6    6    0    0 -0.12409552713E+02 -0.95546598649E+01 -0.56859268653E+01  0.16661881286E+02  0.00000000000E+00 0.  1.
</event>
<event>
12    1  0.8451514E-002  0.2768515E+03  0.7818608E-02  0.1097450E+00
         21   -1    0    0  503  502  0.00000000000E+00  0.00000000000E+00  0.19904226869E+04  0.19904226869E+04  0.00000000000E+00 0.  1.
         21   -1    0    0  501  503 -0.00000000000E+00 -0.00000000000E+00 -0.40447963957E+02  0.40447963957E+02  0.00000000000E+00 0. -1.
          6    2    1    2  501    0 -0.15535004103E+03 -0.15057716046E+03  0.11986831688E+04  0.12301923342E+04  0.17240859505E+03 0.  0.
         24    2    3    3    0    0 -0.28656862969E+02 -0.11294906026E+03  0.52100997285E+03  0.53973590133E+03  0.79276385918E+02 0.  0.
         -6    2    1    2    0  502  0.15535004103E+03  0.15057716046E+03  0.75129155414E+03  0.80067831657E+03  0.17274157234E+03 0.  0.
        -24    2    5    5    0    0  0.29506419118E+02  0.55813173985E+02  0.44665264554E+03  0.45768591878E+03  0.77408496485E+02 0.  0.
          5    1    3    3  501    0 -0.12669317806E+03 -0.37628100200E+02  0.67767319591E+03  0.69045643291E+03  0.47000000000E+01 0. -1.
        -11    1    4    4    0    0 -0.31043558738E+02 -0.50367644949E+02  0.39073788324E+03  0.39519197309E+03  0.00000000000E+00 0.  1.
         12    1    4    4    0    0  0.23866957690E+01 -0.62581415308E+02  0.13027208961E+03  0.14454392824E+03  0.00000000000E+00 0. -1.
         -5    1    5    5    0  502  0.12584362191E+03  0.94763986473E+02  0.30463890860E+03  0.34299239779E+03  0.47000000000E+01 0.  1.
         11    1    6    6    0    0  0.30230024576E+02 -0.99655287173E+01  0.10346580016E+03  0.10825127229E+03  0.00000000000E+00 0. -1.
        -12    1    6    6    0    0 -0.72360545798E+00  0.65778702702E+02  0.34318684538E+03  0.34943464650E+03  0.00000000000E+00 0.  1.
</event>
<event>
12    1  0.8451514E-002  0.1775043E+03  0.7818608E-02  0.1170397E+00
         21   -1    0    0  501  502  0.00000000000E+00  0.00000000000E+00  0.40939218440E+03  0.40939218440E+03  0.00000000000E+00 0. -1.
         21   -1    0    0  502  503 -0.00000000000E+00 -0.00000000000E+00 -0.43837415036E+03  0.43837415036E+03  0.00000000000E+00 0. -1.
         -6    2    1    2    0  503 -0.38621799091E+02  0.13552579473E+02 -0.39951193972E+03  0.43691325501E+03  0.17207000509E+03 0.  0.
        -24    2    3    3    0    0 -0.60872038958E+00 -0.54638183879E+02 -0.25631739387E+03  0.27375154897E+03  0.79092366783E+02 0.  0.
          6    2    1    2  501    0  0.38621799091E+02 -0.13552579473E+02  0.37052997376E+03  0.41085307975E+03  0.17272080335E+03 0.  0.
         24    2    5    5    0    0 -0.38170649646E+01  0.43666022498E+02  0.11630406457E+03  0.14679261603E+03  0.78103426179E+02 0.  0.
          5    1    5    5  501    0  0.42438864055E+02 -0.57218601972E+02  0.25422590919E+03  0.26406046372E+03  0.47000000000E+01 0. -1.
        -13    1    6    6    0    0 -0.35969138153E+02  0.43242511870E+02  0.62247005585E+02  0.83895073971E+02  0.00000000000E+00 0.  1.
         14    1    6    6    0    0  0.32152073188E+02  0.42351062853E+00  0.54057058981E+02  0.62897542060E+02  0.00000000000E+00 0. -1.
         -5    1    3    3    0  503 -0.38013078701E+02  0.68190763353E+02 -0.14319454584E+03  0.16316170604E+03  0.47000000000E+01 0.  1.
         13    1    4    4    0    0  0.37912364245E+02 -0.26220540137E+02 -0.15473905022E+03  0.16145909002E+03  0.00000000000E+00 0. -1.
        -14    1    4    4    0    0 -0.38521084635E+02 -0.28417643742E+02 -0.10157834366E+03  0.11229245895E+03  0.00000000000E+00 0.  1.
</event>
<event>
12    1  0.8451514E-002  0.2232885E+03  0.7818608E-02  0.1131681E+00
         21   -1    0    0  503  502  0.00000000000E+00  0.00000000000E+00  0.14729378694E+04  0.14729378694E+04  0.00000000000E+00 0. -1.
         21   -1    0    0  501  503 -0.00000000000E+00 -0.00000000000E+00 -0.37248487332E+02  0.37248487332E+02  0.00000000000E+00 0.  1.
          6    2    1    2  501    0 -0.14022645013E+03  0.18209672970E+02  0.95393835696E+03  0.97972248479E+03  0.17280830077E+03 0.  0.
         24    2    3    3    0    0 -0.81711442378E+01  0.34499346865E+02  0.45677895013E+03  0.46504440765E+03  0.79764147773E+02 0.  0.
         -6    2    1    2    0  502  0.14022645013E+03 -0.18209672970E+02  0.48175102507E+03  0.53046387190E+03  0.17120987044E+03 0.  0.
        -24    2    5    5    0    0  0.86100495184E+02  0.55032603599E+02  0.36493262263E+03  0.38226576388E+03  0.50094035968E+02 0.  0.
          5    1    3    3  501    0 -0.13205530589E+03 -0.16289673895E+02  0.49715940683E+03  0.51467807714E+03  0.47000000000E+01 0. -1.
        -13    1    4    4    0    0 -0.21185723291E+02  0.55211291642E+02  0.37667288931E+03  0.38128675185E+03  0.00000000000E+00 0.  1.
         14    1    4    4    0    0  0.13014579053E+02 -0.20711944777E+02  0.80106060824E+02  0.83757655800E+02  0.00000000000E+00 0. -1.
         -5    1    5    5    0  502  0.54125954944E+02 -0.73242276569E+02  0.11681840243E+03  0.14819810803E+03  0.47000000000E+01 0.  1.
         13    1    6    6    0    0  0.21468736784E+02 -0.84750784394E+01  0.81089693916E+02  0.84310569166E+02  0.00000000000E+00 0. -1.
        -14    1    6    6    0    0  0.64631758400E+02  0.63507682039E+02  0.28384292872E+03  0.29795519471E+03  0.00000000000E+00 0.  1.
</event>
<event>
12    1  0.8451514E-002  0.2263927E+03  0.7818608E-02  0.1129329E+00
         21   -1    0    0  503  502  0.00000000000E+00  0.00000000000E+00  0.25032275397E+03  0.25032275397E+03  0.00000000000E+00 0.  1.
         21   -1    0    0  501  503 -0.00000000000E+00 -0.00000000000E+00 -0.21927721612E+03  0.21927721612E+03  0.00000000000E+00 0.  1.
          6    2    1    2  501    0 -0.92863346126E+02  0.11391502612E+03 -0.46217668051E+02  0.23038609086E+03  0.17129344351E+03 0.  0.
         24    2    3    3    0    0 -0.27270444876E+02  0.51949018139E+02 -0.85799811635E+02  0.13174000158E+03  0.80940982756E+02 0.  0.
         -6    2    1    2    0  502  0.92863346126E+02 -0.11391502612E+03  0.77263205900E+02  0.23921387923E+03  0.17220175028E+03 0.  0.
        -24    2    5    5    0    0  0.18025309801E+02 -0.25950172706E+02  0.86492127545E+02  0.12325780948E+03  0.81934584965E+02 0.  0.
          5    1    3    3  501    0 -0.65592901250E+02  0.61966007979E+02  0.39582143584E+02  0.98646089279E+02  0.47000000000E+01 0. -1.
        -11    1    4    4    0    0  0.66322123011E+01  0.98960792432E+01  0.13924917774E+02  0.18325445681E+02  0.00000000000E+00 0.  1.
         12    1    4    4    0    0 -0.33902657177E+02  0.42052938896E+02 -0.99724729409E+02  0.11341455590E+03  0.00000000000E+00 0. -1.
         -5    1    5    5    0  502  0.74838036325E+02 -0.87964853412E+02 -0.92289216445E+01  0.11595606975E+03  0.47000000000E+01 0.  1.
         11    1    6    6    0    0  0.48712342959E+02 -0.14737641306E+02  0.70316373730E+02  0.86801398851E+02  0.00000000000E+00 0. -1.
        -12    1    6    6    0    0 -0.30687033158E+02 -0.11212531400E+02  0.16175753814E+02  0.36456410628E+02  0.00000000000E+00 0.  1.
</event>
<event>
12    1  0.8451514E-002  0.1796695E+03  0.7818608E-02  0.1168302E+00
         21   -1    0    0  501  502  0.00000000000E+00  0.00000000000E+00  0.15746118001E+04  0.15746118001E+04  0.00000000000E+00 0. -1.
         21   -1    0    0  502  503 -0.00000000000E+00 -0.00000000000E+00 -0.21553127606E+02  0.21553127606E+02  0.00000000000E+00 0. -1.
         -6    2    1    2    0  503  0.34229602746E+02 -0.41189000718E+02  0.96125380108E+03  0.97790081551E+03  0.17150199824E+03 0.  0.
        -24    2    3    3    0    0  0.84849232103E+02 -0.40474243825E+02  0.55353195792E+03  0.56702121131E+03  0.79233004750E+02 0.  0.
          6    2    1    2  501    0 -0.34229602746E+02  0.41189000718E+02  0.59180487143E+03  0.61826411221E+03  0.17073168164E+03 0.  0.
         24    2    5    5    0    0 -0.22765497905E+02 -0.35700297916E+02  0.41823552632E+03  0.42802269320E+03  0.80558619991E+02 0.  0.
          5    1    5    5  501    0 -0.11464104841E+02  0.76889298635E+02  0.17356934511E+03  0.19024141901E+03  0.47000000000E+01 0. -1.
        -11    1    6    6    0    0 -0.42335474467E+02 -0.38664574279E+02  0.38571011495E+03  0.38994811767E+03  0.00000000000E+00 0.  1.
         12    1    6    6    0    0  0.19569976562E+02  0.29642763630E+01  0.32525411372E+02  0.38074575532E+02  0.00000000000E+00 0. -1.
         -5    1    3    3    0  503 -0.50619629357E+02 -0.71475689335E+00  0.40772184316E+03  0.41087960420E+03  0.47000000000E+01 0.  1.
         11    1    4    4    0    0  0.32922286952E+02  0.16339081857E+02  0.29483490551E+03  0.29711691989E+03  0.00000000000E+00 0. -1.
        -12    1    4    4    0    0  0.51926945151E+02 -0.56813325682E+02  0.25869705241E+03  0.26990429143E+03  0.00000000000E+00 0.  1.
</event>
<event>
12    1  0.8451514E-002  0.2120548E+03  0.7818608E-02  0.1139960E+00
         21   -1    0    0  503  502  0.00000000000E+00  0.00000000000E+00  0.33085532800E+03  0.33085532800E+03  0.00000000000E+00 0.  1.
         21   -1    0    0  501  503 -0.00000000000E+00 -0.00000000000E+00 -0.13587526544E+03  0.13587526544E+03  0.00000000000E+00 0.  1.
          6    2    1    2  501    0  0.65900917210E+01 -0.12374938913E+03  0.96980534769E+02  0.23312589999E+03  0.17200325725E+03 0.  0.
         24    2    3    3    0    0 -0.46074464429E+02 -0.12587889652E+03  0.55007270200E+02  0.16558380042E+03  0.80148876001E+02 0.  0.
         -6    2    1    2    0  502 -0.65900917210E+01  0.12374938913E+03  0.97999527789E+02  0.23360469345E+03  0.17207528799E+03 0.  0.
        -24    2    5    5    0    0  0.28247176999E+02  0.14263642874E+02  0.55652630082E+01  0.86068436107E+02  0.79846408968E+02 0.  0.
          5    1    3    3  501    0  0.52664556150E+02  0.21295073944E+01  0.41973264570E+02  0.67542099574E+02  0.47000000000E+01 0. -1.
        -11    1    4    4    0    0 -0.26089559408E+02 -0.93337406665E+02  0.74937296894E+02  0.12250769388E+03  0.00000000000E+00 0.  1.
         12    1    4    4    0    0 -0.19984905020E+02 -0.32541489856E+02 -0.19930026695E+02  0.43076106542E+02  0.00000000000E+00 0. -1.
         -5    1    5    5    0  502 -0.34837268720E+02  0.10948574625E+03  0.92434264781E+02  0.14753625734E+03  0.47000000000E+01 0.  1.
         11    1    6    6    0    0  0.55246328609E+02 -0.22235344674E+00  0.38414415931E+01  0.55380167382E+02  0.00000000000E+00 0. -1.
        -12    1    6    6    0    0 -0.26999151609E+02  0.14485996321E+02  0.17238214152E+01  0.30688268724E+02  0.00000000000E+00 0.  1.
</event>
<event>
12    1  0.8451514E-002  0.2149142E+03  0.7818608E-02  0.1137763E+00
         21   -1    0    0  501  502  0.00000000000E+00  0.00000000000E+00  0.43082033277E+03  0.43082033277E+03  0.00000000000E+00 0.  1.
         21   -1    0    0  502  503 -0.00000000000E+00 -0.00000000000E+00 -0.14273109098E+03  0.14273109098E+03  0.00000000000E+00 0.  1.
         -6    2    1    2    0  503  0.12903497056E+03  0.67802231993E+01  0.86116836297E+00  0.21491590723E+03  0.17173267167E+03 0.  0.
        -24    2    3    3    0    0  0.89762952497E+01 -0.18737595272E+02  0.30305859484E+02  0.88605478481E+02  0.80627627677E+02 0.  0.
          6    2    1    2  501    0 -0.12903497056E+03 -0.67802231993E+01  0.28722807343E+03  0.35863551652E+03  0.17153271550E+03 0.  0.
         24    2    5    5    0    0  0.28236061655E+01 -0.14585914289E+02  0.90081302704E+02  0.12128229392E+03  0.79837535495E+02 0.  0.
          5    1    5    5  501    0 -0.13185857672E+03  0.78056910896E+01  0.19714677073E+03  0.23735322260E+03  0.47000000000E+01 0. -1.
        -11    1    6    6    0    0 -0.31073725144E+02 -0.27353337722E+02  0.65574906294E+02  0.77549015560E+02  0.00000000000E+00 0.  1.
         12    1    6    6    0    0  0.33897331309E+02  0.12767423433E+02  0.24506396410E+02  0.43733278359E+02  0.00000000000E+00 0. -1.
         -5    1    3    3    0  503  0.12005867531E+03  0.25517818471E+02 -0.29444691121E+02  0.12631042875E+03  0.47000000000E+01 0.  1.
         13    1    4    4    0    0 -0.32415971697E+02 -0.16831812265E+02 -0.12106976189E+01  0.36545463657E+02  0.00000000000E+00 0. -1.
        -14    1    4    4    0    0  0.41392266947E+02 -0.19057830070E+01  0.31516557103E+02  0.52060014824E+02  0.00000000000E+00 0.  1.
</event>
<event>
12    1  0.8451514E-002  0.1771169E+03  0.7818608E-02  0.1171789E+00
         21   -1    0    0  501  502  0.00000000000E+00  0.00000000000E+00  0.29035151252E+03  0.29035151252E+03  0.00000000000E+00 0.  1.
         21   -1    0    0  502  503 -0.00000000000E+00 -0.00000000000E+00 -0.12499396407E+03  0.12499396407E+03  0.00000000000E+00 0.  1.
         -6    2    1    2    0  503  0.23486398286E+00  0.32393102343E+02  0.16619443488E+03  0.24288063567E+03  0.17412939085E+03 0.  0.
        -24    2    3    3    0    0 -0.65280129109E+01  0.70496583301E+02  0.45855633807E+02  0.11638506734E+03  0.80189535088E+02 0.  0.
          6    2    1    2  501    0 -0.23486398286E+00 -0.32393102343E+02 -0.83688642551E+00  0.17246484092E+03  0.16939318975E+03 0.  0.
         24    2    5    5    0    0 -0.63105706230E+02 -0.16670900137E+02 -0.19125066181E+02  0.10496315230E+03  0.79945269492E+02 0.  0.
          5    1    5    5  501    0  0.62870842247E+02 -0.15722202207E+02  0.18288179755E+02  0.67501688615E+02  0.47000000000E+01 0. -1.
        -13    1    6    6    0    0 -0.20309298804E+02  0.30844623033E+02 -0.17814023256E+02  0.41002412277E+02  0.00000000000E+00 0.  1.
         14    1    6    6    0    0 -0.42796407427E+02 -0.47515523170E+02 -0.13110429250E+01  0.63960740023E+02  0.00000000000E+00 0. -1.
         -5    1    3    3    0  503  0.67628768937E+01 -0.38103480957E+02  0.12033880107E+03  0.12649556833E+03  0.47000000000E+01 0.  1.
         11    1    4    4    0    0  0.28553965397E+02  0.30721953656E+02 -0.58110872921E+01  0.42343076315E+02  0.00000000000E+00 0. -1.
        -12    1    4    4    0    0 -0.35081978308E+02  0.39774629645E+02  0.51666721099E+02  0.74041991022E+02  0.00000000000E+00 0.  1.
</event>
<event>
12    1  0.8451514E-002  0.1729999E+03  0.7818608E-02  0.1175039E+00
         21   -1    0    0  501  502  0.00000000000E+00  0.00000000000E+00  0.19338026641E+04  0.19338026641E+04  0.00000000000E+00 0. -1.
         21   -1    0    0  502  503 -0.00000000000E+00 -0.00000000000E+00 -0.15973024857E+02  0.15973024857E+02  0.00000000000E+00 0. -1.
         -6    2    1    2    0  503  0.10915839762E+02  0.23342002757E+01  0.76769235219E+03  0.78670014223E+03  0.17152539790E+03 0.  0.
        -24    2    3    3    0    0  0.35792857796E+02  0.33176046559E+02  0.23706566180E+03  0.25457528840E+03  0.78909256268E+02 0.  0.
          6    2    1    2  501    0 -0.10915839762E+02 -0.23342002757E+01  0.11501372871E+04  0.11630755468E+04  0.17263934743E+03 0.  0.
         24    2    5    5    0    0 -0.41365145769E+02  0.44057124057E+02  0.96029439694E+03  0.96523286141E+03  0.76531316983E+02 0.  0.
          5    1    5    5  501    0  0.30449306007E+02 -0.46391324333E+02  0.18984289014E+03  0.19784268535E+03  0.47000000000E+01 0. -1.
        -13    1    6    6    0    0 -0.12921413674E+02  0.36638589802E+02  0.16962424803E+03  0.17401647828E+03  0.00000000000E+00 0.  1.
         14    1    6    6    0    0 -0.28443732095E+02  0.74185342544E+01  0.79067014891E+03  0.79121638313E+03  0.00000000000E+00 0. -1.
         -5    1    3    3    0  503 -0.24877018033E+02 -0.30841846284E+02  0.53062669039E+03  0.53212485383E+03  0.47000000000E+01 0.  1.
         11    1    4    4    0    0  0.37325898100E+02  0.43680171882E+01  0.21498813882E+03  0.21824802880E+03  0.00000000000E+00 0. -1.
        -12    1    4    4    0    0 -0.15330403045E+01  0.28808029371E+02  0.22077522977E+02  0.36327259594E+02  0.00000000000E+00 0.  1.
</event>
<event>
12    1  0.8451514E-002  0.2515814E+03  0.7818608E-02  0.1112761E+00
         21   -1    0    0  501  502  0.00000000000E+00  0.00000000000E+00  0.11008171271E+04  0.11008171271E+04  0.00000000000E+00 0.  1.
         21   -1    0    0  502  503 -0.00000000000E+00 -0.00000000000E+00 -0.62923343191E+02  0.62923343191E+02  0.00000000000E+00 0.  1.
         -6    2    1    2    0  503  0.17091466009E+03 -0.55553396001E+02  0.34077575411E+03  0.42358152950E+03  0.17605452765E+03 0.  0.
        -24    2    3    3    0    0  0.12270159013E+03 -0.83968045861E+02  0.15663763308E+03  0.23106963362E+03  0.82167600290E+02 0.  0.
          6    2    1    2  501    0 -0.17091466009E+03  0.55553396001E+02  0.69711802975E+03  0.74015894074E+03  0.17194100531E+03 0.  0.
         24    2    5    5    0    0 -0.16870059729E+03  0.94508970676E+02  0.58799401079E+03  0.62417368139E+03  0.80398947431E+02 0.  0.
          5    1    5    5  501    0 -0.22140628049E+01 -0.38955574675E+02  0.10912401896E+03  0.11598525935E+03  0.47000000000E+01 0. -1.
        -13    1    6    6    0    0 -0.49412509951E+02 -0.10468235075E+02  0.13971587518E+03  0.14856549351E+03  0.00000000000E+00 0.  1.
         14    1    6    6    0    0 -0.11928808734E+03  0.10497720575E+03  0.44827813561E+03  0.47560818788E+03  0.00000000000E+00 0. -1.
         -5    1    3    3    0  503  0.48213069969E+02  0.28414649859E+02  0.18413812103E+03  0.19251189588E+03  0.47000000000E+01 0.  1.
         11    1    4    4    0    0 -0.10045677372E+02  0.34486938663E+01  0.66614595811E+01  0.12537310995E+02  0.00000000000E+00 0. -1.
        -12    1    4    4    0    0  0.13274726750E+03 -0.87416739727E+02  0.14997617350E+03  0.21853232262E+03  0.00000000000E+00 0.  1.
</event>
<event>
12    1  0.8451514E-002  0.1941167E+03  0.7818608E-02  0.1155214E+00
         21   -1    0    0  501  502  0.00000000000E+00  0.00000000000E+00  0.65725028944E+03  0.65725028944E+03  0.00000000000E+00 0.  1.
         21   -1    0    0  502  503 -0.00000000000E+00 -0.00000000000E+00 -0.14919990653E+03  0.14919990653E+03  0.00000000000E+00 0.  1.
         -6    2    1    2    0  503  0.87035401256E+02  0.92734490776E+01 -0.62861706058E+02  0.20404142786E+03  0.17326324557E+03 0.  0.
        -24    2    3    3    0    0  0.96657096868E+01  0.34746082230E+01  0.26658513597E+02  0.85484878252E+02  0.80569778556E+02 0.  0.
          6    2    1    2  501    0 -0.87035401256E+02 -0.92734490776E+01  0.57091208897E+03  0.60240876811E+03  0.17115651502E+03 0.  0.
         24    2    5    5    0    0 -0.26144101093E+02 -0.26661859080E+02  0.12668242707E+03  0.15366364028E+03  0.78547490505E+02 0.  0.
          5    1    5    5  501    0 -0.60891300164E+02  0.17388410003E+02  0.44422966189E+03  0.44874512782E+03  0.47000000000E+01 0. -1.
        -13    1    6    6    0    0 -0.38590302158E+02  0.10934569329E+02  0.32950547561E+02  0.51908716143E+02  0.00000000000E+00 0.  1.
         14    1    6    6    0    0  0.12446201066E+02 -0.37596428409E+02  0.93731879512E+02  0.10175492414E+03  0.00000000000E+00 0. -1.
         -5    1    3    3    0  503  0.77369691570E+02  0.57988408546E+01 -0.89520219654E+02  0.11855654961E+03  0.47000000000E+01 0.  1.
         13    1    4    4    0    0  0.41532141073E+02  0.15999362346E+02  0.25350289425E+02  0.51220459891E+02  0.00000000000E+00 0. -1.
        -14    1    4    4    0    0 -0.31866431386E+02 -0.12524754123E+02  0.13082241719E+01  0.34264418361E+02  0.00000000000E+00 0.  1.
</event>
<event>
12    1  0.8451514E-002  0.2339517E+03  0.7818608E-02  0.1124203E+00
         21   -1    0    0  501  502  0.00000000000E+00  0.00000000000E+00  0.68811732017E+03  0.68811732017E+03  0.00000000000E+00 0.  1.
         21   -1    0    0  502  503 -0.00000000000E+00 -0.00000000000E+00 -0.97264573922E+02  0.97264573922E+02  0.00000000000E+00 0. -1.
         -6    2    1    2    0  503  0.48005902211E+02 -0.14838751800E+03  0.12584257861E+03  0.26564966542E+03  0.17438454060E+03 0.  0.
        -24    2    3    3    0    0  0.66189835726E+02 -0.21551781997E+02  0.55418183619E+02  0.11936349117E+03  0.79566917049E+02 0.  0.
          6    2    1    2  501    0 -0.48005902211E+02  0.14838751800E+03  0.46501016763E+03  0.51973222867E+03  0.17194101131E+03 0.  0.
         24    2    5    5    0    0 -0.24512550884E+02  0.13463842615E+03  0.46614656055E+03  0.49208523115E+03  0.78274439316E+02 0.  0.
          5    1    5    5  501    0 -0.23493351327E+02  0.13749091847E+02 -0.11363929186E+01  0.27646997523E+02  0.47000000000E+01 0. -1.
        -13    1    6    6    0    0  0.33770684434E+01  0.78641011565E+02  0.36311670896E+03  0.37155020874E+03  0.00000000000E+00 0.  1.
         14    1    6    6    0    0 -0.27889619327E+02  0.55997414588E+02  0.10302985159E+03  0.12053502241E+03  0.00000000000E+00 0. -1.
         -5    1    3    3    0  503 -0.18183933515E+02 -0.12683573600E+03  0.70424394990E+02  0.14628617424E+03  0.47000000000E+01 0.  1.
         13    1    4    4    0    0  0.40776317717E+02 -0.47904484736E+02  0.14693760954E+02  0.64602278252E+02  0.00000000000E+00 0. -1.
        -14    1    4    4    0    0  0.25413518008E+02  0.26352702739E+02  0.40724422665E+02  0.54761212921E+02  0.00000000000E+00 0.  1.
</event>
<event>
12    1  0.8451514E-002  0.1750329E+03  0.7818608E-02  0.1173056E+00
         21   -1    0    0  503  502  0.00000000000E+00  0.00000000000E+00  0.35196102296E+02  0.35196102296E+02  0.00000000000E+00 0.  1.
         21   -1    0    0  501  503 -0.00000000000E+00 -0.00000000000E+00 -0.11257805047E+04  0.11257805047E+04  0.00000000000E+00 0.  1.
          6    2    1    2  501    0  0.33672172621E+02  0.34725963545E+01 -0.82382288434E+03  0.84191824902E+03  0.17028305593E+03 0.  0.
         24    2    3    3    0    0  0.42728373194E+02  0.20144631803E+02 -0.81553125824E+03  0.82068590110E+03  0.78756555514E+02 0.  0.
         -6    2    1    2    0  502 -0.33672172621E+02 -0.34725963545E+01 -0.26676151805E+03  0.31905835796E+03  0.17172843136E+03 0.  0.
        -24    2    5    5    0    0  0.11620632013E+02  0.52279104984E+02 -0.15716507677E+03  0.18793566620E+03  0.88038681088E+02 0.  0.
          5    1    3    3  501    0 -0.90562005734E+01 -0.16672035449E+02 -0.82916261067E+01  0.21232347923E+02  0.47000000000E+01 0. -1.
        -13    1    4    4    0    0 -0.70698171960E+01  0.55115464794E+01 -0.55302001972E+03  0.55309267006E+03  0.00000000000E+00 0.  1.
         14    1    4    4    0    0  0.49798190390E+02  0.14633085324E+02 -0.26251123851E+03  0.26759323104E+03  0.00000000000E+00 0. -1.
         -5    1    5    5    0  502 -0.45292804634E+02 -0.55751701339E+02 -0.10959644128E+03  0.13112269176E+03  0.47000000000E+01 0.  1.
         11    1    6    6    0    0  0.42411221221E+02  0.42513075555E+01 -0.44326711568E+02  0.61495062077E+02  0.00000000000E+00 0. -1.
        -12    1    6    6    0    0 -0.30790589208E+02  0.48027797429E+02 -0.11283836521E+03  0.12644060413E+03  0.00000000000E+00 0.  1.
</event>
<event>
12    1  0.8451514E-002  0.2097515E+03  0.7818608E-02  0.1141786E+00
         21   -1    0    0  503  502  0.00000000000E+00  0.00000000000E+00  0.33784450524E+02  0.33784450524E+02  0.00000000000E+00 0. -1.
         21   -1    0    0  501  503 -0.00000000000E+00 -0.00000000000E+00 -0.13612278720E+04  0.13612278720E+04  0.00000000000E+00 0. -1.
          6    2    1    2  501    0  0.11581904325E+03  0.26284182420E+02 -0.80961743879E+03  0.83631793039E+03  0.17274945580E+03 0.  0.
         24    2    3    3    0    0  0.94803992800E+01  0.50546400594E+02 -0.29368558353E+03  0.30896194844E+03  0.81002759369E+02 0.  0.
         -6    2    1    2    0  502 -0.11581904325E+03 -0.26284182420E+02 -0.51782598271E+03  0.55869439216E+03  0.17288946305E+03 0.  0.
        -24    2    5    5    0    0 -0.11571020050E+03 -0.61199195477E+02 -0.49055334608E+03  0.51414153936E+03  0.81023114713E+02 0.  0.
          5    1    3    3  501    0  0.10633864397E+03 -0.24262218175E+02 -0.51593185526E+03  0.52735598195E+03  0.47000000000E+01 0. -1.
        -13    1    4    4    0    0 -0.32816860663E+02  0.16947525952E+02 -0.73643861529E+02  0.82386790935E+02  0.00000000000E+00 0.  1.
         14    1    4    4    0    0  0.42297259943E+02  0.33598874643E+02 -0.22004172201E+03  0.22657515751E+03  0.00000000000E+00 0. -1.
         -5    1    5    5    0  502 -0.10884274927E+00  0.34915013058E+02 -0.27272636629E+02  0.44552852796E+02  0.47000000000E+01 0.  1.
         11    1    6    6    0    0 -0.83564951708E+02 -0.23879852987E+01 -0.21830477990E+03  0.23376436973E+03  0.00000000000E+00 0. -1.
        -12    1    6    6    0    0 -0.32145248792E+02 -0.58811210178E+02 -0.27224856619E+03  0.28037716964E+03  0.00000000000E+00 0.  1.
</event>
<event>
12    1  0.8451514E-002  0.1865924E+03  0.7818608E-02  0.1161655E+00
         21   -1    0    0  503  502  0.00000000000E+00  0.00000000000E+00  0.12724344315E+04  0.12724344315E+04  0.00000000000E+00 0. -1.
         21   -1    0    0  501  503 -0.00000000000E+00 -0.00000000000E+00 -0.28291769250E+02  0.28291769250E+02  0.00000000000E+00 0.  1.
          6    2    1    2  501    0  0.49728968736E+02  0.52283954668E+02  0.50027439469E+03  0.53381244470E+03  0.17168189738E+03 0.  0.
         24    2    3    3    0    0 -0.20398209464E+02  0.53555308193E+02  0.39572173078E+03  0.40782519538E+03  0.80258605683E+02 0.  0.
         -6    2    1    2    0  502 -0.49728968736E+02 -0.52283954668E+02  0.74386826752E+03  0.76691375601E+03  0.17207593523E+03 0.  0.
        -24    2    5    5    0    0 -0.68587720246E+02 -0.26746412111E+02  0.25636728458E+03  0.27835760063E+03  0.79618611504E+02 0.  0.
          5    1    3    3  501    0  0.70127178200E+02 -0.12713535253E+01  0.10455266391E+03  0.12598724932E+03  0.47000000000E+01 0. -1.
        -13    1    4    4    0    0 -0.43126781494E+02  0.30938631467E+01  0.17915952693E+03  0.18430308560E+03  0.00000000000E+00 0.  1.
         14    1    4    4    0    0  0.22728572031E+02  0.50461445047E+02  0.21656220385E+03  0.22352210978E+03  0.00000000000E+00 0. -1.
         -5    1    5    5    0  502  0.18858751510E+02 -0.25537542557E+02  0.48750098294E+03  0.48855615537E+03  0.47000000000E+01 0.  1.
         11    1    6    6    0    0 -0.40330106102E+02 -0.49100521620E+02  0.21136185825E+03  0.22070617075E+03  0.00000000000E+00 0. -1.
        -12    1    6    6    0    0 -0.28257614145E+02  0.22354109508E+02  0.45005426327E+02  0.57651429886E+02  0.00000000000E+00 0.  1.
</event>
<event>
12    1  0.8451514E-002  0.1824114E+03  0.7818608E-02  0.1165678E+00
         21   -1    0    0  501  502  0.00000000000E+00  0.00000000000E+00  0.13880846040E+03  0.13880846040E+03  0.00000000000E+00 0. -1.
         21   -1    0    0  502  503 -0.00000000000E+00 -0.00000000000E+00 -0.32177938125E+03  0.32177938125E+03  0.00000000000E+00 0. -1.
         -6    2    1    2    0  503  0.39424872606E+02 -0.44415729680E+02 -0.20837296288E+03  0.27641621515E+03  0.17163785922E+03 0.  0.
        -24    2    3    3    0    0  0.83546177769E+02 -0.31113560358E+02 -0.19569184006E+03  0.22838978333E+03  0.76932304032E+02 0.  0.
          6    2    1    2  501    0 -0.39424872606E+02  0.44415729680E+02  0.25402042034E+02  0.18417162650E+03  0.17247274175E+03 0.  0.
         24    2    5    5    0    0 -0.25602711651E+02  0.69350880908E+02 -0.35714867944E+02  0.11656851574E+03  0.82750368832E+02 0.  0.
          5    1    5    5  501    0 -0.13822160955E+02 -0.24935151228E+02  0.61116909978E+02  0.67603110768E+02  0.47000000000E+01 0. -1.
        -11    1    6    6    0    0  0.24918648866E+02  0.12853841837E+02  0.78916343629E+01  0.29127962582E+02  0.00000000000E+00 0.  1.
         12    1    6    6    0    0 -0.50521360517E+02  0.56497039071E+02 -0.43606502307E+02  0.87440553153E+02  0.00000000000E+00 0. -1.
         -5    1    3    3    0  503 -0.44121305163E+02 -0.13302169322E+02 -0.12681122818E+02  0.48026431825E+02  0.47000000000E+01 0.  1.
         13    1    4    4    0    0 -0.47100504772E+01 -0.19490232382E+00 -0.77656213263E+02  0.77799164654E+02  0.00000000000E+00 0. -1.
        -14    1    4    4    0    0  0.88256228246E+02 -0.30918658035E+02 -0.11803562680E+03  0.15059061867E+03  0.00000000000E+00 0.  1.
</event>
<event>
12    1  0.8451514E-002  0.1797846E+03  0.7818608E-02  0.1168147E+00
         21   -1    0    0  503  502  0.00000000000E+00  0.00000000000E+00  0.33294914775E+03  0.33294914775E+03  0.00000000000E+00 0. -1.
         21   -1    0    0  501  503 -0.00000000000E+00 -0.00000000000E+00 -0.98147559826E+02  0.98147559826E+02  0.00000000000E+00 0. -1.
          6    2    1    2  501    0 -0.25626538467E+02 -0.46237011061E+02  0.92115374897E+02  0.20200930044E+03  0.17183694163E+03 0.  0.
         24    2    3    3    0    0 -0.22042339292E+02 -0.79685829448E+02  0.11241638805E+03  0.16243795892E+03  0.83144152283E+02 0.  0.
         -6    2    1    2    0  502  0.25626538467E+02  0.46237011061E+02  0.14268621303E+03  0.22908740713E+03  0.17125158117E+03 0.  0.
        -24    2    5    5    0    0  0.78224539368E+02  0.49478784543E+02  0.76682868341E+02  0.14449668481E+03  0.80198509612E+02 0.  0.
          5    1    3    3  501    0 -0.35841991757E+01  0.33448818387E+02 -0.20301013151E+02  0.39571341526E+02  0.47000000000E+01 0. -1.
        -11    1    4    4    0    0  0.27479617382E+02 -0.55459220825E+02  0.54363524042E+02  0.82378682269E+02  0.00000000000E+00 0.  1.
         12    1    4    4    0    0 -0.49521956673E+02 -0.24226608623E+02  0.58052864006E+02  0.80059276648E+02  0.00000000000E+00 0. -1.
         -5    1    5    5    0  502 -0.52598000901E+02 -0.32417734812E+01  0.66003344685E+02  0.84590722326E+02  0.47000000000E+01 0.  1.
         11    1    6    6    0    0  0.18011652844E+02 -0.22239323433E+02  0.21593079066E+02  0.35850637490E+02  0.00000000000E+00 0. -1.
        -12    1    6    6    0    0  0.60212886524E+02  0.71718107975E+02  0.55089789275E+02  0.10864604732E+03  0.00000000000E+00 0.  1.
</event>
<event>
12    1  0.8451514E-002  0.2810101E+03  0.7818608E-02  0.1095425E+00
         21   -1    0    0  501  502  0.00000000000E+00  0.00000000000E+00  0.21570554601E+03  0.21570554601E+03  0.00000000000E+00 0.  1.
         21   -1    0    0  502  503 -0.00000000000E+00 -0.00000000000E+00 -0.39065741732E+03  0.39065741732E+03  0.00000000000E+00 0.  1.
         -6    2    1    2    0  503  0.12048826523E+03 -0.18695222573E+03 -0.76336148128E+01  0.28111381342E+03  0.17175024674E+03 0.  0.
        -24    2    3    3    0    0  0.62088697610E+02 -0.21661604611E+02  0.34796541485E+01  0.10539502195E+03  0.82290772108E+02 0.  0.
          6    2    1    2  501    0 -0.12048826523E+03  0.18695222573E+03 -0.16731825649E+03  0.32524914991E+03  0.16829454478E+03 0.  0.
         24    2    5    5    0    0 -0.34096956912E+02  0.35749755713E+02 -0.10485980144E+03  0.14018485379E+03  0.78838872205E+02 0.  0.
          5    1    5    5  501    0 -0.86391308316E+02  0.15120247001E+03 -0.62458455052E+02  0.18506429612E+03  0.47000000000E+01 0. -1.
        -11    1    6    6    0    0 -0.41155442285E+02  0.38506025128E+02 -0.27963589105E+02  0.62916188032E+02  0.00000000000E+00 0.  1.
         12    1    6    6    0    0  0.70584853727E+01 -0.27562694153E+01 -0.76896212336E+02  0.77268665761E+02  0.00000000000E+00 0. -1.
         -5    1    3    3    0  503  0.58399567619E+02 -0.16529062112E+03 -0.11113268961E+02  0.17571879147E+03  0.47000000000E+01 0.  1.
         11    1    4    4    0    0  0.68737913539E+02 -0.37637273232E+02 -0.15312418566E+02  0.79849453701E+02  0.00000000000E+00 0. -1.
        -12    1    4    4    0    0 -0.66492159288E+01  0.15975668621E+02  0.18792072715E+02  0.25545568251E+02  0.00000000000E+00 0.  1.
</event>
<event>
12    1  0.8451514E-002  0.2036672E+03  0.7818608E-02  0.1149095E+00
         21   -1    0    0  501  502  0.00000000000E+00  0.00000000000E+00  0.94277640311E+02  0.94277640311E+02  0.00000000000E+00 0.  1.
         21   -1    0    0  502  503 -0.00000000000E+00 -0.00000000000E+00 -0.44805346952E+03  0.44805346952E+03  0.00000000000E+00 0.  1.
         -6    2    1    2    0  503 -0.87709245019E+02  0.20882027243E+02 -0.99430827857E+02  0.21649109722E+03  0.16986151690E+03 0.  0.
        -24    2    3    3    0    0 -0.70566852270E+02 -0.51411736818E+02 -0.71706651475E+02  0.13704948403E+03  0.77574930770E+02 0.  0.
          6    2    1    2  501    0  0.87709245019E+02 -0.20882027243E+02 -0.25434500135E+03  0.32584001261E+03  0.18262355648E+03 0.  0.
         24    2    5    5    0    0  0.21703913708E+02 -0.68119504827E+02 -0.20097495433E+03  0.22858501289E+03  0.82151378835E+02 0.  0.
          5    1    5    5  501    0  0.66005331311E+02  0.47237477584E+02 -0.53370047025E+02  0.97254999714E+02  0.47000000000E+01 0. -1.
        -11    1    6    6    0    0  0.31492477164E+02 -0.26712906921E+02 -0.17253287397E+03  0.17740616707E+03  0.00000000000E+00 0.  1.
         12    1    6    6    0    0 -0.97885634556E+01 -0.41406597906E+02 -0.28442080356E+02  0.51178845822E+02  0.00000000000E+00 0. -1.
         -5    1    3    3    0  503 -0.17142392749E+02  0.72293764061E+02 -0.27724176382E+02  0.79441613197E+02  0.47000000000E+01 0.  1.
         11    1    4    4    0    0 -0.20854409791E+02 -0.35933673104E+02 -0.74073439002E+02  0.84929439160E+02  0.00000000000E+00 0. -1.
        -12    1    4    4    0    0 -0.49712442479E+02 -0.15478063715E+02  0.23667875271E+01  0.52120044866E+02  0.00000000000E+00 0.  1.
</event>
<event>
12    1  0.8451514E-002  0.2365166E+03  0.7818608E-02  0.1124274E+00
         21   -1    0    0  501  502  0.00000000000E+00  0.00000000000E+00  0.83162454889E+02  0.83162454889E+02  0.00000000000E+00 0.  1.
         21   -1    0    0  502  503 -0.00000000000E+00 -0.00000000000E+00 -0.89065947938E+03  0.89065947938E+03  0.00000000000E+00 0.  1.
         -6    2    1    2    0  503 -0.79137050524E+02 -0.14233618040E+03 -0.67056361083E+03  0.71105251321E+03  0.17151635302E+03 0.  0.
        -24    2    3    3    0    0 -0.90731642502E+02 -0.60707328402E+02 -0.53710813124E+03  0.55411252763E+03  0.81473541436E+02 0.  0.
          6    2    1    2  501    0  0.79137050524E+02  0.14233618040E+03 -0.13693341366E+03  0.26276942106E+03  0.15419062180E+03 0.  0.
         24    2    5    5    0    0  0.53665672749E+02  0.13745933413E+03 -0.54776671567E+02  0.17648851363E+03  0.79828808871E+02 0.  0.
          5    1    5    5  501    0  0.25471377775E+02  0.48768462781E+01 -0.82156742092E+02  0.86280907428E+02  0.47000000000E+01 0. -1.
        -11    1    6    6    0    0  0.57316947071E+02  0.48940583144E+02 -0.43920001978E+02  0.87231758401E+02  0.00000000000E+00 0.  1.
         12    1    6    6    0    0 -0.36512743224E+01  0.88518750982E+02 -0.10856669590E+02  0.89256755230E+02  0.00000000000E+00 0. -1.
         -5    1    3    3    0  503  0.11594591978E+02 -0.81628852002E+02 -0.13345547959E+03  0.15693998559E+03  0.47000000000E+01 0.  1.
         11    1    4    4    0    0 -0.77803554308E+02 -0.17735357330E+02 -0.22367995612E+03  0.23748822862E+03  0.00000000000E+00 0. -1.
        -12    1    4    4    0    0 -0.12928088193E+02 -0.42971971071E+02 -0.31342817512E+03  0.31662429901E+03  0.00000000000E+00 0.  1.
</event>
<event>
12    1  0.8451514E-002  0.1841568E+03  0.7818608E-02  0.1165472E+00
         21   -1    0    0  503  502  0.00000000000E+00  0.00000000000E+00  0.73025629458E+02  0.73025629458E+02  0.00000000000E+00 0. -1.
         21   -1    0    0  501  503 -0.00000000000E+00 -0.00000000000E+00 -0.68667864776E+03  0.68667864776E+03  0.00000000000E+00 0. -1.
          6    2    1    2  501    0  0.11970725540E+02  0.47427668707E+02 -0.52726549408E+03  0.55629204574E+03  0.17046775904E+03 0.  0.
         24    2    3    3    0    0  0.43676403561E+02  0.53468787742E+02 -0.21011163128E+03  0.23746543482E+03  0.86466153178E+02 0.  0.
         -6    2    1    2    0  502 -0.11970725540E+02 -0.47427668707E+02 -0.86387524223E+02  0.20341223148E+03  0.17754168397E+03 0.  0.
        -24    2    5    5    0    0  0.23591840279E+02 -0.90145264889E+02 -0.81418721875E+02  0.14740983771E+03  0.80111848518E+02 0.  0.
          5    1    3    3  501    0 -0.31705678021E+02 -0.60411190349E+01 -0.31715386280E+03  0.31882661091E+03  0.47000000000E+01 0. -1.
        -11    1    4    4    0    0 -0.22947823263E+02  0.13724673555E+02 -0.94707132342E+02  0.98409400837E+02  0.00000000000E+00 0.  1.
         12    1    4    4    0    0  0.66624226824E+02  0.39744114187E+02 -0.11540449894E+03  0.13905603399E+03  0.00000000000E+00 0. -1.
         -5    1    5    5    0  502 -0.35562565819E+02  0.42717596182E+02 -0.49688023479E+01  0.56002393770E+02  0.47000000000E+01 0.  1.
         13    1    6    6    0    0  0.19192705715E+02  0.77450406989E+01 -0.11278691984E+01  0.20727221160E+02  0.00000000000E+00 0. -1.
        -14    1    6    6    0    0  0.43991345640E+01 -0.97890305588E+02 -0.80290852677E+02  0.12668261655E+03  0.00000000000E+00 0.  1.
</event>
<event>
12    1  0.8451514E-002  0.2200149E+03  0.7818608E-02  0.1134018E+00
         21   -1    0    0  501  502  0.00000000000E+00  0.00000000000E+00  0.30665928665E+02  0.30665928665E+02  0.00000000000E+00 0.  1.
         21   -1    0    0  502  503 -0.00000000000E+00 -0.00000000000E+00 -0.20347534200E+04  0.20347534200E+04  0.00000000000E+00 0.  1.
         -6    2    1    2    0  503  0.14835258763E+02 -0.13690593636E+03 -0.14926708302E+04  0.15086846041E+04  0.17058636183E+03 0.  0.
        -24    2    3    3    0    0 -0.35744734632E+02 -0.10614980238E+03 -0.12969051513E+04  0.13041104939E+04  0.78713037149E+02 0.  0.
          6    2    1    2  501    0 -0.14835258763E+02  0.13690593636E+03 -0.51141666108E+03  0.55673474457E+03  0.17159036762E+03 0.  0.
         24    2    5    5    0    0 -0.59528655884E+02  0.11989681217E+03 -0.28884175071E+03  0.32903210783E+03  0.83148449093E+02 0.  0.
          5    1    5    5  501    0  0.44693397121E+02  0.17009124193E+02 -0.22257491037E+03  0.22770263674E+03  0.47000000000E+01 0. -1.
        -11    1    6    6    0    0 -0.42753675930E+02  0.11798636781E+02 -0.11914344556E+03  0.12713081945E+03  0.00000000000E+00 0.  1.
         12    1    6    6    0    0 -0.16774979954E+02  0.10809817539E+03 -0.16969830516E+03  0.20190128838E+03  0.00000000000E+00 0. -1.
         -5    1    3    3    0  503  0.50579993395E+02 -0.30756133986E+02 -0.19576567891E+03  0.20457411016E+03  0.47000000000E+01 0.  1.
         11    1    4    4    0    0  0.63235319273E+01  0.84382845943E+01 -0.42843000926E+02  0.44121586908E+02  0.00000000000E+00 0. -1.
        -12    1    4    4    0    0 -0.42068266560E+02 -0.11458808697E+03 -0.12540621504E+04  0.12599889070E+04  0.00000000000E+00 0.  1.
</event>
<event>
12    1  0.8451514E-002  0.2240590E+03  0.7818608E-02  0.1131929E+00
         21   -1    0    0  503  502  0.00000000000E+00  0.00000000000E+00  0.10892539252E+03  0.10892539252E+03  0.00000000000E+00 0. -1.
         21   -1    0    0  501  503 -0.00000000000E+00 -0.00000000000E+00 -0.63269457162E+03  0.63269457162E+03  0.00000000000E+00 0.  1.
          6    2    1    2  501    0 -0.13349621700E+03  0.21401730736E+02 -0.45909435377E+03  0.50841346208E+03  0.17157315855E+03 0.  0.
         24    2    3    3    0    0 -0.13224114267E+03  0.43302395484E+02 -0.45879219864E+03  0.48597698229E+03  0.79501751586E+02 0.  0.
         -6    2    1    2    0  502  0.13349621700E+03 -0.21401730736E+02 -0.64674825323E+02  0.23320650206E+03  0.17867055029E+03 0.  0.
        -24    2    5    5    0    0  0.16181241744E+03  0.12391247292E+02 -0.51360062818E+02  0.18691238286E+03  0.77211277467E+02 0.  0.
          5    1    3    3  501    0 -0.12550743209E+01 -0.21900664747E+02 -0.30215512561E+00  0.22436479796E+02  0.47000000000E+01 0. -1.
        -13    1    4    4    0    0 -0.11457503801E+02 -0.15932115854E+02 -0.11751890946E+03  0.11914613208E+03  0.00000000000E+00 0.  1.
         14    1    4    4    0    0 -0.12078363887E+03  0.59234511338E+02 -0.34127328918E+03  0.36683085021E+03  0.00000000000E+00 0. -1.
         -5    1    5    5    0  502 -0.28316200443E+02 -0.33792978029E+02 -0.13314762505E+02  0.46294119196E+02  0.47000000000E+01 0.  1.
         13    1    6    6    0    0 -0.58446637004E+01  0.98389319163E+01 -0.71918254960E+01  0.13516176567E+02  0.00000000000E+00 0. -1.
        -14    1    6    6    0    0  0.16765708114E+03  0.25523153762E+01 -0.44168237322E+02  0.17339620630E+03  0.00000000000E+00 0.  1.
</event>
<event>
12    1  0.8451514E-002  0.2612597E+03  0.7818608E-02  0.1106519E+00
         21   -1    0    0  503  502  0.00000000000E+00  0.00000000000E+00  0.64626553058E+02  0.64626553058E+02  0.00000000000E+00 0. -1.
         21   -1    0    0  501  503 -0.00000000000E+00 -0.00000000000E+00 -0.15619031789E+04  0.15619031789E+04  0.00000000000E+00 0. -1.
          6    2    1    2  501    0  0.66278452819E+02 -0.18476643946E+03 -0.12138588303E+04  0.12416561038E+04  0.17240983029E+03 0.  0.
         24    2    3    3    0    0 -0.28546735276E+02 -0.82675696533E+02 -0.45889781690E+03  0.47393052917E+03  0.79829526046E+02 0.  0.
         -6    2    1    2    0  502 -0.66278452819E+02  0.18476643946E+03 -0.28341779549E+03  0.38487362817E+03  0.17108650562E+03 0.  0.
        -24    2    5    5    0    0 -0.82663688488E+02  0.15524799677E+03 -0.29185825292E+03  0.34975745344E+03  0.78827726984E+02 0.  0.
          5    1    3    3  501    0  0.94825188095E+02 -0.10209074292E+03 -0.75496101344E+03  0.76772557461E+03  0.47000000000E+01 0. -1.
        -13    1    4    4    0    0  0.20275995049E+02 -0.96125750184E+01 -0.39527760239E+02  0.45452848131E+02  0.00000000000E+00 0.  1.
         14    1    4    4    0    0 -0.48822730325E+02 -0.73063121514E+02 -0.41937005667E+03  0.42847768104E+03  0.00000000000E+00 0. -1.
         -5    1    5    5    0  502  0.16385235668E+02  0.29518442689E+02  0.84404574303E+01  0.35116174740E+02  0.47000000000E+01 0.  1.
         13    1    6    6    0    0 -0.34821885267E+02  0.91632222238E+01 -0.33805704745E+02  0.49389816849E+02  0.00000000000E+00 0. -1.
        -14    1    6    6    0    0 -0.47841803220E+02  0.14608477454E+03 -0.25805254817E+03  0.30036763659E+03  0.00000000000E+00 0.  1.
</event>
<event>
12    1  0.8451514E-002  0.2195398E+03  0.7818608E-02  0.1134618E+00
         21   -1    0    0  501  502  0.00000000000E+00  0.00000000000E+00  0.86685577626E+02  0.86685577626E+02  0.00000000000E+00 0.  1.
         21   -1    0    0  502  503 -0.00000000000E+00 -0.00000000000E+00 -0.71650456273E+03  0.71650456273E+03  0.00000000000E+00 0.  1.
         -6    2    1    2    0  503 -0.83610016225E+00  0.13353697435E+03 -0.50922724633E+03  0.55453593903E+03  0.17425526302E+03 0.  0.
        -24    2    3    3    0    0  0.63152659605E+02  0.10236594782E+03 -0.27599350308E+03  0.31063787987E+03  0.76527334857E+02 0.  0.
          6    2    1    2  501    0  0.83610016225E+00 -0.13353697435E+03 -0.12059173878E+03  0.24865420133E+03  0.17162086643E+03 0.  0.
         24    2    5    5    0    0 -0.30384249086E+02 -0.15281289681E+02 -0.83992884110E+02  0.12090177150E+03  0.80035700561E+02 0.  0.
          5    1    5    5  501    0  0.31220349248E+02 -0.11825568467E+03 -0.36598854671E+02  0.12775242983E+03  0.47000000000E+01 0. -1.
        -11    1    6    6    0    0  0.15209720398E+02 -0.77419767578E+00  0.80054493065E+01  0.17205295558E+02  0.00000000000E+00 0.  1.
         12    1    6    6    0    0 -0.45593969484E+02 -0.14507092006E+02 -0.91998333416E+02  0.10369647594E+03  0.00000000000E+00 0. -1.
         -5    1    3    3    0  503 -0.63988759767E+02  0.31171026531E+02 -0.23323374325E+03  0.24389805916E+03  0.47000000000E+01 0.  1.
         13    1    4    4    0    0 -0.68616008772E+01  0.25568565071E+02 -0.16716332116E+02  0.31309245372E+02  0.00000000000E+00 0. -1.
        -14    1    4    4    0    0  0.70014260482E+02  0.76797382750E+02 -0.25927717096E+03  0.27932863450E+03  0.00000000000E+00 0.  1.
</event>
<event>
12    1  0.8451514E-002  0.1994771E+03  0.7818608E-02  0.1152452E+00
         21   -1    0    0  503  502  0.00000000000E+00  0.00000000000E+00  0.12647558675E+03  0.12647558675E+03  0.00000000000E+00 0. -1.
         21   -1    0    0  501  503 -0.00000000000E+00 -0.00000000000E+00 -0.29839111689E+03  0.29839111689E+03  0.00000000000E+00 0.  1.
          6    2    1    2  501    0 -0.36161639056E+02  0.90446748818E+02 -0.89205473216E+02  0.21851487246E+03  0.17407715106E+03 0.  0.
         24    2    3    3    0    0 -0.57697829435E+02  0.46565403536E+01 -0.75089772755E+01  0.98015184435E+02  0.78739245301E+02 0.  0.
         -6    2    1    2    0  502  0.36161639056E+02 -0.90446748818E+02 -0.82710056921E+02  0.20635183119E+03  0.16202421488E+03 0.  0.
        -24    2    5    5    0    0  0.15875430390E+02  0.79360936438E+01 -0.10730112988E+02  0.82683256840E+02  0.80039832362E+02 0.  0.
          5    1    3    3  501    0  0.21536190380E+02  0.85790208465E+02 -0.81696495940E+02  0.12049968802E+03  0.47000000000E+01 0. -1.
        -11    1    4    4    0    0  0.86416606178E+01 -0.19639932510E+02  0.12181534269E+02  0.24673771993E+02  0.00000000000E+00 0.  1.
         12    1    4    4    0    0 -0.66339490053E+02  0.24296472863E+02 -0.19690511545E+02  0.73341412442E+02  0.00000000000E+00 0. -1.
         -5    1    5    5    0  502  0.20286208666E+02 -0.98382842462E+02 -0.71979943932E+02  0.12366857435E+03  0.47000000000E+01 0.  1.
         13    1    6    6    0    0  0.11780619792E+02  0.20760007140E+02  0.30833969184E+02  0.38993519395E+02  0.00000000000E+00 0. -1.
        -14    1    6    6    0    0  0.40948105975E+01 -0.12823913497E+02 -0.41564082172E+02  0.43689737445E+02  0.00000000000E+00 0.  1.
</event>
<event>
12    1  0.8451514E-002  0.1832334E+03  0.7818608E-02  0.1164766E+00
         21   -1    0    0  503  502  0.00000000000E+00  0.00000000000E+00  0.20454121812E+02  0.20454121812E+02  0.00000000000E+00 0.  1.
         21   -1    0    0  501  503 -0.00000000000E+00 -0.00000000000E+00 -0.17044970211E+04  0.17044970211E+04  0.00000000000E+00 0.  1.
          6    2    1    2  501    0 -0.15543051789E+02 -0.61615942714E+02 -0.10101205319E+04  0.10265631060E+04  0.17161063724E+03 0.  0.
         24    2    3    3    0    0 -0.17945135946E+02 -0.10187619760E+03 -0.56176294853E+03  0.57637062419E+03  0.76972063386E+02 0.  0.
         -6    2    1    2    0  502  0.15543051789E+02  0.61615942714E+02 -0.67392236739E+03  0.69838803690E+03  0.17186151971E+03 0.  0.
        -24    2    5    5    0    0  0.62221483857E+02  0.35877225485E+02 -0.26106436265E+03  0.28207663942E+03  0.79081860773E+02 0.  0.
          5    1    3    3  501    0  0.24020841571E+01  0.40260254883E+02 -0.44835758339E+03  0.45019248185E+03  0.47000000000E+01 0. -1.
        -13    1    4    4    0    0 -0.94204668224E+01 -0.79701958254E+02 -0.53325992209E+03  0.53926551146E+03  0.00000000000E+00 0.  1.
         14    1    4    4    0    0 -0.85246691238E+01 -0.22174239343E+02 -0.28503026448E+02  0.37105112731E+02  0.00000000000E+00 0. -1.
         -5    1    5    5    0  502 -0.46678432067E+02  0.25738717230E+02 -0.41285800474E+03  0.41631139747E+03  0.47000000000E+01 0.  1.
         13    1    6    6    0    0  0.74810003564E+02  0.47939690966E+02 -0.20679316142E+03  0.22507368174E+03  0.00000000000E+00 0. -1.
        -14    1    6    6    0    0 -0.12588519708E+02 -0.12062465481E+02 -0.54271201223E+02  0.57002957679E+02  0.00000000000E+00 0.  1.
</event>
<event>
12    1  0.8451514E-002  0.2644012E+03  0.7818608E-02  0.1104568E+00
         21   -1    0    0  501  502  0.00000000000E+00  0.00000000000E+00  0.15039001106E+03  0.15039001106E+03  0.00000000000E+00 0. -1.
         21   -1    0    0  502  503 -0.00000000000E+00 -0.00000000000E+00 -0.46504673233E+03  0.46504673233E+03  0.00000000000E+00 0.  1.
         -6    2    1    2    0  503 -0.17076300618E+03 -0.10506071337E+03 -0.16903998328E+03  0.31358874027E+03  0.17194657398E+03 0.  0.
        -24    2    3    3    0    0 -0.18230665416E+03 -0.11106960042E+03 -0.18444705730E+03  0.29288051818E+03  0.78651819391E+02 0.  0.
          6    2    1    2  501    0  0.17076300618E+03  0.10506071337E+03 -0.14561673799E+03  0.30184800313E+03  0.17236654210E+03 0.  0.
         24    2    5    5    0    0  0.18685713335E+03  0.11050198329E+03 -0.97177353116E+02  0.25030101141E+03  0.77980008733E+02 0.  0.
          5    1    5    5  501    0 -0.16094127167E+02 -0.54412699223E+01 -0.48439384877E+02  0.51546991715E+02  0.47000000000E+01 0. -1.
        -11    1    6    6    0    0  0.22616168872E+02  0.35584426222E+02 -0.46569027704E+02  0.62820512774E+02  0.00000000000E+00 0.  1.
         12    1    6    6    0    0  0.16424096447E+03  0.74917557070E+02 -0.50608325412E+02  0.18748049864E+03  0.00000000000E+00 0. -1.
         -5    1    3    3    0  503  0.11543647977E+02  0.60088870483E+01  0.15407074024E+02  0.20708222091E+02  0.47000000000E+01 0.  1.
         11    1    4    4    0    0 -0.15190435712E+03 -0.84872212977E+02 -0.10331833314E+03  0.20236823913E+03  0.00000000000E+00 0. -1.
        -12    1    4    4    0    0 -0.30402297041E+02 -0.26197387441E+02 -0.81128724159E+02  0.90512279044E+02  0.00000000000E+00 0.  1.
</event>
<event>
12    1  0.8451514E-002  0.2598776E+03  0.7818608E-02  0.1107259E+00
         21   -1    0    0  501  502  0.00000000000E+00  0.00000000000E+00  0.26944477686E+03  0.26944477686E+03  0.00000000000E+00 0.  1.
         21   -1    0    0  502  503 -0.00000000000E+00 -0.00000000000E+00 -0.29209759466E+03  0.29209759466E+03  0.00000000000E+00 0. -1.
         -6    2    1    2    0  503 -0.37781859515E+02  0.19107038806E+03 -0.11742929580E+03  0.28492182274E+03  0.17162588226E+03 0.  0.
        -24    2    3    3    0    0  0.48966226012E+01  0.11005473675E+03  0.19812698197E+00  0.13577998024E+03  0.79373432500E+02 0.  0.
          6    2    1    2  501    0  0.37781859515E+02 -0.19107038806E+03  0.94776478002E+02  0.27662054877E+03  0.17204936826E+03 0.  0.
         24    2    5    5    0    0  0.30882347775E+02 -0.20338402372E+03  0.45278059026E+02  0.22493484120E+03  0.78910073179E+02 0.  0.
          5    1    5    5  501    0  0.68995117402E+01  0.12313635666E+02  0.49498418976E+02  0.51685707567E+02  0.47000000000E+01 0. -1.
        -13    1    6    6    0    0  0.51441367855E+02 -0.16759602519E+03  0.52564468683E+02  0.18302367430E+03  0.00000000000E+00 0.  1.
         14    1    6    6    0    0 -0.20559020081E+02 -0.35787998532E+02 -0.72864096569E+01  0.41911166904E+02  0.00000000000E+00 0. -1.
         -5    1    3    3    0  503 -0.42678482116E+02  0.81015651307E+02 -0.11762742279E+03  0.14914184250E+03  0.47000000000E+01 0.  1.
         11    1    4    4    0    0  0.36880980264E+02  0.91833501860E+02 -0.45645876427E+00  0.98963665674E+02  0.00000000000E+00 0. -1.
        -12    1    4    4    0    0 -0.31984357662E+02  0.18221234889E+02  0.65458574624E+00  0.36816314569E+02  0.00000000000E+00 0.  1.
</event>
<event>
12    1  0.8451514E-002  0.2506875E+03  0.7818608E-02  0.1112875E+00
         21   -1    0    0  503  502  0.00000000000E+00  0.00000000000E+00  0.22827624879E+04  0.22827624879E+04  0.00000000000E+00 0. -1.
         21   -1    0    0  501  503 -0.00000000000E+00 -0.00000000000E+00 -0.27661737554E+02  0.27661737554E+02  0.00000000000E+00 0. -1.
          6    2    1    2  501    0  0.17801618858E+03 -0.42060007492E+02  0.12082728997E+04  0.12340047010E+04  0.17142168553E+03 0.  0.
         24    2    3    3    0    0  0.66607038713E+02 -0.35985759543E+02  0.87383109353E+03  0.88141101574E+03  0.87023710262E+02 0.  0.
         -6    2    1    2    0  502 -0.17801618858E+03  0.42060007492E+02  0.10468278506E+04  0.10764195244E+04  0.17138155137E+03 0.  0.
        -24    2    5    5    0    0 -0.19010542228E+03  0.63433726623E+02  0.80950918584E+03  0.83778753980E+03  0.80118229125E+02 0.  0.
          5    1    3    3  501    0  0.11140914986E+03 -0.60742479487E+01  0.33444180622E+03  0.35259368529E+03  0.47000000000E+01 0. -1.
        -11    1    4    4    0    0  0.48002228962E+02 -0.45925475344E+02  0.30330979421E+03  0.31049991069E+03  0.00000000000E+00 0.  1.
         12    1    4    4    0    0  0.18604809752E+02  0.99397158014E+01  0.57052129932E+03  0.57091110505E+03  0.00000000000E+00 0. -1.
         -5    1    5    5    0  502  0.12089233709E+02 -0.21373719132E+02  0.23731866472E+03  0.23863198458E+03  0.47000000000E+01 0.  1.
         11    1    6    6    0    0 -0.10513378030E+03 -0.71327306821E+01  0.39326045125E+03  0.40713360230E+03  0.00000000000E+00 0. -1.
        -12    1    6    6    0    0 -0.84971641988E+02  0.70566457305E+02  0.41624873459E+03  0.43065393750E+03  0.00000000000E+00 0.  1.
</event>
<event>
12    1  0.8451514E-002  0.3225327E+03  0.7818608E-02  0.1074599E+00
         21   -1    0    0  501  502  0.00000000000E+00  0.00000000000E+00  0.21696395336E+03  0.21696395336E+03  0.00000000000E+00 0.  1.
         21   -1    0    0  502  503 -0.00000000000E+00 -0.00000000000E+00 -0.83176091090E+03  0.83176091090E+03  0.00000000000E+00 0. -1.
         -6    2    1    2    0  503 -0.25708960987E+03  0.88926674955E+02 -0.64908371460E+03  0.72437486332E+03  0.17148251526E+03 0.  0.
        -24    2    3    3    0    0 -0.44517999619E+02  0.21311490731E+02 -0.24378506613E+03  0.26172209172E+03  0.81432566580E+02 0.  0.
          6    2    1    2  501    0  0.25708960987E+03 -0.88926674955E+02  0.34286757048E+02  0.32435000094E+03  0.17327527342E+03 0.  0.
         24    2    5    5    0    0  0.24651873611E+03 -0.96111089174E+02  0.70833334558E+02  0.28534869958E+03  0.79985563414E+02 0.  0.
          5    1    5    5  501    0  0.10570873756E+02  0.71844142184E+01 -0.36546577509E+02  0.39001301354E+02  0.47000000000E+01 0. -1.
        -13    1    6    6    0    0  0.50198814832E+02 -0.16673843752E+02  0.49585932995E+02  0.72503122877E+02  0.00000000000E+00 0.  1.
         14    1    6    6    0    0  0.19631992128E+03 -0.79437245422E+02  0.21247401563E+02  0.21284557671E+03  0.00000000000E+00 0. -1.
         -5    1    3    3    0  503 -0.21257161025E+03  0.67615184224E+02 -0.40529864847E+03  0.46265277160E+03  0.47000000000E+01 0.  1.
         13    1    4    4    0    0 -0.68410835110E+02  0.19931028631E+02 -0.17938755737E+03  0.19302120091E+03  0.00000000000E+00 0. -1.
        -14    1    4    4    0    0  0.23892835491E+02  0.13804621003E+01 -0.64397508761E+02  0.68700890810E+02  0.00000000000E+00 0.  1.
</event>
<event>
12    1  0.8451514E-002  0.2096321E+03  0.7818608E-02  0.1142515E+00
         21   -1    0    0  501  502  0.00000000000E+00  0.00000000000E+00  0.29244333881E+03  0.29244333881E+03  0.00000000000E+00 0.  1.
         21   -1    0    0  502  503 -0.00000000000E+00 -0.00000000000E+00 -0.16654752209E+03  0.16654752209E+03  0.00000000000E+00 0. -1.
         -6    2    1    2    0  503 -0.70894469279E+02  0.89433140283E+02 -0.14233369746E+02  0.20683654441E+03  0.17191409172E+03 0.  0.
        -24    2    3    3    0    0  0.30064181376E+02  0.27902731643E+02 -0.10252060694E+01  0.87776954632E+02  0.77597198931E+02 0.  0.
          6    2    1    2  501    0  0.70894469279E+02 -0.89433140283E+02  0.14012918646E+03  0.25215431649E+03  0.17584452813E+03 0.  0.
         24    2    5    5    0    0  0.10118289356E+03 -0.10583730565E+03  0.13856700264E+03  0.21735466556E+03  0.81257142469E+02 0.  0.
          5    1    5    5  501    0 -0.30288424282E+02  0.16404165366E+02  0.15621838127E+01  0.34799650934E+02  0.47000000000E+01 0. -1.
        -11    1    6    6    0    0  0.15962389491E+02 -0.38796279634E+02  0.70077475401E+00  0.41957600944E+02  0.00000000000E+00 0.  1.
         12    1    6    6    0    0  0.85220504071E+02 -0.67041026015E+02  0.13786622789E+03  0.17539706462E+03  0.00000000000E+00 0. -1.
         -5    1    3    3    0  503 -0.10095865066E+03  0.61530408640E+02 -0.13208163677E+02  0.11905958977E+03  0.47000000000E+01 0.  1.
         11    1    4    4    0    0 -0.22976044838E+02  0.78939939222E+01  0.15390770292E+02  0.28759165263E+02  0.00000000000E+00 0. -1.
        -12    1    4    4    0    0  0.53040226214E+02  0.20008737721E+02 -0.16415976361E+02  0.59017789368E+02  0.00000000000E+00 0.  1.
</event>
<event>
12    1  0.8451514E-002  0.2769270E+03  0.7818608E-02  0.1097532E+00
         21   -1    0    0  503  502  0.00000000000E+00  0.00000000000E+00  0.55891182062E+03  0.55891182062E+03  0.00000000000E+00 0. -1.
         21   -1    0    0  501  503 -0.00000000000E+00 -0.00000000000E+00 -0.13777513874E+03  0.13777513874E+03  0.00000000000E+00 0. -1.
          6    2    1    2  501    0  0.19161318481E+03 -0.10035925887E+03  0.24224720778E+03  0.36792970022E+03  0.17291894398E+03 0.  0.
         24    2    3    3    0    0  0.13185126565E+03  0.26608365688E+01  0.16450875225E+03  0.22562725992E+03  0.80328665786E+02 0.  0.
         -6    2    1    2    0  502 -0.19161318481E+03  0.10035925887E+03  0.17888947410E+03  0.32875725914E+03  0.17114992860E+03 0.  0.
        -24    2    5    5    0    0 -0.17429560791E+03  0.10284691916E+03  0.85166829748E+02  0.23329988128E+03  0.78860623888E+02 0.  0.
          5    1    3    3  501    0  0.59761919169E+02 -0.10302009544E+03  0.77738455534E+02  0.14230244030E+03  0.47000000000E+01 0. -1.
        -11    1    4    4    0    0  0.51843310304E+01 -0.22519828488E+02  0.40238123738E+02  0.46401794850E+02  0.00000000000E+00 0.  1.
         12    1    4    4    0    0  0.12666693462E+03  0.25180665057E+02  0.12427062851E+03  0.17922546507E+03  0.00000000000E+00 0. -1.
         -5    1    5    5    0  502 -0.17317576908E+02 -0.24876602903E+01  0.93722644355E+02  0.95457377863E+02  0.47000000000E+01 0.  1.
         13    1    6    6    0    0 -0.11458536449E+03  0.92140998217E+02  0.90084662441E+02  0.17243844036E+03  0.00000000000E+00 0. -1.
        -14    1    6    6    0    0 -0.59710243417E+02  0.10705920942E+02 -0.49178326931E+01  0.60861440918E+02  0.00000000000E+00 0.  1.
</event>
<event>
12    1  0.8451514E-002  0.4231306E+03  0.7818608E-02  0.1036277E+00
         21   -1    0    0  503  502  0.00000000000E+00  0.00000000000E+00  0.68081383090E+03  0.68081383090E+03  0.00000000000E+00 0. -1.
         21   -1    0    0  501  503 -0.00000000000E+00 -0.00000000000E+00 -0.27280850695E+03  0.27280850695E+03  0.00000000000E+00 0. -1.
          6    2    1    2  501    0  0.12026459595E+01  0.38597462313E+03  0.30275665260E+03  0.52028940300E+03  0.17338285994E+03 0.  0.
         24    2    3    3    0    0  0.37143037060E+02  0.36872526852E+03  0.25026765352E+03  0.45421038234E+03  0.79594247152E+02 0.  0.
         -6    2    1    2    0  502 -0.12026459595E+01 -0.38597462313E+03  0.10524867134E+03  0.43333293486E+03  0.16650013080E+03 0.  0.
        -24    2    5    5    0    0 -0.16934161944E+02 -0.30505827568E+03  0.13796249368E+03  0.34452291261E+03  0.79467416286E+02 0.  0.
          5    1    3    3  501    0 -0.35940391100E+02  0.17249354612E+02  0.52488999083E+02  0.66079020663E+02  0.47000000000E+01 0. -1.
        -11    1    4    4    0    0  0.31867197737E+01  0.31695722751E+02  0.54073268113E+02  0.62759002127E+02  0.00000000000E+00 0.  1.
         12    1    4    4    0    0  0.33956317286E+02  0.33702954577E+03  0.19619438541E+03  0.39145138021E+03  0.00000000000E+00 0. -1.
         -5    1    5    5    0  502  0.15731515984E+02 -0.80916347446E+02 -0.32713822332E+02  0.88810022243E+02  0.47000000000E+01 0.  1.
         13    1    6    6    0    0 -0.16312326463E+01 -0.20441685861E+03  0.51127327566E+02  0.21071999580E+03  0.00000000000E+00 0. -1.
        -14    1    6    6    0    0 -0.15302929297E+02 -0.10064141707E+03  0.86835166110E+02  0.13380291681E+03  0.00000000000E+00 0.  1.
</event>
<event>
12    1  0.8451514E-002  0.2048382E+03  0.7818608E-02  0.1146067E+00
         21   -1    0    0  503  502  0.00000000000E+00  0.00000000000E+00  0.33744886589E+03  0.33744886589E+03  0.00000000000E+00 0.  1.
         21   -1    0    0  501  503 -0.00000000000E+00 -0.00000000000E+00 -0.12724887021E+03  0.12724887021E+03  0.00000000000E+00 0.  1.
          6    2    1    2  501    0 -0.10136801957E+03 -0.40784423992E+02  0.64677695009E+02  0.21480664370E+03  0.17326235977E+03 0.  0.
         24    2    3    3    0    0 -0.11636904753E+03 -0.35283526244E+02  0.99159487077E+02  0.17651337144E+03  0.80855945805E+02 0.  0.
         -6    2    1    2    0  502  0.10136801957E+03  0.40784423992E+02  0.14552230067E+03  0.24989109240E+03  0.17125995865E+03 0.  0.
        -24    2    5    5    0    0 -0.26081234583E+02  0.14286868990E+02  0.42890609206E+02  0.84057480316E+02  0.65891655133E+02 0.  0.
          5    1    3    3  501    0  0.15001027966E+02 -0.55008977480E+01 -0.34481792068E+02  0.38293272259E+02  0.47000000000E+01 0. -1.
        -13    1    4    4    0    0 -0.81208772252E+02  0.58367738602E+01  0.25893976403E+02  0.85436705424E+02  0.00000000000E+00 0.  1.
         14    1    4    4    0    0 -0.35160275283E+02 -0.41120300104E+02  0.73265510674E+02  0.91076666018E+02  0.00000000000E+00 0. -1.
         -5    1    5    5    0  502  0.12744925415E+03  0.26497555001E+02  0.10263169146E+03  0.16583361208E+03  0.47000000000E+01 0.  1.
         13    1    6    6    0    0 -0.10238262147E+02 -0.19541417503E+02 -0.56832172862E+01  0.22781307437E+02  0.00000000000E+00 0. -1.
        -14    1    6    6    0    0 -0.15842972436E+02  0.33828286493E+02  0.48573826492E+02  0.61276172879E+02  0.00000000000E+00 0.  1.
</event>
<event>
12    1  0.8451514E-002  0.1731827E+03  0.7818608E-02  0.1175482E+00
         21   -1    0    0  503  502  0.00000000000E+00  0.00000000000E+00  0.17555679301E+04  0.17555679301E+04  0.00000000000E+00 0.  1.
         21   -1    0    0  501  503 -0.00000000000E+00 -0.00000000000E+00 -0.28098355517E+02  0.28098355517E+02  0.00000000000E+00 0.  1.
          6    2    1    2  501    0 -0.12366694722E+02  0.76879564697E+01  0.29129447263E+03  0.33708715742E+03  0.16900663329E+03 0.  0.
         24    2    3    3    0    0 -0.22032670027E+02 -0.58974621797E+02  0.15845513991E+03  0.18807135713E+03  0.79368504090E+02 0.  0.
         -6    2    1    2    0  502  0.12366694722E+02 -0.76879564697E+01  0.14361751020E+04  0.14465791282E+04  0.17256943780E+03 0.  0.
        -24    2    5    5    0    0  0.62868599173E+02 -0.35613292900E+02  0.73458920689E+03  0.74260815940E+03  0.81392924324E+02 0.  0.
          5    1    3    3  501    0  0.96659753044E+01  0.66662578267E+02  0.13283933272E+03  0.14901580029E+03  0.47000000000E+01 0. -1.
        -11    1    4    4    0    0 -0.19163112519E+02 -0.22937583292E+02  0.48630095043E+01  0.30282114691E+02  0.00000000000E+00 0.  1.
         12    1    4    4    0    0 -0.28695575074E+01 -0.36037038505E+02  0.15359213041E+03  0.15778924244E+03  0.00000000000E+00 0. -1.
         -5    1    5    5    0  502 -0.50501904450E+02  0.27925336430E+02  0.70158589511E+03  0.70397096885E+03  0.47000000000E+01 0.  1.
         13    1    6    6    0    0 -0.11646162776E+02 -0.69903493642E+01  0.24224772268E+02  0.27772966767E+02  0.00000000000E+00 0. -1.
        -14    1    6    6    0    0  0.74514761949E+02 -0.28622943535E+02  0.71036443462E+03  0.71483519263E+03  0.00000000000E+00 0.  1.
</event>
<event>
12    1  0.8451514E-002  0.2471941E+03  0.7818608E-02  0.1115344E+00
         21   -1    0    0  503  502  0.00000000000E+00  0.00000000000E+00  0.82758535847E+02  0.82758535847E+02  0.00000000000E+00 0.  1.
         21   -1    0    0  501  503 -0.00000000000E+00 -0.00000000000E+00 -0.75416423677E+03  0.75416423677E+03  0.00000000000E+00 0.  1.
          6    2    1    2  501    0  0.28659224135E+02  0.17455464190E+03 -0.40572810763E+03  0.47510019544E+03  0.17266795954E+03 0.  0.
         24    2    3    3    0    0 -0.45185141926E+02  0.47978887994E+02 -0.14402088828E+03  0.17512157864E+03  0.74711982316E+02 0.  0.
         -6    2    1    2    0  502 -0.28659224135E+02 -0.17455464190E+03 -0.26567759329E+03  0.36182257717E+03  0.17041220507E+03 0.  0.
        -24    2    5    5    0    0 -0.18316634682E+02 -0.94458105042E+02 -0.23261765094E+03  0.27442993353E+03  0.10928396121E+03 0.  0.
          5    1    3    3  501    0  0.73844366061E+02  0.12657575391E+03 -0.26170721935E+03  0.29997861680E+03  0.47000000000E+01 0. -1.
        -13    1    4    4    0    0 -0.41347461053E+01  0.38854108372E+02 -0.12105926147E+03  0.12720881515E+03  0.00000000000E+00 0.  1.
         14    1    4    4    0    0 -0.41050395821E+02  0.91247796220E+01 -0.22961626805E+02  0.47912763495E+02  0.00000000000E+00 0. -1.
         -5    1    5    5    0  502 -0.10342589453E+02 -0.80096536861E+02 -0.33059942357E+02  0.87392643640E+02  0.47000000000E+01 0.  1.
         11    1    6    6    0    0  0.41550137424E+02 -0.33909846871E+02 -0.51776905715E+02  0.74546224587E+02  0.00000000000E+00 0. -1.
        -12    1    6    6    0    0 -0.59866772107E+02 -0.60548258171E+02 -0.18084074522E+03  0.19988370895E+03  0.00000000000E+00 0.  1.
</event>
<event>
12    1  0.8451514E-002  0.1772173E+03  0.7818608E-02  0.1170820E+00
         21   -1    0    0  503  502  0.00000000000E+00  0.00000000000E+00  0.55829921046E+02  0.55829921046E+02  0.00000000000E+00 0.  1.
         21   -1    0    0  501  503 -0.00000000000E+00 -0.00000000000E+00 -0.72731346411E+03  0.72731346411E+03  0.00000000000E+00 0.  1.
          6    2    1    2  501    0  0.28248593442E+02  0.27255361596E+02 -0.52512838904E+03  0.55422539018E+03  0.17281527820E+03 0.  0.
         24    2    3    3    0    0 -0.30891844580E+02  0.39961026519E+02 -0.43796618240E+03  0.44802574048E+03  0.79758996389E+02 0.  0.
         -6    2    1    2    0  502 -0.28248593442E+02 -0.27255361596E+02 -0.14635515403E+03  0.22891799497E+03  0.17158898434E+03 0.  0.
        -24    2    5    5    0    0  0.29845736351E+02  0.32425941783E+02 -0.60348358627E+02  0.10910118488E+03  0.79491725819E+02 0.  0.
          5    1    3    3  501    0  0.59140438021E+02 -0.12705664923E+02 -0.87162206638E+02  0.10619964970E+03  0.47000000000E+01 0. -1.
        -11    1    4    4    0    0 -0.83066379917E+01  0.48912455079E+02 -0.39923367154E+03  0.40230455253E+03  0.00000000000E+00 0.  1.
         12    1    4    4    0    0 -0.22585206588E+02 -0.89514285601E+01 -0.38732510860E+02  0.45721187948E+02  0.00000000000E+00 0. -1.
         -5    1    5    5    0  502 -0.58094329792E+02 -0.59681303380E+02 -0.86006795399E+02  0.11981681010E+03  0.47000000000E+01 0.  1.
         13    1    6    6    0    0  0.30191882221E+02 -0.15293882929E+02 -0.22537332879E+01  0.33919491754E+02  0.00000000000E+00 0. -1.
        -14    1    6    6    0    0 -0.34614587027E+00  0.47719824713E+02 -0.58094625339E+02  0.75181693123E+02  0.00000000000E+00 0.  1.
</event>
<event>
12    1  0.8451514E-002  0.2014755E+03  0.7818608E-02  0.1148588E+00
         21   -1    0    0  501  502  0.00000000000E+00  0.00000000000E+00  0.19399448260E+02  0.19399448260E+02  0.00000000000E+00 0. -1.
         21   -1    0    0  502  503 -0.00000000000E+00 -0.00000000000E+00 -0.21413909420E+04  0.21413909420E+04  0.00000000000E+00 0. -1.
         -6    2    1    2    0  503  0.97706464851E+01 -0.10181303092E+03 -0.88949849596E+03  0.91193836743E+03  0.17309723532E+03 0.  0.
        -24    2    3    3    0    0 -0.43375519837E+02 -0.70573828639E+02 -0.35752927481E+03  0.37638842111E+03  0.83540171104E+02 0.  0.
          6    2    1    2  501    0 -0.97706464851E+01  0.10181303092E+03 -0.12324929977E+04  0.12488520228E+04  0.17358290973E+03 0.  0.
         24    2    5    5    0    0  0.58020974419E+02  0.58920357472E+02 -0.56936691744E+03  0.58087464767E+03  0.79991422238E+02 0.  0.
          5    1    5    5  501    0 -0.67791620904E+02  0.42892673453E+02 -0.66312608029E+03  0.66797737511E+03  0.47000000000E+01 0. -1.
        -11    1    6    6    0    0 -0.15150922925E+02  0.52214661834E+01 -0.30862472053E+02  0.34775082399E+02  0.00000000000E+00 0.  1.
         12    1    6    6    0    0  0.73171897344E+02  0.53698891289E+02 -0.53850444539E+03  0.54609956527E+03  0.00000000000E+00 0. -1.
         -5    1    3    3    0  503  0.53146166322E+02 -0.31239202286E+02 -0.53196922115E+03  0.53554994632E+03  0.47000000000E+01 0.  1.
         11    1    4    4    0    0 -0.46733920931E+01  0.82036010234E+01 -0.13298920280E+01  0.95345831694E+01  0.00000000000E+00 0. -1.
        -12    1    4    4    0    0 -0.38702127744E+02 -0.78777429663E+02 -0.35619938278E+03  0.36685383794E+03  0.00000000000E+00 0.  1.
</event>
<event>
12    1  0.8451514E-002  0.2060015E+03  0.7818608E-02  0.1145967E+00
         21   -1    0    0  501  502  0.00000000000E+00  0.00000000000E+00  0.38278637000E+02  0.38278637000E+02  0.00000000000E+00 0.  1.
         21   -1    0    0  502  503 -0.00000000000E+00 -0.00000000000E+00 -0.15066352793E+04  0.15066352793E+04  0.00000000000E+00 0.  1.
         -6    2    1    2    0  503 -0.99661255542E+02  0.56600043765E+02 -0.32951814347E+03  0.38861139049E+03  0.17117439976E+03 0.  0.
        -24    2    3    3    0    0 -0.84442360300E+02  0.79968651063E+02 -0.33171211243E+03  0.36024574086E+03  0.78857915931E+02 0.  0.
          6    2    1    2  501    0  0.99661255542E+02 -0.56600043765E+02 -0.11388384988E+04  0.11563025258E+04  0.16415381192E+03 0.  0.
         24    2    5    5    0    0  0.44649045474E+02 -0.90330081638E+02 -0.88846685609E+03  0.89770610627E+03  0.79685870472E+02 0.  0.
          5    1    5    5  501    0  0.55012210069E+02  0.33730037873E+02 -0.25037164276E+03  0.25859641956E+03  0.47000000000E+01 0. -1.
        -11    1    6    6    0    0  0.60832056091E+02 -0.35952237899E+02 -0.54938184155E+03  0.55390749253E+03  0.00000000000E+00 0.  1.
         12    1    6    6    0    0 -0.16183010617E+02 -0.54377843739E+02 -0.33908501453E+03  0.34379861373E+03  0.00000000000E+00 0. -1.
         -5    1    3    3    0  503 -0.15218895243E+02 -0.23368607299E+02  0.21939689591E+01  0.28365649636E+02  0.47000000000E+01 0.  1.
         11    1    4    4    0    0  0.71805123367E+01  0.31919058529E+02 -0.46558009743E+02  0.56903728577E+02  0.00000000000E+00 0. -1.
        -12    1    4    4    0    0 -0.91622872637E+02  0.48049592534E+02 -0.28515410269E+03  0.30334201228E+03  0.00000000000E+00 0.  1.
</event>
<event>
12    1  0.8451514E-002  0.2163655E+03  0.7818608E-02  0.1136819E+00
         21   -1    0    0  501  502  0.00000000000E+00  0.00000000000E+00  0.19992446494E+03  0.19992446494E+03  0.00000000000E+00 0. -1.
         21   -1    0    0  502  503 -0.00000000000E+00 -0.00000000000E+00 -0.23321510279E+03  0.23321510279E+03  0.00000000000E+00 0.  1.
         -6    2    1    2    0  503  0.16975193662E+02  0.12946900342E+03 -0.10700195419E+02  0.21559797723E+03  0.17122386971E+03 0.  0.
        -24    2    3    3    0    0  0.56496249184E+02  0.57549713425E+02 -0.53445140877E+02  0.12295069737E+03  0.75872888528E+02 0.  0.
          6    2    1    2  501    0 -0.16975193662E+02 -0.12946900342E+03 -0.22590442430E+02  0.21754159049E+03  0.17252140580E+03 0.  0.
         24    2    5    5    0    0  0.21487692761E+02 -0.10428798529E+03 -0.70302631707E+02  0.15111854997E+03  0.80973151761E+02 0.  0.
          5    1    5    5  501    0 -0.38462886424E+02 -0.25181018131E+02  0.47712189277E+02  0.66423040519E+02  0.47000000000E+01 0. -1.
        -13    1    6    6    0    0 -0.12237212347E+02 -0.97202635271E+02 -0.61057480694E+02  0.11543880465E+03  0.00000000000E+00 0.  1.
         14    1    6    6    0    0  0.33724905108E+02 -0.70853500156E+01 -0.92451510132E+01  0.35679745328E+02  0.00000000000E+00 0. -1.
         -5    1    3    3    0  503 -0.39521055522E+02  0.71919289992E+02  0.42744945458E+02  0.92647279856E+02  0.47000000000E+01 0.  1.
         13    1    4    4    0    0  0.51526199161E+02  0.26556879918E+02  0.33444288074E+01  0.58063777650E+02  0.00000000000E+00 0. -1.
        -14    1    4    4    0    0  0.49700500236E+01  0.30992833507E+02 -0.56789569685E+02  0.64886919722E+02  0.00000000000E+00 0.  1.
</event>
<event>
12    1  0.8451514E-002  0.1925510E+03  0.7818608E-02  0.1156230E+00
         21   -1    0    0  501  502  0.00000000000E+00  0.00000000000E+00  0.10064971140E+03  0.10064971140E+03  0.00000000000E+00 0.  1.
         21   -1    0    0  502  503 -0.00000000000E+00 -0.00000000000E+00 -0.52839599669E+03  0.52839599669E+03  0.00000000000E+00 0.  1.
         -6    2    1    2    0  503 -0.85569125724E+02 -0.10211871825E+02 -0.38728456012E+03  0.43251035581E+03  0.17219035911E+03 0.  0.
        -24    2    3    3    0    0 -0.14224895680E+02 -0.17371532894E+02 -0.75944290308E+02  0.11298553124E+03  0.80585837635E+02 0.  0.
          6    2    1    2  501    0  0.85569125724E+02  0.10211871825E+02 -0.40461725167E+02  0.19653535229E+03  0.17193788382E+03 0.  0.
         24    2    5    5    0    0 -0.22484724689E+02  0.14502382644E+02 -0.22670243124E+02  0.86841825106E+02  0.79446086863E+02 0.  0.
          5    1    5    5  501    0  0.10805385041E+03 -0.42905108190E+01 -0.17791482043E+02  0.10969352718E+03  0.47000000000E+01 0. -1.
        -11    1    6    6    0    0  0.16263687569E+02 -0.16612522194E+02  0.12082747663E+02  0.26200691176E+02  0.00000000000E+00 0.  1.
         12    1    6    6    0    0 -0.38748412259E+02  0.31114904838E+02 -0.34752990788E+02  0.60641133930E+02  0.00000000000E+00 0. -1.
         -5    1    3    3    0  503 -0.71344230044E+02  0.71596610695E+01 -0.31134026981E+03  0.31952482457E+03  0.47000000000E+01 0.  1.
         11    1    4    4    0    0  0.32528357079E+02  0.15333869403E+01 -0.23007665478E+02  0.39872270571E+02  0.00000000000E+00 0. -1.
        -12    1    4    4    0    0 -0.46753252759E+02 -0.18904919835E+02 -0.52936624830E+02  0.73113260670E+02  0.00000000000E+00 0.  1.
</event>
<event>
12    1  0.8451514E-002  0.2365410E+03  0.7818608E-02  0.1122301E+00
         21   -1    0    0  501  502  0.00000000000E+00  0.00000000000E+00  0.30765382750E+03  0.30765382750E+03  0.00000000000E+00 0.  1.
         21   -1    0    0  502  503 -0.00000000000E+00 -0.00000000000E+00 -0.21400149395E+03  0.21400149395E+03  0.00000000000E+00 0.  1.
         -6    2    1    2    0  503 -0.24137940459E+02 -0.15834055522E+03 -0.55444548966E+02  0.24295211445E+03  0.17406108212E+03 0.  0.
        -24    2    3    3    0    0  0.16634044355E+02 -0.31529250136E+02 -0.67078380662E+02  0.10915787735E+03  0.78390994309E+02 0.  0.
          6    2    1    2  501    0  0.24137940459E+02  0.15834055522E+03  0.14909688251E+03  0.27870320700E+03  0.17260134884E+03 0.  0.
         24    2    5    5    0    0 -0.61208355960E+01  0.16722083336E+03  0.15921661164E+03  0.24525247030E+03  0.82453459778E+02 0.  0.
          5    1    5    5  501    0  0.30258776055E+02 -0.88802781377E+01 -0.10119729128E+02  0.33450736700E+02  0.47000000000E+01 0. -1.
        -13    1    6    6    0    0  0.61257660017E+01  0.51352877594E+02  0.49830747806E+01  0.51956463318E+02  0.00000000000E+00 0.  1.
         14    1    6    6    0    0 -0.12246601598E+02  0.11586795576E+03  0.15423353686E+03  0.19329600698E+03  0.00000000000E+00 0. -1.
         -5    1    3    3    0  503 -0.40771984814E+02 -0.12681130508E+03  0.11633831696E+02  0.13379423711E+03  0.47000000000E+01 0.  1.
         13    1    4    4    0    0 -0.21305258508E+02 -0.35973453822E+02 -0.55016446684E+02  0.69100020446E+02  0.00000000000E+00 0. -1.
        -14    1    4    4    0    0  0.37939302863E+02  0.44442036851E+01 -0.12061933978E+02  0.40057856900E+02  0.00000000000E+00 0.  1.
</event>
<event>
12    1  0.8451514E-002  0.2963858E+03  0.7818608E-02  0.1087090E+00
         21   -1    0    0  503  502  0.00000000000E+00  0.00000000000E+00  0.43394310772E+03  0.43394310772E+03  0.00000000000E+00 0.  1.
         21   -1    0    0  501  503 -0.00000000000E+00 -0.00000000000E+00 -0.21347672604E+03  0.21347672604E+03  0.00000000000E+00 0. -1.
          6    2    1    2  501    0  0.12072203432E+03 -0.20989868136E+03  0.36130399550E+02  0.29857985255E+03  0.17091885959E+03 0.  0.
         24    2    3    3    0    0  0.13307003726E+03 -0.19777005058E+03 -0.75625148898E+01  0.25134916725E+03  0.79363622178E+02 0.  0.
         -6    2    1    2    0  502 -0.12072203432E+03  0.20989868136E+03  0.18433598213E+03  0.34883998121E+03  0.17052364110E+03 0.  0.
        -24    2    5    5    0    0 -0.10382713219E+02  0.14394477421E+03  0.81632114182E+02  0.18423482290E+03  0.80316680381E+02 0.  0.
          5    1    3    3  501    0 -0.12348002931E+02 -0.12128630784E+02  0.43692914440E+02  0.47230685294E+02  0.47000000000E+01 0. -1.
        -11    1    4    4    0    0  0.10414947774E+03 -0.84530589232E+02 -0.93451369907E+01  0.13446139154E+03  0.00000000000E+00 0.  1.
         12    1    4    4    0    0  0.28920559513E+02 -0.11323946135E+03  0.17826221010E+01  0.11688777571E+03  0.00000000000E+00 0. -1.
         -5    1    5    5    0  502 -0.11033932111E+03  0.65953907159E+02  0.10270386795E+03  0.16460515831E+03  0.47000000000E+01 0.  1.
         13    1    6    6    0    0  0.19267641488E+01  0.59780311244E+02  0.79060532268E+02  0.99136097336E+02  0.00000000000E+00 0. -1.
        -14    1    6    6    0    0 -0.12309477368E+02  0.84164462962E+02  0.25715819142E+01  0.85098725562E+02  0.00000000000E+00 0.  1.
</event>
<event>
12    1  0.8451514E-002  0.1867918E+03  0.7818608E-02  0.1161517E+00
         21   -1    0    0  501  502  0.00000000000E+00  0.00000000000E+00  0.12187076431E+04  0.12187076431E+04  0.00000000000E+00 0.  1.
         21   -1    0    0  502  503 -0.00000000000E+00 -0.00000000000E+00 -0.34743598008E+02  0.34743598008E+02  0.00000000000E+00 0.  1.
         -6    2    1    2    0  503  0.39856006536E+02  0.56633294575E+02  0.32796421373E+03  0.37742775069E+03  0.17348011469E+03 0.  0.
        -24    2    3    3    0    0  0.34354890882E+02  0.10591619389E+03  0.24917877795E+03  0.28421669271E+03  0.79313090847E+02 0.  0.
          6    2    1    2  501    0 -0.39856006536E+02 -0.56633294575E+02  0.85599983138E+03  0.87602349044E+03  0.17287455904E+03 0.  0.
         24    2    5    5    0    0 -0.75668639611E+02 -0.67341774103E+02  0.78633047275E+03  0.79682042387E+03  0.79665036010E+02 0.  0.
          5    1    5    5  501    0  0.35812633075E+02  0.10708479528E+02  0.69669358626E+02  0.79203066563E+02  0.47000000000E+01 0. -1.
        -13    1    6    6    0    0  0.49215842714E+01 -0.44666659863E+02  0.25323386602E+03  0.25719005306E+03  0.00000000000E+00 0.  1.
         14    1    6    6    0    0 -0.80590223883E+02 -0.22675114240E+02  0.53309660673E+03  0.53963037081E+03  0.00000000000E+00 0. -1.
         -5    1    3    3    0  503  0.55011156536E+01 -0.49282899314E+02  0.78785435779E+02  0.93211057977E+02  0.47000000000E+01 0.  1.
         13    1    4    4    0    0  0.16444183148E+01 -0.13097908167E+02  0.27063971153E+02  0.30111755919E+02  0.00000000000E+00 0. -1.
        -14    1    4    4    0    0  0.32710472568E+02  0.11901410206E+03  0.22211480680E+03  0.25410493679E+03  0.00000000000E+00 0.  1.
</event>
<event>
12    1  0.8451514E-002  0.1990594E+03  0.7818608E-02  0.1150801E+00
         21   -1    0    0  501  502  0.00000000000E+00  0.00000000000E+00  0.24886122730E+04  0.24886122730E+04  0.00000000000E+00 0. -1.
         21   -1    0    0  502  503 -0.00000000000E+00 -0.00000000000E+00 -0.32782932415E+02  0.32782932415E+02  0.00000000000E+00 0.  1.
         -6    2    1    2    0  503 -0.36725468975E+02  0.92684283682E+02  0.31927034063E+03  0.37558324119E+03  0.17085105837E+03 0.  0.
        -24    2    3    3    0    0 -0.23267315381E+02  0.93703953874E+02  0.11208843616E+03  0.16790899347E+03  0.79421745338E+02 0.  0.
          6    2    1    2  501    0  0.36725468975E+02 -0.92684283682E+02  0.21365590000E+04  0.21458119642E+04  0.17229477354E+03 0.  0.
         24    2    5    5    0    0 -0.14909436739E+02  0.10616761561E+02  0.74933814882E+03  0.75378428876E+03  0.79674875388E+02 0.  0.
          5    1    5    5  501    0  0.51634905714E+02 -0.10330104524E+03  0.13872208511E+04  0.13920276755E+04  0.47000000000E+01 0. -1.
        -11    1    6    6    0    0 -0.22195736503E+02  0.10469065432E+02  0.74478900722E+03  0.74519320805E+03  0.00000000000E+00 0.  1.
         12    1    6    6    0    0  0.72862997639E+01  0.14769612891E+00  0.45491416026E+01  0.85910807071E+01  0.00000000000E+00 0. -1.
         -5    1    3    3    0  503 -0.13458153594E+02 -0.10196701917E+01  0.20718190447E+03  0.20767424772E+03  0.47000000000E+01 0.  1.
         11    1    4    4    0    0  0.24377063740E+01 -0.10565041033E+02  0.32443930383E+02  0.34207764076E+02  0.00000000000E+00 0. -1.
        -12    1    4    4    0    0 -0.25705021755E+02  0.10426899491E+03  0.79644505776E+02  0.13370122940E+03  0.00000000000E+00 0.  1.
</event>
<event>
12    1  0.8451514E-002  0.2070323E+03  0.7818608E-02  0.1143974E+00
         21   -1    0    0  501  502  0.00000000000E+00  0.00000000000E+00  0.19611362639E+03  0.19611362639E+03  0.00000000000E+00 0.  1.
         21   -1    0    0  502  503 -0.00000000000E+00 -0.00000000000E+00 -0.22217190857E+03  0.22217190857E+03  0.00000000000E+00 0. -1.
         -6    2    1    2    0  503  0.10765611779E+03  0.40715754557E+02 -0.40393347192E+02  0.21093602052E+03  0.17208942411E+03 0.  0.
        -24    2    3    3    0    0  0.13062025738E+02  0.48076870166E+02 -0.61087601935E+02  0.11371168996E+03  0.81955178983E+02 0.  0.
          6    2    1    2  501    0 -0.10765611779E+03 -0.40715754557E+02  0.14335065016E+02  0.20734951444E+03  0.17187412453E+03 0.  0.
         24    2    5    5    0    0 -0.12280804334E+03 -0.60360913699E+02  0.52390305811E+02  0.16167890597E+03  0.68337903696E+02 0.  0.
          5    1    5    5  501    0  0.15151925554E+02  0.19645159142E+02 -0.38055240795E+02  0.45670608466E+02  0.47000000000E+01 0. -1.
        -11    1    6    6    0    0 -0.16449732459E+02 -0.38207002605E+02  0.12840265954E+01  0.41617513986E+02  0.00000000000E+00 0.  1.
         12    1    6    6    0    0 -0.10635831088E+03 -0.22153911094E+02  0.51106279216E+02  0.12006139199E+03  0.00000000000E+00 0. -1.
         -5    1    3    3    0  503  0.94594092048E+02 -0.73611156083E+01  0.20694254742E+02  0.97224330560E+02  0.47000000000E+01 0.  1.
         13    1    4    4    0    0  0.26852575365E+01 -0.22798212064E+02 -0.71470949857E+01  0.24042671401E+02  0.00000000000E+00 0. -1.
        -14    1    4    4    0    0  0.10376768202E+02  0.70875082230E+02 -0.53940506949E+02  0.89669018559E+02  0.00000000000E+00 0.  1.
</event>
<event>
12    1  0.8451514E-002  0.2961383E+03  0.7818608E-02  0.1087266E+00
         21   -1    0    0  501  502  0.00000000000E+00  0.00000000000E+00  0.86833074194E+02  0.86833074194E+02  0.00000000000E+00 0. -1.
         21   -1    0    0  502  503 -0.00000000000E+00 -0.00000000000E+00 -0.28399293261E+04  0.28399293261E+04  0.00000000000E+00 0.  1.
         -6    2    1    2    0  503  0.22880603185E+03 -0.72828064312E+02 -0.25514114531E+04  0.25684683087E+04  0.17225830327E+03 0.  0.
        -24    2    3    3    0    0  0.34044276991E+02 -0.37628698323E+02 -0.99788213899E+03  0.10023755413E+04  0.80081400913E+02 0.  0.
          6    2    1    2  501    0 -0.22880603185E+03  0.72828064312E+02 -0.20168479883E+03  0.35829409154E+03  0.17332562070E+03 0.  0.
         24    2    5    5    0    0 -0.11217396882E+03  0.61170800599E+01 -0.30605505781E+02  0.14070822790E+03  0.79004369905E+02 0.  0.
          5    1    5    5  501    0 -0.11663206302E+03  0.66710984252E+02 -0.17107929305E+03  0.21758586364E+03  0.47000000000E+01 0. -1.
        -11    1    6    6    0    0 -0.87072500482E+02  0.16250418982E+02 -0.55004835044E+02  0.10426518276E+03  0.00000000000E+00 0.  1.
         12    1    6    6    0    0 -0.25101468342E+02 -0.10133338922E+02  0.24399329263E+02  0.36443045141E+02  0.00000000000E+00 0. -1.
         -5    1    3    3    0  503  0.19476175486E+03 -0.35199365989E+02 -0.15535293141E+04  0.15660927674E+04  0.47000000000E+01 0.  1.
         11    1    4    4    0    0  0.98671173704E+01 -0.26935538681E+02 -0.98174543176E+02  0.10227963716E+03  0.00000000000E+00 0. -1.
        -12    1    4    4    0    0  0.24177159621E+02 -0.10693159642E+02 -0.89970759582E+03  0.90009590416E+03  0.00000000000E+00 0.  1.
</event>
<event>
12    1  0.8451514E-002  0.1740164E+03  0.7818608E-02  0.1173726E+00
         21   -1    0    0  501  502  0.00000000000E+00  0.00000000000E+00  0.17550398735E+03  0.17550398735E+03  0.00000000000E+00 0. -1.
         21   -1    0    0  502  503 -0.00000000000E+00 -0.00000000000E+00 -0.18459908111E+03  0.18459908111E+03  0.00000000000E+00 0. -1.
         -6    2    1    2    0  503 -0.26166229972E+02 -0.20711572143E+02 -0.50587500901E+02  0.18122035290E+03  0.17078665125E+03 0.  0.
        -24    2    3    3    0    0 -0.72940529739E+02 -0.34446505929E+02 -0.64182544260E+02  0.13039320731E+03  0.79850528336E+02 0.  0.
          6    2    1    2  501    0  0.26166229972E+02  0.20711572143E+02  0.41492407149E+02  0.17888271556E+03  0.17077401812E+03 0.  0.
         24    2    5    5    0    0  0.31152124364E+02 -0.42332139707E+02  0.60324485812E+02  0.11273057324E+03  0.79414568250E+02 0.  0.
          5    1    5    5  501    0 -0.49858943921E+01  0.63043711850E+02 -0.18832078663E+02  0.66152142320E+02  0.47000000000E+01 0. -1.
        -13    1    6    6    0    0  0.20108616985E+02  0.21385384804E+02  0.27437924402E+02  0.40181225165E+02  0.00000000000E+00 0.  1.
         14    1    6    6    0    0  0.11043507379E+02 -0.63717524510E+02  0.32886561409E+02  0.72549348076E+02  0.00000000000E+00 0. -1.
         -5    1    3    3    0  503  0.46774299767E+02  0.13734933785E+02  0.13595043360E+02  0.50827145589E+02  0.47000000000E+01 0.  1.
         13    1    4    4    0    0  0.26996269401E+01 -0.21537448652E+02  0.97883784641E+01  0.23810964554E+02  0.00000000000E+00 0. -1.
        -14    1    4    4    0    0 -0.75640156679E+02 -0.12909057277E+02 -0.73970922724E+02  0.10658224276E+03  0.00000000000E+00 0.  1.
</event>
<event>
12    1  0.8451514E-002  0.1942957E+03  0.7818608E-02  0.1154650E+00
         21   -1    0    0  503  502  0.00000000000E+00  0.00000000000E+00  0.62749743545E+02  0.62749743545E+02  0.00000000000E+00 0. -1.
         21   -1    0    0  501  503 -0.00000000000E+00 -0.00000000000E+00 -0.15103634429E+04  0.15103634429E+04  0.00000000000E+00 0.  1.
          6    2    1    2  501    0 -0.11708322407E+02 -0.90027415348E+02 -0.13339330007E+04  0.13480040625E+04  0.17174306869E+03 0.  0.
         24    2    3    3    0    0  0.44417512643E+01 -0.40045361187E+02 -0.12155268890E+04  0.12183848976E+04  0.73025889761E+02 0.  0.
         -6    2    1    2    0  502  0.11708322407E+02  0.90027415348E+02 -0.11368069860E+03  0.22510912396E+03  0.17178124498E+03 0.  0.
        -24    2    5    5    0    0 -0.13601277514E+02  0.27982756302E+02  0.82673197884E+01  0.85884396438E+02  0.79622556947E+02 0.  0.
          5    1    3    3  501    0 -0.16150073672E+02 -0.49982054161E+02 -0.11840611170E+03  0.12961916489E+03  0.47000000000E+01 0. -1.
        -13    1    4    4    0    0  0.26479055020E+01  0.20086652520E+02 -0.18560266082E+03  0.18670520270E+03  0.00000000000E+00 0.  1.
         14    1    4    4    0    0  0.17938457623E+01 -0.60132013707E+02 -0.10299242282E+04  0.10316796949E+04  0.00000000000E+00 0. -1.
         -5    1    5    5    0  502  0.25309599921E+02  0.62044659046E+02 -0.12194801839E+03  0.13922472752E+03  0.47000000000E+01 0.  1.
         11    1    6    6    0    0  0.24113597916E+02 -0.14805293210E+02  0.51609582798E+01  0.28762785015E+02  0.00000000000E+00 0. -1.
        -12    1    6    6    0    0 -0.37714875429E+02  0.42788049512E+02  0.31063615086E+01  0.57121611423E+02  0.00000000000E+00 0.  1.
</event>
<event>
12    1  0.8451514E-002  0.2126401E+03  0.7818608E-02  0.1140557E+00
         21   -1    0    0  501  502  0.00000000000E+00  0.00000000000E+00  0.13722392612E+03  0.13722392612E+03  0.00000000000E+00 0. -1.
         21   -1    0    0  502  503 -0.00000000000E+00 -0.00000000000E+00 -0.35110660207E+03  0.35110660207E+03  0.00000000000E+00 0.  1.
         -6    2    1    2    0  503  0.89184371932E+02 -0.76398490256E+02 -0.17693398181E+03  0.27250415921E+03  0.17076973197E+03 0.  0.
        -24    2    3    3    0    0  0.99976998921E+02 -0.95671775609E+02 -0.18378843903E+03  0.24890301708E+03  0.95005434739E+02 0.  0.
          6    2    1    2  501    0 -0.89184371932E+02  0.76398490256E+02 -0.36948694135E+02  0.21582636898E+03  0.17727163913E+03 0.  0.
         24    2    5    5    0    0 -0.12336942272E+03  0.35678058040E+02 -0.63663218474E+01  0.15431098236E+03  0.85313603453E+02 0.  0.
          5    1    5    5  501    0  0.34185050788E+02  0.40720432216E+02 -0.30582372288E+02  0.61515386628E+02  0.47000000000E+01 0. -1.
        -13    1    6    6    0    0 -0.95322994164E+02  0.39028433282E+00  0.26014848023E+02  0.98809907680E+02  0.00000000000E+00 0.  1.
         14    1    6    6    0    0 -0.28046428556E+02  0.35287773708E+02 -0.32381169870E+02  0.55501074676E+02  0.00000000000E+00 0. -1.
         -5    1    3    3    0  503 -0.10792626989E+02  0.19273285352E+02  0.68544572271E+01  0.23601142122E+02  0.47000000000E+01 0.  1.
         11    1    4    4    0    0 -0.16451695150E+02 -0.23801336542E+02 -0.48577070990E+02  0.56541079937E+02  0.00000000000E+00 0. -1.
        -12    1    4    4    0    0  0.11642869407E+03 -0.71870439067E+02 -0.13521136804E+03  0.19236193715E+03  0.00000000000E+00 0.  1.
</event>
<event>
12    1  0.8451514E-002  0.3289347E+03  0.7818608E-02  0.1071640E+00
         21   -1    0    0  503  502  0.00000000000E+00  0.00000000000E+00  0.91799995822E+03  0.91799995822E+03  0.00000000000E+00 0.  1.
         21   -1    0    0  501  503 -0.00000000000E+00 -0.00000000000E+00 -0.19915973603E+03  0.19915973603E+03  0.00000000000E+00 0. -1.
          6    2    1    2  501    0 -0.53126923830E+02 -0.27495111078E+03  0.71660919133E+03  0.78849652826E+03  0.17256146330E+03 0.  0.
         24    2    3    3    0    0  0.99768370369E+01 -0.40077054511E+02  0.15984976298E+03  0.18091850199E+03  0.73985471966E+02 0.  0.
         -6    2    1    2    0  502  0.53126923830E+02  0.27495111078E+03  0.22310308580E+01  0.32866316599E+03  0.17202882265E+03 0.  0.
        -24    2    5    5    0    0  0.33969839025E+02  0.20385439622E+03 -0.62451121860E+02  0.23054279298E+03  0.80865765008E+02 0.  0.
          5    1    3    3  501    0 -0.63103760867E+02 -0.23487405627E+03  0.55675942835E+03  0.60757802627E+03  0.47000000000E+01 0. -1.
        -11    1    4    4    0    0  0.29064181889E+02 -0.47131880348E+02  0.72485621741E+02  0.91215712315E+02  0.00000000000E+00 0.  1.
         12    1    4    4    0    0 -0.19087344852E+02  0.70548258363E+01  0.87364141237E+02  0.89702789673E+02  0.00000000000E+00 0. -1.
         -5    1    5    5    0  502  0.19157084805E+02  0.71096714557E+02  0.64682152718E+02  0.98120373008E+02  0.47000000000E+01 0.  1.
         11    1    6    6    0    0  0.52176957381E+02  0.13685181492E+03 -0.66797862503E+02  0.16097455874E+03  0.00000000000E+00 0. -1.
        -12    1    6    6    0    0 -0.18207118356E+02  0.67002581307E+02  0.43467406433E+01  0.69568234237E+02  0.00000000000E+00 0.  1.
</event>
<event>
12    1  0.8451514E-002  0.2036835E+03  0.7818608E-02  0.1146954E+00
         21   -1    0    0  503  502  0.00000000000E+00  0.00000000000E+00  0.52536351878E+03  0.52536351878E+03  0.00000000000E+00 0. -1.
         21   -1    0    0  501  503 -0.00000000000E+00 -0.00000000000E+00 -0.12147239035E+03  0.12147239035E+03  0.00000000000E+00 0. -1.
          6    2    1    2  501    0  0.54030792268E+02  0.93580948794E+02  0.89873761139E+01  0.20249826823E+03  0.17102062804E+03 0.  0.
         24    2    3    3    0    0  0.98634288049E+02  0.86940382175E+02  0.21622633309E+02  0.15543120240E+03  0.80024793516E+02 0.  0.
         -6    2    1    2    0  502 -0.54030792268E+02 -0.93580948794E+02  0.39490375231E+03  0.44433764090E+03  0.17265643643E+03 0.  0.
        -24    2    5    5    0    0 -0.45522852473E+02 -0.49574041942E+02  0.38603546262E+03  0.39840584960E+03  0.71930013624E+02 0.  0.
          5    1    3    3  501    0 -0.44603495780E+02  0.66405666195E+01 -0.12635257195E+02  0.47067065824E+02  0.47000000000E+01 0. -1.
        -11    1    4    4    0    0  0.18331957866E+02  0.17727550344E+02  0.40392290128E+02  0.47768858288E+02  0.00000000000E+00 0.  1.
         12    1    4    4    0    0  0.80302330183E+02  0.69212831831E+02 -0.18769656819E+02  0.10766234411E+03  0.00000000000E+00 0. -1.
         -5    1    5    5    0  502 -0.85079397952E+01 -0.44006906852E+02  0.88682896916E+01  0.45931791303E+02  0.47000000000E+01 0.  1.
         13    1    6    6    0    0  0.63066757916E+01 -0.45382739083E+02  0.20449227717E+03  0.20956254099E+03  0.00000000000E+00 0. -1.
        -14    1    6    6    0    0 -0.51829528265E+02 -0.41913028589E+01  0.18154318545E+03  0.18884330860E+03  0.00000000000E+00 0.  1.
</event>
<event>
12    1  0.8451514E-002  0.2037722E+03  0.7818608E-02  0.1146690E+00
         21   -1    0    0  501  502  0.00000000000E+00  0.00000000000E+00  0.38122556703E+03  0.38122556703E+03  0.00000000000E+00 0.  1.
         21   -1    0    0  502  503 -0.00000000000E+00 -0.00000000000E+00 -0.12339689812E+03  0.12339689812E+03  0.00000000000E+00 0.  1.
         -6    2    1    2    0  503 -0.92876120746E+02  0.55923259062E+02  0.41630089801E+02  0.20752831764E+03  0.17199288804E+03 0.  0.
        -24    2    3    3    0    0 -0.35571712378E+02 -0.11458352677E+02 -0.31018643012E+02  0.92968267016E+02  0.79273588855E+02 0.  0.
          6    2    1    2  501    0  0.92876120746E+02 -0.55923259062E+02  0.21619857910E+03  0.29709414752E+03  0.17253904536E+03 0.  0.
         24    2    5    5    0    0 -0.16871860503E+02 -0.25480850819E+02  0.59679918836E+02  0.10346682346E+03  0.78802013996E+02 0.  0.
          5    1    5    5  501    0  0.10974798125E+03 -0.30442408243E+02  0.15651866027E+03  0.19362732405E+03  0.47000000000E+01 0. -1.
        -13    1    6    6    0    0  0.21016489162E+02 -0.38385298560E+02  0.37937662545E+02  0.57917097662E+02  0.00000000000E+00 0.  1.
         14    1    6    6    0    0 -0.37888349665E+02  0.12904447741E+02  0.21742256291E+02  0.45549725800E+02  0.00000000000E+00 0. -1.
         -5    1    3    3    0  503 -0.57304408368E+02  0.67381611740E+02  0.72648732813E+02  0.11456005062E+03  0.47000000000E+01 0.  1.
         11    1    4    4    0    0 -0.43255568377E+02 -0.38928618166E+02 -0.27035026101E+02  0.64166768223E+02  0.00000000000E+00 0. -1.
        -12    1    4    4    0    0  0.76838559988E+01  0.27470265488E+02 -0.39836169106E+01  0.28801498793E+02  0.00000000000E+00 0.  1.
</event>
<event>
12    1  0.8451514E-002  0.1889563E+03  0.7818608E-02  0.1159479E+00
         21   -1    0    0  503  502  0.00000000000E+00  0.00000000000E+00  0.17020636586E+02  0.17020636586E+02  0.00000000000E+00 0.  1.
         21   -1    0    0  501  503 -0.00000000000E+00 -0.00000000000E+00 -0.22151768035E+04  0.22151768035E+04  0.00000000000E+00 0.  1.
          6    2    1    2  501    0 -0.41118966844E+02 -0.65474554820E+02 -0.13590809797E+04  0.13721092707E+04  0.17206119430E+03 0.  0.
         24    2    3    3    0    0 -0.61481054792E+02 -0.24286036409E+02 -0.12330645819E+04  0.12378955189E+04  0.86990348579E+02 0.  0.
         -6    2    1    2    0  502  0.41118966844E+02  0.65474554820E+02 -0.83907518719E+03  0.86008816937E+03  0.17241462398E+03 0.  0.
        -24    2    5    5    0    0  0.64746126078E+02 -0.43041403930E+01 -0.65410985497E+03  0.66093603385E+03  0.69037323231E+02 0.  0.
          5    1    3    3  501    0  0.20362087948E+02 -0.41188518411E+02 -0.12601639777E+03  0.13421375183E+03  0.47000000000E+01 0. -1.
        -11    1    4    4    0    0 -0.52862856755E+02 -0.54730591153E+02 -0.76974497963E+03  0.77349676980E+03  0.00000000000E+00 0.  1.
         12    1    4    4    0    0 -0.86181980367E+01  0.30444554744E+02 -0.46331960230E+03  0.46439874906E+03  0.00000000000E+00 0. -1.
         -5    1    5    5    0  502 -0.23627159234E+02  0.69778695213E+02 -0.18496533222E+03  0.19915213552E+03  0.47000000000E+01 0.  1.
         11    1    6    6    0    0 -0.14356020451E+02  0.41953932863E+01 -0.12149776689E+03  0.12241488474E+03  0.00000000000E+00 0. -1.
        -12    1    6    6    0    0  0.79102146529E+02 -0.84995336793E+01 -0.53261208808E+03  0.53852114910E+03  0.00000000000E+00 0.  1.
</event>
<event>
12    1  0.8451514E-002  0.1814971E+03  0.7818608E-02  0.1166489E+00
         21   -1    0    0  503  502  0.00000000000E+00  0.00000000000E+00  0.42628782582E+02  0.42628782582E+02  0.00000000000E+00 0. -1.
         21   -1    0    0  501  503 -0.00000000000E+00 -0.00000000000E+00 -0.11359378891E+04  0.11359378891E+04  0.00000000000E+00 0. -1.
          6    2    1    2  501    0 -0.44413497071E+02  0.43528171147E+02 -0.88143750788E+03  0.89992959796E+03  0.17051082245E+03 0.  0.
         24    2    3    3    0    0 -0.48306838578E+02  0.92065753649E+02 -0.69868111329E+03  0.71073909929E+03  0.78645505517E+02 0.  0.
         -6    2    1    2    0  502  0.44413497071E+02 -0.43528171147E+02 -0.21187159860E+03  0.27863707369E+03  0.16994641548E+03 0.  0.
        -24    2    5    5    0    0  0.34303625659E+02 -0.16035519184E+02 -0.27814053705E+02  0.92203908066E+02  0.79335127593E+02 0.  0.
          5    1    3    3  501    0  0.38933415073E+01 -0.48537582502E+02 -0.18275639459E+03  0.18919049867E+03  0.47000000000E+01 0. -1.
        -11    1    4    4    0    0 -0.67517982030E+02  0.50236780267E+02 -0.46908769221E+03  0.47657703992E+03  0.00000000000E+00 0.  1.
         12    1    4    4    0    0  0.19211143453E+02  0.41828973381E+02 -0.22959342108E+03  0.23416205937E+03  0.00000000000E+00 0. -1.
         -5    1    5    5    0  502  0.10109871412E+02 -0.27492651963E+02 -0.18405754490E+03  0.18643316563E+03  0.47000000000E+01 0.  1.
         13    1    6    6    0    0  0.13635022857E+02 -0.46309109882E+02 -0.38897655277E+01  0.48431165402E+02  0.00000000000E+00 0. -1.
        -14    1    6    6    0    0  0.20668602802E+02  0.30273590697E+02 -0.23924288178E+02  0.43772742664E+02  0.00000000000E+00 0.  1.
</event>
<event>
12    1  0.8451514E-002  0.1767784E+03  0.7818608E-02  0.1171114E+00
         21   -1    0    0  501  502  0.00000000000E+00  0.00000000000E+00  0.97048409601E+02  0.97048409601E+02  0.00000000000E+00 0.  1.
         21   -1    0    0  502  503 -0.00000000000E+00 -0.00000000000E+00 -0.32117088687E+03  0.32117088687E+03  0.00000000000E+00 0.  1.
         -6    2    1    2    0  503  0.28574216337E+02  0.26656214184E+02 -0.11870979685E+03  0.21293808473E+03  0.17240525650E+03 0.  0.
        -24    2    3    3    0    0 -0.24282406075E+02 -0.26315370333E+02 -0.10535287376E+03  0.13677832703E+03  0.79542119498E+02 0.  0.
          6    2    1    2  501    0 -0.28574216337E+02 -0.26656214184E+02 -0.10541268042E+03  0.20528121174E+03  0.17176001603E+03 0.  0.
         24    2    5    5    0    0  0.42757950493E+02  0.17216488808E+02 -0.56598080866E+02  0.10823458778E+03  0.79917040840E+02 0.  0.
          5    1    5    5  501    0 -0.71332166830E+02 -0.43872702993E+02 -0.48814599554E+02  0.97046623961E+02  0.47000000000E+01 0. -1.
        -11    1    6    6    0    0  0.54950496523E+02 -0.15329025337E+02 -0.29899392983E+02  0.64408926296E+02  0.00000000000E+00 0.  1.
         12    1    6    6    0    0 -0.12192546030E+02  0.32545514145E+02 -0.26698687883E+02  0.43825661482E+02  0.00000000000E+00 0. -1.
         -5    1    3    3    0  503  0.52856622412E+02  0.52971584518E+02 -0.13356923085E+02  0.76159757703E+02  0.47000000000E+01 0.  1.
         13    1    4    4    0    0  0.72544730763E+01 -0.20393970254E+02  0.46938021155E+01  0.22148886668E+02  0.00000000000E+00 0. -1.
        -14    1    4    4    0    0 -0.31536879152E+02 -0.59214000790E+01 -0.11004667588E+03  0.11462944036E+03  0.00000000000E+00 0.  1.
</event>
<event>
12    1  0.8451514E-002  0.2225720E+03  0.7818608E-02  0.1132569E+00
         21   -1    0    0  501  502  0.00000000000E+00  0.00000000000E+00  0.11012551000E+03  0.11012551000E+03  0.00000000000E+00 0. -1.
         21   -1    0    0  502  503 -0.00000000000E+00 -0.00000000000E+00 -0.72537912321E+03  0.72537912321E+03  0.00000000000E+00 0. -1.
         -6    2    1    2    0  503  0.49010351189E+02 -0.13190691318E+03 -0.56942988617E+03  0.61138258922E+03  0.17244369187E+03 0.  0.
        -24    2    3    3    0    0  0.90143579678E+02 -0.94487983756E+02 -0.30193445445E+03  0.33812810205E+03  0.78181548858E+02 0.  0.
          6    2    1    2  501    0 -0.49010351189E+02  0.13190691318E+03 -0.45823727042E+02  0.22412204399E+03  0.16831348245E+03 0.  0.
         24    2    5    5    0    0 -0.33518108891E+02  0.14457353120E+03  0.69489947920E+01  0.16748722296E+03  0.77322129936E+02 0.  0.
          5    1    5    5  501    0 -0.15492242298E+02 -0.12666618024E+02 -0.52772721834E+02  0.56634821032E+02  0.47000000000E+01 0. -1.
        -11    1    6    6    0    0 -0.20016014931E+02  0.46383304513E+02  0.38451816161E+02  0.63486958955E+02  0.00000000000E+00 0.  1.
         12    1    6    6    0    0 -0.13502093960E+02  0.98190226690E+02 -0.31502821369E+02  0.10400026400E+03  0.00000000000E+00 0. -1.
         -5    1    3    3    0  503 -0.41133228489E+02 -0.37418929423E+02 -0.26749543172E+03  0.27325448716E+03  0.47000000000E+01 0.  1.
         13    1    4    4    0    0  0.11652258855E+02 -0.65994314735E+02 -0.15974251047E+03  0.17323017741E+03  0.00000000000E+00 0. -1.
        -14    1    4    4    0    0  0.78491320823E+02 -0.28493669021E+02 -0.14219194398E+03  0.16489792464E+03  0.00000000000E+00 0.  1.
</event>
<event>
12    1  0.8451514E-002  0.1911887E+03  0.7818608E-02  0.1157634E+00
         21   -1    0    0  503  502  0.00000000000E+00  0.00000000000E+00  0.14923461786E+03  0.14923461786E+03  0.00000000000E+00 0. -1.
         21   -1    0    0  501  503 -0.00000000000E+00 -0.00000000000E+00 -0.27206023904E+03  0.27206023904E+03  0.00000000000E+00 0.  1.
          6    2    1    2  501    0  0.35995021682E+02  0.32472946204E+02 -0.12974045478E+03  0.23105349386E+03  0.18494052449E+03 0.  0.
         24    2    3    3    0    0 -0.22141474765E+02 -0.37073920853E+02 -0.10175610816E+03  0.13607016589E+03  0.79347740894E+02 0.  0.
         -6    2    1    2    0  502 -0.35995021682E+02 -0.32472946204E+02  0.69148335930E+01  0.19024136304E+03  0.18383097526E+03 0.  0.
        -24    2    5    5    0    0 -0.63331220334E+02  0.30682238891E+02 -0.31422462505E+02  0.11132569011E+03  0.80335514420E+02 0.  0.
          5    1    3    3  501    0  0.58136496447E+02  0.69546867056E+02 -0.27984346615E+02  0.94983327968E+02  0.47000000000E+01 0. -1.
        -13    1    4    4    0    0 -0.27916082538E+02  0.11025671347E+02 -0.88501496927E+01  0.31292143463E+02  0.00000000000E+00 0.  1.
         14    1    4    4    0    0  0.57746077732E+01 -0.48099592200E+02 -0.92905958468E+02  0.10477802243E+03  0.00000000000E+00 0. -1.
         -5    1    5    5    0  502  0.27336198652E+02 -0.63155185095E+02  0.38337296098E+02  0.78915672925E+02  0.47000000000E+01 0.  1.
         11    1    6    6    0    0 -0.51184124063E+02  0.21323652409E+02  0.19007715622E+02  0.58615748407E+02  0.00000000000E+00 0. -1.
        -12    1    6    6    0    0 -0.12147096271E+02  0.93585864817E+01 -0.50430178128E+02  0.52709941707E+02  0.00000000000E+00 0.  1.
</event>
<event>
12    1  0.8451514E-002  0.1795590E+03  0.7818608E-02  0.1169167E+00
         21   -1    0    0  501  502  0.00000000000E+00  0.00000000000E+00  0.27621839273E+03  0.27621839273E+03  0.00000000000E+00 0. -1.
         21   -1    0    0  502  503 -0.00000000000E+00 -0.00000000000E+00 -0.24877530529E+03  0.24877530529E+03  0.00000000000E+00 0. -1.
         -6    2    1    2    0  503 -0.55546409619E+01  0.46390297664E+02 -0.17922888524E+03  0.25370148127E+03  0.17337397307E+03 0.  0.
        -24    2    3    3    0    0  0.61003200293E+02  0.52520466706E+02 -0.97389384610E+02  0.14793135756E+03  0.76936366208E+02 0.  0.
          6    2    1    2  501    0  0.55546409619E+01 -0.46390297664E+02  0.20667197269E+03  0.27129221675E+03  0.16942033179E+03 0.  0.
         24    2    5    5    0    0  0.23776881614E+02  0.34435886519E+02  0.12064762488E+03  0.15176313862E+03  0.82006283142E+02 0.  0.
          5    1    5    5  501    0 -0.18222240652E+02 -0.80826184182E+02  0.86024347804E+02  0.11952907813E+03  0.47000000000E+01 0. -1.
        -11    1    6    6    0    0  0.19595367003E+02 -0.39516530149E+01 -0.47569585035E+01  0.20548056446E+02  0.00000000000E+00 0.  1.
         12    1    6    6    0    0  0.41815146118E+01  0.38387539534E+02  0.12540458339E+03  0.13121508218E+03  0.00000000000E+00 0. -1.
         -5    1    3    3    0  503 -0.66557841255E+02 -0.61301690422E+01 -0.81839500634E+02  0.10577012371E+03  0.47000000000E+01 0.  1.
         13    1    4    4    0    0  0.20066490547E+02  0.58308935685E+02 -0.84532815447E+02  0.10463456843E+03  0.00000000000E+00 0. -1.
        -14    1    4    4    0    0  0.40936709746E+02 -0.57884689790E+01 -0.12856569162E+02  0.43296789126E+02  0.00000000000E+00 0.  1.
</event>
<event>
12    1  0.8451514E-002  0.2150034E+03  0.7818608E-02  0.1137691E+00
         21   -1    0    0  501  502  0.00000000000E+00  0.00000000000E+00  0.37193845959E+02  0.37193845959E+02  0.00000000000E+00 0.  1.
         21   -1    0    0  502  503 -0.00000000000E+00 -0.00000000000E+00 -0.15543751812E+04  0.15543751812E+04  0.00000000000E+00 0.  1.
         -6    2    1    2    0  503  0.87824103309E+02 -0.94282306667E+02 -0.11155030826E+04  0.11360341489E+04  0.17211691870E+03 0.  0.
        -24    2    3    3    0    0 -0.14866900625E+02 -0.35841842187E+02 -0.63708165119E+03  0.64321583937E+03  0.79673856098E+02 0.  0.
          6    2    1    2  501    0 -0.87824103309E+02  0.94282306667E+02 -0.40167825256E+03  0.45553487818E+03  0.17194295620E+03 0.  0.
         24    2    5    5    0    0  0.17686824653E+02  0.16276635274E+02 -0.16992393130E+03  0.18917122429E+03  0.79585532920E+02 0.  0.
          5    1    5    5  501    0 -0.10551092796E+03  0.78005671393E+02 -0.23175432126E+03  0.26636365389E+03  0.47000000000E+01 0. -1.
        -13    1    6    6    0    0 -0.20293762334E+02  0.25519296573E+02 -0.31506035934E+02  0.45339845473E+02  0.00000000000E+00 0.  1.
         14    1    6    6    0    0  0.37980586988E+02 -0.92426612989E+01 -0.13841789536E+03  0.14383137882E+03  0.00000000000E+00 0. -1.
         -5    1    3    3    0  503  0.10269100393E+03 -0.58440464480E+02 -0.47842143145E+03  0.49281830957E+03  0.47000000000E+01 0.  1.
         13    1    4    4    0    0  0.12979974690E+01 -0.33135815146E+02 -0.90429185581E+02  0.96317727587E+02  0.00000000000E+00 0. -1.
        -14    1    4    4    0    0 -0.16164898094E+02 -0.27060270415E+01 -0.54665246561E+03  0.54689811178E+03  0.00000000000E+00 0.  1.
</event>
<event>
12    1  0.8451514E-002  0.2450234E+03  0.7818608E-02  0.1116969E+00
         21   -1    0    0  503  502  0.00000000000E+00  0.00000000000E+00  0.25367151940E+03  0.25367151940E+03  0.00000000000E+00 0.  1.
         21   -1    0    0  501  503 -0.00000000000E+00 -0.00000000000E+00 -0.39737407231E+03  0.39737407231E+03  0.00000000000E+00 0.  1.
          6    2    1    2  501    0  0.16253643181E+03  0.25476807211E+02 -0.28041425392E+03  0.37046310077E+03  0.17760516844E+03 0.  0.
         24    2    3    3    0    0  0.13853651910E+02 -0.99672517413E+01 -0.69284521339E+02  0.10977036145E+03  0.83414132957E+02 0.  0.
         -6    2    1    2    0  502 -0.16253643181E+03 -0.25476807211E+02  0.13671170101E+03  0.28058249095E+03  0.18157446313E+03 0.  0.
        -24    2    5    5    0    0 -0.11330683215E+03 -0.13117816281E+02  0.15859524854E+01  0.13616173048E+03  0.74343703739E+02 0.  0.
          5    1    3    3  501    0  0.14868277990E+03  0.35444058952E+02 -0.21112973258E+03  0.26069273932E+03  0.47000000000E+01 0. -1.
        -11    1    4    4    0    0  0.34383283916E+01  0.36004439398E+02 -0.41521259712E+02  0.55065023077E+02  0.00000000000E+00 0.  1.
         12    1    4    4    0    0  0.10415323519E+02 -0.45971691139E+02 -0.27763261627E+02  0.54705338372E+02  0.00000000000E+00 0. -1.
         -5    1    5    5    0  502 -0.49229599659E+02 -0.12358990930E+02  0.13512574853E+03  0.14442076047E+03  0.47000000000E+01 0.  1.
         11    1    6    6    0    0 -0.74594961228E+02 -0.43264358778E+02 -0.63139931292E+01  0.86464324957E+02  0.00000000000E+00 0. -1.
        -12    1    6    6    0    0 -0.38711870918E+02  0.30146542497E+02  0.78999456146E+01  0.49697405518E+02  0.00000000000E+00 0.  1.
</event>
<event>
12    1  0.8451514E-002  0.1848215E+03  0.7818608E-02  0.1163465E+00
         21   -1    0    0  503  502  0.00000000000E+00  0.00000000000E+00  0.67860601795E+02  0.67860601795E+02  0.00000000000E+00 0.  1.
         21   -1    0    0  501  503 -0.00000000000E+00 -0.00000000000E+00 -0.10811217758E+04  0.10811217758E+04  0.00000000000E+00 0.  1.
          6    2    1    2  501    0 -0.64904046841E+02  0.32653215030E+01 -0.92697026464E+03  0.94500905385E+03  0.17188671476E+03 0.  0.
         24    2    3    3    0    0 -0.35333899005E+02  0.77290517127E+01 -0.90131557807E+03  0.90532818348E+03  0.77078699187E+02 0.  0.
         -6    2    1    2    0  502  0.64904046841E+02 -0.32653215030E+01 -0.86290909331E+02  0.20397332371E+03  0.17301964666E+03 0.  0.
        -24    2    5    5    0    0  0.46640016488E+02  0.46005211393E+00 -0.12938389353E+03  0.15678700683E+03  0.75275964426E+02 0.  0.
          5    1    3    3  501    0 -0.29570147836E+02 -0.44637302097E+01 -0.25654686567E+02  0.39680870369E+02  0.47000000000E+01 0. -1.
        -13    1    4    4    0    0  0.30316033787E+01 -0.23268740899E+02 -0.55740277076E+03  0.55789647227E+03  0.00000000000E+00 0.  1.
         14    1    4    4    0    0 -0.38365502384E+02  0.30997792612E+02 -0.34391280732E+03  0.34743171121E+03  0.00000000000E+00 0. -1.
         -5    1    5    5    0  502  0.18264030352E+02 -0.37253736170E+01  0.43092984199E+02  0.47186316878E+02  0.47000000000E+01 0.  1.
         11    1    6    6    0    0  0.66644506838E+02 -0.73901450014E+01 -0.99091503503E+02  0.11964627283E+03  0.00000000000E+00 0. -1.
        -12    1    6    6    0    0 -0.20004490349E+02  0.78501971153E+01 -0.30292390028E+02  0.37140734006E+02  0.00000000000E+00 0.  1.
</event>
<event>
12    1  0.8451514E-002  0.2874851E+03  0.7818608E-02  0.1091808E+00
         21   -1    0    0  501  502  0.00000000000E+00  0.00000000000E+00  0.11981266391E+03  0.11981266391E+03  0.00000000000E+00 0. -1.
         21   -1    0    0  502  503 -0.00000000000E+00 -0.00000000000E+00 -0.90560423543E+03  0.90560423543E+03  0.00000000000E+00 0.  1.
         -6    2    1    2    0  503  0.22653440539E+03 -0.35543887288E+02 -0.64516771026E+03  0.70632080888E+03  0.17339696061E+03 0.  0.
        -24    2    3    3    0    0  0.20648736736E+03 -0.10850922318E+01 -0.39464026885E+03  0.45259776856E+03  0.80408880110E+02 0.  0.
          6    2    1    2  501    0 -0.22653440539E+03  0.35543887288E+02 -0.14062386125E+03  0.31909609046E+03  0.17165675007E+03 0.  0.
         24    2    5    5    0    0 -0.50528168575E+02  0.32532248310E+02 -0.93680551737E+02  0.13685166757E+03  0.79629706411E+02 0.  0.
          5    1    5    5  501    0 -0.17600623681E+03  0.30116389778E+01 -0.46943309515E+02  0.18224442289E+03  0.47000000000E+01 0. -1.
        -13    1    6    6    0    0 -0.13703756062E+02  0.49015634470E+02 -0.23855189997E+02  0.56208499735E+02  0.00000000000E+00 0.  1.
         14    1    6    6    0    0 -0.36824412513E+02 -0.16483386160E+02 -0.69825361740E+02  0.80643167835E+02  0.00000000000E+00 0. -1.
         -5    1    3    3    0  503  0.20047038022E+02 -0.34458795056E+02 -0.25052744142E+03  0.25372304033E+03  0.47000000000E+01 0.  1.
         13    1    4    4    0    0  0.23498501877E+02 -0.94402187260E+00 -0.79994204660E+01  0.24840722525E+02  0.00000000000E+00 0. -1.
        -14    1    4    4    0    0  0.18298886549E+03 -0.14107035918E+00 -0.38664084838E+03  0.42775704603E+03  0.00000000000E+00 0.  1.
</event>
<event>
12    1  0.8451514E-002  0.3220079E+03  0.7818608E-02  0.1074836E+00
         21   -1    0    0  501  502  0.00000000000E+00  0.00000000000E+00  0.57061286107E+03  0.57061286107E+03  0.00000000000E+00 0.  1.
         21   -1    0    0  502  503 -0.00000000000E+00 -0.00000000000E+00 -0.27306544488E+03  0.27306544488E+03  0.00000000000E+00 0.  1.
         -6    2    1    2    0  503 -0.26745265475E+03  0.49454720200E+02  0.39361055543E+03  0.50854530792E+03  0.17237276172E+03 0.  0.
        -24    2    3    3    0    0 -0.13860825820E+03  0.88587773390E+02  0.26830532484E+03  0.32454594601E+03  0.79260840864E+02 0.  0.
          6    2    1    2  501    0  0.26745265475E+03 -0.49454720200E+02 -0.96063139232E+02  0.33513299803E+03  0.17061450046E+03 0.  0.
         24    2    5    5    0    0  0.16415948982E+03 -0.94283471109E+02 -0.40318906665E+02  0.20940072575E+03  0.79908314255E+02 0.  0.
          5    1    5    5  501    0  0.10329316492E+03  0.44828750908E+02 -0.55744232567E+02  0.12573227228E+03  0.47000000000E+01 0. -1.
        -13    1    6    6    0    0  0.77288780272E+02 -0.32965446691E+02 -0.57325441501E+02  0.10171766058E+03  0.00000000000E+00 0.  1.
         14    1    6    6    0    0  0.86870709553E+02 -0.61318024418E+02  0.17006534837E+02  0.10768306517E+03  0.00000000000E+00 0. -1.
         -5    1    3    3    0  503 -0.12884439654E+03 -0.39133053190E+02  0.12530523058E+03  0.18399936191E+03  0.47000000000E+01 0.  1.
         13    1    4    4    0    0 -0.10621503189E+03  0.71655703962E+02  0.13417232653E+03  0.18552192893E+03  0.00000000000E+00 0. -1.
        -14    1    4    4    0    0 -0.32393226314E+02  0.16932069429E+02  0.13413299832E+03  0.13902401708E+03  0.00000000000E+00 0.  1.
</event>
<event>
12    1  0.8451514E-002  0.2054046E+03  0.7818608E-02  0.1145336E+00
         21   -1    0    0  501  502  0.00000000000E+00  0.00000000000E+00  0.10613205022E+03  0.10613205022E+03  0.00000000000E+00 0.  1.
         21   -1    0    0  502  503 -0.00000000000E+00 -0.00000000000E+00 -0.58441261905E+03  0.58441261905E+03  0.00000000000E+00 0.  1.
         -6    2    1    2    0  503 -0.10949794282E+03 -0.26840624493E+02 -0.43492374441E+03  0.48098825677E+03  0.17169979933E+03 0.  0.
        -24    2    3    3    0    0 -0.13312232833E+02  0.91013346277E+01 -0.93032308801E+02  0.12397935075E+03  0.80348111969E+02 0.  0.
          6    2    1    2  501    0  0.10949794282E+03  0.26840624493E+02 -0.43356824422E+02  0.20955641251E+03  0.17124210112E+03 0.  0.
         24    2    5    5    0    0  0.87631569145E+02  0.76565147877E+02 -0.58869973632E+02  0.15286942704E+03  0.79761357486E+02 0.  0.
          5    1    5    5  501    0  0.21866373673E+02 -0.49724523385E+02  0.15513149210E+02  0.56686985472E+02  0.47000000000E+01 0. -1.
        -13    1    6    6    0    0  0.32209445002E+02  0.43484129957E+02  0.13627249430E+02  0.55803403413E+02  0.00000000000E+00 0.  1.
         14    1    6    6    0    0  0.55422124143E+02  0.33081017920E+02 -0.72497223062E+02  0.97066023628E+02  0.00000000000E+00 0. -1.
         -5    1    3    3    0  503 -0.96185709985E+02 -0.35941959120E+02 -0.34189143561E+03  0.35700890601E+03  0.47000000000E+01 0.  1.
         11    1    4    4    0    0 -0.12787494119E+02 -0.32596872460E+02 -0.21238421406E+02  0.40952980891E+02  0.00000000000E+00 0. -1.
        -12    1    4    4    0    0 -0.52473871414E+00  0.41698207088E+02 -0.71793887394E+02  0.83026369860E+02  0.00000000000E+00 0.  1.
</event>
<event>
12    1  0.8451514E-002  0.2041002E+03  0.7818608E-02  0.1147442E+00
         21   -1    0    0  503  502  0.00000000000E+00  0.00000000000E+00  0.70819768402E+03  0.70819768402E+03  0.00000000000E+00 0. -1.
         21   -1    0    0  501  503 -0.00000000000E+00 -0.00000000000E+00 -0.74406009987E+02  0.74406009987E+02  0.00000000000E+00 0. -1.
          6    2    1    2  501    0 -0.49941114517E+02  0.87863244867E+02  0.13245716152E+03  0.24331415271E+03  0.17732121293E+03 0.  0.
         24    2    3    3    0    0 -0.78746673912E+02  0.13858527299E+02  0.37178111102E+02  0.11919064196E+03  0.80194137900E+02 0.  0.
         -6    2    1    2    0  502  0.49941114517E+02 -0.87863244867E+02  0.50133451252E+03  0.53928954130E+03  0.17112232816E+03 0.  0.
        -24    2    5    5    0    0  0.81939983085E+02 -0.20981367792E+02  0.22610921462E+03  0.25421381860E+03  0.79654943391E+02 0.  0.
          5    1    3    3  501    0  0.28805559396E+02  0.74004717569E+02  0.95279050413E+02  0.12412351075E+03  0.47000000000E+01 0. -1.
        -13    1    4    4    0    0 -0.94927719539E+02  0.17340012637E+02  0.29219147171E+02  0.10082512850E+03  0.00000000000E+00 0.  1.
         14    1    4    4    0    0  0.16181045626E+02 -0.34814853387E+01  0.79589639316E+01  0.18365513458E+02  0.00000000000E+00 0. -1.
         -5    1    5    5    0  502 -0.31998868569E+02 -0.66881877075E+02  0.27522529790E+03  0.28507572270E+03  0.47000000000E+01 0.  1.
         11    1    6    6    0    0  0.54977768865E+02 -0.27012032013E+02  0.59730094658E+02  0.85556350733E+02  0.00000000000E+00 0. -1.
        -12    1    6    6    0    0  0.26962214220E+02  0.60306642209E+01  0.16637911996E+03  0.16865746786E+03  0.00000000000E+00 0.  1.
</event>
<event>
12    1  0.8451514E-002  0.1924317E+03  0.7818608E-02  0.1156979E+00
         21   -1    0    0  501  502  0.00000000000E+00  0.00000000000E+00  0.24177884521E+03  0.24177884521E+03  0.00000000000E+00 0.  1.
         21   -1    0    0  502  503 -0.00000000000E+00 -0.00000000000E+00 -0.40939844909E+03  0.40939844909E+03  0.00000000000E+00 0.  1.
         -6    2    1    2    0  503  0.83964286808E+02  0.20693100002E+02 -0.34287422924E+03  0.39318277178E+03  0.17190622183E+03 0.  0.
        -24    2    3    3    0    0  0.82039830805E+02 -0.33470069602E+02 -0.30304584511E+03  0.32576064889E+03  0.80202473355E+02 0.  0.
          6    2    1    2  501    0 -0.83964286808E+02 -0.20693100002E+02  0.17525462536E+03  0.25799452252E+03  0.16843035383E+03 0.  0.
         24    2    5    5    0    0 -0.30620237210E+02  0.30002490665E+02  0.15682270449E+03  0.18198494254E+03  0.81776587708E+02 0.  0.
          5    1    5    5  501    0 -0.53344049597E+02 -0.50695590667E+02  0.18431920871E+02  0.76009579972E+02  0.47000000000E+01 0. -1.
        -13    1    6    6    0    0 -0.53411632840E+02 -0.39863198705E+00  0.78720248204E+02  0.95130641264E+02  0.00000000000E+00 0.  1.
         14    1    6    6    0    0  0.22791395630E+02  0.30401122652E+02  0.78102456283E+02  0.86854301279E+02  0.00000000000E+00 0. -1.
         -5    1    3    3    0  503  0.19244560031E+01  0.54163169604E+02 -0.39828384131E+02  0.67422122890E+02  0.47000000000E+01 0.  1.
         13    1    4    4    0    0 -0.78454579959E+01  0.69550767332E+01 -0.94710117144E+02  0.95288669804E+02  0.00000000000E+00 0. -1.
        -14    1    4    4    0    0  0.89885288801E+02 -0.40425146335E+02 -0.20833572796E+03  0.23047197909E+03  0.00000000000E+00 0.  1.
</event>
<event>
12    1  0.8451514E-002  0.1855095E+03  0.7818608E-02  0.1166208E+00
         21   -1    0    0  501  502  0.00000000000E+00  0.00000000000E+00  0.20151516919E+04  0.20151516919E+04  0.00000000000E+00 0. -1.
         21   -1    0    0  502  503 -0.00000000000E+00 -0.00000000000E+00 -0.25048002132E+02  0.25048002132E+02  0.00000000000E+00 0. -1.
         -6    2    1    2    0  503  0.67401340427E+02  0.22958084582E+02  0.34701908196E+03  0.38667593998E+03  0.15500330635E+03 0.  0.
        -24    2    3    3    0    0  0.37670126045E+02  0.43376881824E+02  0.33311379936E+03  0.34773599554E+03  0.81577735881E+02 0.  0.
          6    2    1    2  501    0 -0.67401340427E+02 -0.22958084582E+02  0.16430846078E+04  0.16535237540E+04  0.17130021147E+03 0.  0.
         24    2    5    5    0    0 -0.96407603240E+02 -0.26515914249E+02  0.87316180352E+03  0.88303219926E+03  0.85655181611E+02 0.  0.
          5    1    5    5  501    0  0.29006262813E+02  0.35578296678E+01  0.76992280429E+03  0.77049155479E+03  0.47000000000E+01 0. -1.
        -11    1    6    6    0    0  0.22083614010E+00 -0.34159790019E+02  0.26538397768E+03  0.26757353313E+03  0.00000000000E+00 0.  1.
         12    1    6    6    0    0 -0.96628439380E+02  0.76438757700E+01  0.60777782584E+03  0.61545866613E+03  0.00000000000E+00 0. -1.
         -5    1    3    3    0  503  0.29731214382E+02 -0.20418797243E+02  0.13905282596E+02  0.38939944447E+02  0.47000000000E+01 0.  1.
         11    1    4    4    0    0  0.14814951924E+02  0.63945659647E+02  0.18072229095E+03  0.19227344235E+03  0.00000000000E+00 0. -1.
        -12    1    4    4    0    0  0.22855174121E+02 -0.20568777823E+02  0.15239150842E+03  0.15546255318E+03  0.00000000000E+00 0.  1.
</event>
<event>
12    1  0.8451514E-002  0.1750872E+03  0.7818608E-02  0.1173005E+00
         21   -1    0    0  501  502  0.00000000000E+00  0.00000000000E+00  0.33495073936E+03  0.33495073936E+03  0.00000000000E+00 0. -1.
         21   -1    0    0  502  503 -0.00000000000E+00 -0.00000000000E+00 -0.19862505355E+03  0.19862505355E+03  0.00000000000E+00 0. -1.
         -6    2    1    2    0  503 -0.94354741487E+00 -0.22849976737E+02 -0.12829781814E+03  0.21706187060E+03  0.17358719368E+03 0.  0.
        -24    2    3    3    0    0  0.48511001968E+02 -0.50222898949E+02 -0.11937709958E+03  0.15964498681E+03  0.79749438975E+02 0.  0.
          6    2    1    2  501    0  0.94354741487E+00  0.22849976737E+02  0.26462350395E+03  0.31651392231E+03  0.17214079254E+03 0.  0.
         24    2    5    5    0    0  0.82308990575E+01 -0.49281064126E+01  0.40953735314E+02  0.90959089071E+02  0.80649324339E+02 0.  0.
          5    1    5    5  501    0 -0.72873516426E+01  0.27778083150E+02  0.22366976863E+03  0.22555483324E+03  0.47000000000E+01 0. -1.
        -13    1    6    6    0    0  0.11226573041E+02  0.35955923007E+02  0.83533836105E+01  0.38582941299E+02  0.00000000000E+00 0.  1.
         14    1    6    6    0    0 -0.29956739837E+01 -0.40884029420E+02  0.32600351704E+02  0.52376147772E+02  0.00000000000E+00 0. -1.
         -5    1    3    3    0  503 -0.49454549383E+02  0.27372922212E+02 -0.89207185572E+01  0.57416883795E+02  0.47000000000E+01 0.  1.
         11    1    4    4    0    0  0.80278010966E+01 -0.62415889830E+02 -0.61697421018E+02  0.88129227014E+02  0.00000000000E+00 0. -1.
        -12    1    4    4    0    0  0.40483200872E+02  0.12192990881E+02 -0.57679678563E+02  0.71515759792E+02  0.00000000000E+00 0.  1.
</event>
<event>
12    1  0.8451514E-002  0.1806181E+03  0.7818608E-02  0.1167392E+00
         21   -1    0    0  503  502  0.00000000000E+00  0.00000000000E+00  0.23538032177E+03  0.23538032177E+03  0.00000000000E+00 0.  1.
         21   -1    0    0  501  503 -0.00000000000E+00 -0.00000000000E+00 -0.23662646590E+03  0.23662646590E+03  0.00000000000E+00 0.  1.
          6    2    1    2  501    0  0.36233767706E+02 -0.38690980968E+02 -0.15298250635E+03  0.23611103219E+03  0.17185719170E+03 0.  0.
         24    2    3    3    0    0  0.72055359578E+02 -0.45752735545E+02 -0.16179062600E+03  0.19825964128E+03  0.76455157080E+02 0.  0.
         -6    2    1    2    0  502 -0.36233767706E+02  0.38690980968E+02  0.15173636222E+03  0.23589575548E+03  0.17266443150E+03 0.  0.
        -24    2    5    5    0    0  0.82539447280E+01  0.73212242859E+02  0.51451332586E+02  0.12078688854E+03  0.80709805544E+02 0.  0.
          5    1    3    3  501    0 -0.35821591871E+02  0.70617545771E+01  0.88081196507E+01  0.37851390908E+02  0.47000000000E+01 0. -1.
        -13    1    4    4    0    0  0.60750387274E+02 -0.65073676362E+02 -0.10776598419E+03  0.13978090090E+03  0.00000000000E+00 0.  1.
         14    1    4    4    0    0  0.11304972304E+02  0.19320940816E+02 -0.54024641816E+02  0.58478740378E+02  0.00000000000E+00 0. -1.
         -5    1    5    5    0  502 -0.44487712435E+02 -0.34521261891E+02  0.10028502963E+03  0.11510886694E+03  0.47000000000E+01 0.  1.
         11    1    6    6    0    0 -0.20980973308E+02 -0.73702543499E+01  0.33415725874E+01  0.22487507588E+02  0.00000000000E+00 0. -1.
        -12    1    6    6    0    0  0.29234918036E+02  0.80582497209E+02  0.48109759998E+02  0.98299380955E+02  0.00000000000E+00 0.  1.
</event>
<event>
12    1  0.8451514E-002  0.1918280E+03  0.7818608E-02  0.1157507E+00
         21   -1    0    0  503  502  0.00000000000E+00  0.00000000000E+00  0.54249651066E+03  0.54249651066E+03  0.00000000000E+00 0. -1.
         21   -1    0    0  501  503 -0.00000000000E+00 -0.00000000000E+00 -0.82333284709E+02  0.82333284709E+02  0.00000000000E+00 0. -1.
          6    2    1    2  501    0 -0.58354316896E+02  0.54642796923E+02  0.92708800085E+02  0.21031715783E+03  0.17101848938E+03 0.  0.
         24    2    3    3    0    0 -0.93777718165E+02  0.77922111623E+02  0.73430886865E+02  0.16351468153E+03  0.80491241914E+02 0.  0.
         -6    2    1    2    0  502  0.58354316896E+02 -0.54642796923E+02  0.36745442587E+03  0.41451263753E+03  0.17437577249E+03 0.  0.
        -24    2    5    5    0    0  0.76916084207E+02 -0.95567208014E+02  0.27468189107E+03  0.31132261940E+03  0.80140232182E+02 0.  0.
          5    1    3    3  501    0  0.35423401269E+02 -0.23279314701E+02  0.19277913220E+02  0.46802476308E+02  0.47000000000E+01 0. -1.
        -13    1    4    4    0    0 -0.16725381455E+02  0.64146490549E+02  0.45512157017E+02  0.80410615412E+02  0.00000000000E+00 0.  1.
         14    1    4    4    0    0 -0.77052336710E+02  0.13775621075E+02  0.27918729848E+02  0.83104066115E+02  0.00000000000E+00 0. -1.
         -5    1    5    5    0  502 -0.18561767311E+02  0.40924411092E+02  0.92772534797E+02  0.10319001813E+03  0.47000000000E+01 0.  1.
         11    1    6    6    0    0  0.76989222425E+02 -0.37639165214E+02  0.19314288303E+03  0.21130125507E+03  0.00000000000E+00 0. -1.
        -12    1    6    6    0    0 -0.73138218614E-01 -0.57928042801E+02  0.81539008037E+02  0.10002136434E+03  0.00000000000E+00 0.  1.
</event>
<event>
12    1  0.8451514E-002  0.1977177E+03  0.7818608E-02  0.1151861E+00
         21   -1    0    0  503  502  0.00000000000E+00  0.00000000000E+00  0.31538715283E+03  0.31538715283E+03  0.00000000000E+00 0.  1.
         21   -1    0    0  501  503 -0.00000000000E+00 -0.00000000000E+00 -0.13474876866E+03  0.13474876866E+03  0.00000000000E+00 0.  1.
          6    2    1    2  501    0  0.96173578111E+02  0.16343680726E+02  0.15540246948E+03  0.25081422255E+03  0.17100109265E+03 0.  0.
         24    2    3    3    0    0  0.12300480994E+03  0.42382119903E+02  0.93821354410E+02  0.17861838438E+03  0.78585325201E+02 0.  0.
         -6    2    1    2    0  502 -0.96173578111E+02 -0.16343680726E+02  0.25235914687E+02  0.19932169894E+03  0.17197620548E+03 0.  0.
        -24    2    5    5    0    0  0.18161740402E+02 -0.93961057735E+01  0.15517477888E+02  0.84267920773E+02  0.80263034663E+02 0.  0.
          5    1    3    3  501    0 -0.26831231833E+02 -0.26038439177E+02  0.61581115065E+02  0.72195838170E+02  0.47000000000E+01 0. -1.
        -11    1    4    4    0    0  0.92068404167E+02  0.32637895135E+02  0.22458966434E+02  0.10023087557E+03  0.00000000000E+00 0.  1.
         12    1    4    4    0    0  0.30936405776E+02  0.97442247680E+01  0.71362387977E+02  0.78387508804E+02  0.00000000000E+00 0. -1.
         -5    1    5    5    0  502 -0.11433531851E+03 -0.69475749529E+01  0.97184367994E+01  0.11505377817E+03  0.47000000000E+01 0.  1.
         11    1    6    6    0    0 -0.14640611362E+02 -0.35713852239E+02  0.17024422587E+02  0.42185989466E+02  0.00000000000E+00 0. -1.
        -12    1    6    6    0    0  0.32802351764E+02  0.26317746465E+02 -0.15069446991E+01  0.42081931307E+02  0.00000000000E+00 0.  1.
</event>
<event>
12    1  0.8451514E-002  0.2401328E+03  0.7818608E-02  0.1120345E+00
         21   -1    0    0  501  502  0.00000000000E+00  0.00000000000E+00  0.18565315754E+04  0.18565315754E+04  0.00000000000E+00 0.  1.
         21   -1    0    0  502  503 -0.00000000000E+00 -0.00000000000E+00 -0.35677851811E+02  0.35677851811E+02  0.00000000000E+00 0. -1.
         -6    2    1    2    0  503  0.12596428282E+03 -0.10572769952E+03  0.12747044944E+04  0.12971257857E+04  0.17498116736E+03 0.  0.
        -24    2    3    3    0    0  0.11238668140E+03 -0.23597585986E+02  0.10077955408E+04  0.10174971278E+04  0.80379977754E+02 0.  0.
          6    2    1    2  501    0 -0.12596428282E+03  0.10572769952E+03  0.54614922921E+03  0.59508364152E+03  0.16970625457E+03 0.  0.
         24    2    5    5    0    0 -0.40239815322E+02  0.11875102666E+02  0.34938159694E+03  0.36078343799E+03  0.79604824265E+02 0.  0.
          5    1    5    5  501    0 -0.85724467495E+02  0.93852596855E+02  0.19676763227E+03  0.23430020353E+03  0.47000000000E+01 0. -1.
        -11    1    6    6    0    0 -0.31002572409E+02  0.33057538315E+02  0.93963631705E+02  0.10432221441E+03  0.00000000000E+00 0.  1.
         12    1    6    6    0    0 -0.92372429127E+01 -0.21182435649E+02  0.25541796523E+03  0.25646122358E+03  0.00000000000E+00 0. -1.
         -5    1    3    3    0  503  0.13577601419E+02 -0.82130113535E+02  0.26690895356E+03  0.27962865787E+03  0.47000000000E+01 0.  1.
         13    1    4    4    0    0  0.54378430097E+01  0.13218731908E+02  0.30558743501E+02  0.33736357453E+02  0.00000000000E+00 0. -1.
        -14    1    4    4    0    0  0.10694883839E+03 -0.36816317894E+02  0.97723679730E+03  0.98376077036E+03  0.00000000000E+00 0.  1.
</event>
<event>
12    1  0.8451514E-002  0.2885486E+03  0.7818608E-02  0.1091848E+00
         21   -1    0    0  503  502  0.00000000000E+00  0.00000000000E+00  0.68978485048E+03  0.68978485048E+03  0.00000000000E+00 0. -1.
         21   -1    0    0  501  503 -0.00000000000E+00 -0.00000000000E+00 -0.21782765610E+03  0.21782765610E+03  0.00000000000E+00 0. -1.
          6    2    1    2  501    0 -0.14580285782E+03  0.17085703292E+03 -0.69378625228E+02  0.29677208839E+03  0.18113442456E+03 0.  0.
         24    2    3    3    0    0 -0.31751764286E+01  0.10436169886E+03 -0.41945450592E+02  0.13696297093E+03  0.78089619328E+02 0.  0.
         -6    2    1    2    0  502  0.14580285782E+03 -0.17085703292E+03  0.54133581961E+03  0.61084041819E+03  0.17213642223E+03 0.  0.
        -24    2    5    5    0    0  0.65182039988E+02 -0.58979859713E+02  0.38220927136E+03  0.40022330941E+03  0.79796291239E+02 0.  0.
          5    1    3    3  501    0 -0.14262768139E+03  0.66495334059E+02 -0.27433174636E+02  0.15980911745E+03  0.47000000000E+01 0. -1.
        -11    1    4    4    0    0  0.35661757569E+02  0.39418284449E+02 -0.27783746521E+02  0.59979151982E+02  0.00000000000E+00 0.  1.
         12    1    4    4    0    0 -0.38836933998E+02  0.64943414415E+02 -0.14161704071E+02  0.76983818952E+02  0.00000000000E+00 0. -1.
         -5    1    5    5    0  502  0.80620817832E+02 -0.11187717321E+03  0.15912654825E+03  0.21061710878E+03  0.47000000000E+01 0.  1.
         11    1    6    6    0    0  0.44847441281E+02 -0.58843791551E+02  0.15130474042E+03  0.16842508503E+03  0.00000000000E+00 0. -1.
        -12    1    6    6    0    0  0.20334598707E+02 -0.13606816240E+00  0.23090453094E+03  0.23179822438E+03  0.00000000000E+00 0.  1.
</event>
<event>
12    1  0.8451514E-002  0.2219964E+03  0.7818608E-02  0.1132665E+00
         21   -1    0    0  501  502  0.00000000000E+00  0.00000000000E+00  0.54389426508E+03  0.54389426508E+03  0.00000000000E+00 0.  1.
         21   -1    0    0  502  503 -0.00000000000E+00 -0.00000000000E+00 -0.92148529559E+02  0.92148529559E+02  0.00000000000E+00 0.  1.
         -6    2    1    2    0  503 -0.31112449585E+02  0.13580825148E+03  0.17839528563E+03  0.28479341215E+03  0.17283096939E+03 0.  0.
        -24    2    3    3    0    0  0.23063218896E+02  0.11699764002E+03  0.17716789137E+03  0.22723962291E+03  0.77646794204E+02 0.  0.
          6    2    1    2  501    0  0.31112449585E+02 -0.13580825148E+03  0.27335044989E+03  0.35124938249E+03  0.17100817102E+03 0.  0.
         24    2    5    5    0    0  0.69203054166E+01 -0.33544101345E+02  0.21585557204E+03  0.23137041344E+03  0.75931171932E+02 0.  0.
          5    1    5    5  501    0  0.24192144169E+02 -0.10226415014E+03  0.57494877854E+02  0.11987896906E+03  0.47000000000E+01 0. -1.
        -11    1    6    6    0    0  0.18479928929E+02  0.36059196893E+01  0.89659455421E+01  0.20854222822E+02  0.00000000000E+00 0.  1.
         12    1    6    6    0    0 -0.11559623512E+02 -0.37150021035E+02  0.20688962650E+03  0.21051619062E+03  0.00000000000E+00 0. -1.
         -5    1    3    3    0  503 -0.54175668481E+02  0.18810611461E+02  0.12273942540E+01  0.57553789238E+02  0.47000000000E+01 0.  1.
         13    1    4    4    0    0  0.51490979417E+02  0.73011339491E+02  0.10156087096E+03  0.13526487780E+03  0.00000000000E+00 0. -1.
        -14    1    4    4    0    0 -0.28427760521E+02  0.43986300530E+02  0.75607020414E+02  0.91974745112E+02  0.00000000000E+00 0.  1.
</event>
<event>
12    1  0.8451514E-002  0.1799753E+03  0.7818608E-02  0.1168127E+00
         21   -1    0    0  501  502  0.00000000000E+00  0.00000000000E+00  0.37119351677E+03  0.37119351677E+03  0.00000000000E+00 0. -1.
         21   -1    0    0  502  503 -0.00000000000E+00 -0.00000000000E+00 -0.93833456716E+02  0.93833456716E+02  0.00000000000E+00 0. -1.
         -6    2    1    2    0  503 -0.46822692652E+02 -0.14417236595E+02  0.73972730247E+02  0.19344364387E+03  0.17189606533E+03 0.  0.
        -24    2    3    3    0    0 -0.93271899464E+02 -0.14046519316E+02  0.43730000295E+02  0.13781650158E+03  0.90466144209E+02 0.  0.
          6    2    1    2  501    0  0.46822692652E+02  0.14417236595E+02  0.20338732981E+03  0.27158332961E+03  0.17317874505E+03 0.  0.
         24    2    5    5    0    0  0.77407864322E+02 -0.14020702873E+02  0.70828270181E+02  0.13252160441E+03  0.79729381098E+02 0.  0.
          5    1    5    5  501    0 -0.30585171670E+02  0.28437939468E+02  0.13255905962E+03  0.13906172520E+03  0.47000000000E+01 0. -1.
        -13    1    6    6    0    0  0.59634110440E+00  0.21167257420E+02 -0.16026295120E+01  0.21236215076E+02  0.00000000000E+00 0.  1.
         14    1    6    6    0    0  0.76811523218E+02 -0.35187960293E+02  0.72430899693E+02  0.11128538933E+03  0.00000000000E+00 0. -1.
         -5    1    3    3    0  503  0.46449206812E+02 -0.37071727834E+00  0.30242729952E+02  0.55627142293E+02  0.47000000000E+01 0.  1.
         13    1    4    4    0    0 -0.42778974632E+02  0.28014007488E+02  0.50355656815E+02  0.71767105692E+02  0.00000000000E+00 0. -1.
        -14    1    4    4    0    0 -0.50492924832E+02 -0.42060526804E+02 -0.66256565207E+01  0.66049395890E+02  0.00000000000E+00 0.  1.
</event>
<event>
12    1  0.8451514E-002  0.2206588E+03  0.7818608E-02  0.1133600E+00
         21   -1    0    0  501  502  0.00000000000E+00  0.00000000000E+00  0.41577311044E+03  0.41577311044E+03  0.00000000000E+00 0.  1.
         21   -1    0    0  502  503 -0.00000000000E+00 -0.00000000000E+00 -0.20180241512E+03  0.20180241512E+03  0.00000000000E+00 0. -1.
         -6    2    1    2    0  503  0.11012985142E+03  0.81532709441E+02 -0.93596913492E+02  0.23968871224E+03  0.17295701685E+03 0.  0.
        -24    2    3    3    0    0  0.98069915726E+01  0.63369302755E+02 -0.37452094931E+01  0.10371075718E+03  0.81425112503E+02 0.  0.
          6    2    1    2  501    0 -0.11012985142E+03 -0.81532709441E+02  0.30756760880E+03  0.37788681332E+03  0.17153554388E+03 0.  0.
         24    2    5    5    0    0 -0.54818101131E+02 -0.11824202988E+03  0.21522971139E+03  0.26406528097E+03  0.80127661329E+02 0.  0.
          5    1    5    5  501    0 -0.55311750287E+02  0.36709320436E+02  0.92337897414E+02  0.11382153235E+03  0.47000000000E+01 0. -1.
        -11    1    6    6    0    0 -0.68889762934E+02 -0.73291250423E+02  0.11163771455E+03  0.15026771488E+03  0.00000000000E+00 0.  1.
         12    1    6    6    0    0  0.14071661803E+02 -0.44950779453E+02  0.10359199684E+03  0.11379756609E+03  0.00000000000E+00 0. -1.
         -5    1    3    3    0  503  0.10032285985E+03  0.18163406685E+02 -0.89851703999E+02  0.13597795506E+03  0.47000000000E+01 0.  1.
         11    1    4    4    0    0  0.23623110887E+01 -0.18818418461E+02 -0.90531654635E+01  0.21016022268E+02  0.00000000000E+00 0. -1.
        -12    1    4    4    0    0  0.74446804839E+01  0.82187721216E+02  0.53079559704E+01  0.82694734916E+02  0.00000000000E+00 0.  1.
</event>
<event>
12    1  0.8451514E-002  0.2144508E+03  0.7818608E-02  0.1138224E+00
         21   -1    0    0  503  502  0.00000000000E+00  0.00000000000E+00  0.41920826949E+03  0.41920826949E+03  0.00000000000E+00 0. -1.
         21   -1    0    0  501  503 -0.00000000000E+00 -0.00000000000E+00 -0.38051434425E+03  0.38051434425E+03  0.00000000000E+00 0.  1.
          6    2    1    2  501    0 -0.12168193665E+03 -0.35527480239E+02 -0.31819685307E+03  0.38371651944E+03  0.17297524224E+03 0.  0.
         24    2    3    3    0    0 -0.12625037287E+03 -0.77032996488E+02 -0.27943505980E+03  0.32654882659E+03  0.81712571261E+02 0.  0.
         -6    2    1    2    0  502  0.12168193665E+03  0.35527480239E+02  0.35689077831E+03  0.41600609430E+03  0.17210853347E+03 0.  0.
        -24    2    5    5    0    0  0.12537848281E+03  0.71604759274E+02  0.32188338632E+03  0.36538157445E+03  0.95119793181E+02 0.  0.
          5    1    3    3  501    0  0.45684362204E+01  0.41505516249E+02 -0.38761793268E+02  0.57167692852E+02  0.47000000000E+01 0. -1.
        -11    1    4    4    0    0 -0.75312680862E+02 -0.30956379587E+02 -0.22381643028E+03  0.23816820065E+03  0.00000000000E+00 0.  1.
         12    1    4    4    0    0 -0.50937692006E+02 -0.46076616901E+02 -0.55618629522E+02  0.88380625941E+02  0.00000000000E+00 0. -1.
         -5    1    5    5    0  502 -0.36965461676E+01 -0.36077279035E+02  0.35007391997E+02  0.50624519855E+02  0.47000000000E+01 0.  1.
         11    1    6    6    0    0 -0.11412478832E+02  0.25262429292E+02  0.65343417279E+02  0.70980259147E+02  0.00000000000E+00 0. -1.
        -12    1    6    6    0    0  0.13679096165E+03  0.46342329982E+02  0.25653996904E+03  0.29440131530E+03  0.00000000000E+00 0.  1.
</event>
<event>
12    1  0.8451514E-002  0.1774536E+03  0.7818608E-02  0.1170404E+00
         21   -1    0    0  501  502  0.00000000000E+00  0.00000000000E+00  0.66513748668E+02  0.66513748668E+02  0.00000000000E+00 0.  1.
         21   -1    0    0  502  503 -0.00000000000E+00 -0.00000000000E+00 -0.81960598511E+03  0.81960598511E+03  0.00000000000E+00 0. -1.
         -6    2    1    2    0  503 -0.38200039141E+02  0.20328841524E+02 -0.66471779091E+03  0.68787792227E+03  0.17162106401E+03 0.  0.
        -24    2    3    3    0    0 -0.43381954387E+02 -0.50452994457E+02 -0.44509252931E+03  0.45702241317E+03  0.79590375522E+02 0.  0.
          6    2    1    2  501    0  0.38200039141E+02 -0.20328841524E+02 -0.88374445539E+02  0.19824181151E+03  0.17209668335E+03 0.  0.
         24    2    5    5    0    0 -0.42223734508E+02 -0.36822467368E+00 -0.28229951903E+02  0.95743715393E+02  0.81160024073E+02 0.  0.
          5    1    5    5  501    0  0.80423773650E+02 -0.19960616851E+02 -0.60144493637E+02  0.10249809612E+03  0.47000000000E+01 0. -1.
        -11    1    6    6    0    0 -0.43104881573E+01  0.97335445995E+00  0.27761201621E+02  0.28110710459E+02  0.00000000000E+00 0.  1.
         12    1    6    6    0    0 -0.37913246351E+02 -0.13415791336E+01 -0.55991153524E+02  0.67633004934E+02  0.00000000000E+00 0. -1.
         -5    1    3    3    0  503  0.51819152452E+01  0.70781835982E+02 -0.21962526160E+03  0.23085550910E+03  0.47000000000E+01 0.  1.
         11    1    4    4    0    0 -0.30494066590E+02  0.12410419413E+02 -0.23654996337E+03  0.23883004790E+03  0.00000000000E+00 0. -1.
        -12    1    4    4    0    0 -0.12887887796E+02 -0.62863413870E+02 -0.20854256594E+03  0.21819236527E+03  0.00000000000E+00 0.  1.
</event>
<event>
12    1  0.8451514E-002  0.2375519E+03  0.7818608E-02  0.1121503E+00
         21   -1    0    0  503  502  0.00000000000E+00  0.00000000000E+00  0.96078154719E+02  0.96078154719E+02  0.00000000000E+00 0.  1.
         21   -1    0    0  501  503 -0.00000000000E+00 -0.00000000000E+00 -0.66331771829E+03  0.66331771829E+03  0.00000000000E+00 0. -1.
          6    2    1    2  501    0  0.13712406370E+03  0.90075062974E+02 -0.15449119006E+03  0.28336982199E+03  0.17179756224E+03 0.  0.
         24    2    3    3    0    0  0.10434682074E+03  0.12221196208E+03 -0.15527049199E+03  0.23721979217E+03  0.79625884247E+02 0.  0.
         -6    2    1    2    0  502 -0.13712406370E+03 -0.90075062974E+02 -0.41274837351E+03  0.47602605102E+03  0.17123976055E+03 0.  0.
        -24    2    5    5    0    0 -0.99161694527E+02 -0.11993209516E+03 -0.37669050674E+03  0.41557074852E+03  0.81157624693E+02 0.  0.
          5    1    3    3  501    0  0.32777242961E+02 -0.32136899110E+02  0.77930192879E+00  0.46150029816E+02  0.47000000000E+01 0. -1.
        -11    1    4    4    0    0  0.52113193490E+02  0.11023249344E+02 -0.68715674774E+02  0.86943320166E+02  0.00000000000E+00 0.  1.
         12    1    4    4    0    0  0.52233627251E+02  0.11118871274E+03 -0.86554817212E+02  0.15027647201E+03  0.00000000000E+00 0. -1.
         -5    1    5    5    0  502 -0.37962369175E+02  0.29857032182E+02 -0.36057866771E+02  0.60455302499E+02  0.47000000000E+01 0.  1.
         11    1    6    6    0    0 -0.10768467557E+03 -0.87291928071E+02 -0.33031735680E+03  0.35822538473E+03  0.00000000000E+00 0. -1.
        -12    1    6    6    0    0  0.85229810399E+01 -0.32640167084E+02 -0.46373149937E+02  0.57345363789E+02  0.00000000000E+00 0.  1.
</event>
<event>
12    1  0.8451514E-002  0.2369255E+03  0.7818608E-02  0.1122352E+00
         21   -1    0    0  501  502  0.00000000000E+00  0.00000000000E+00  0.61227015635E+03  0.61227015635E+03  0.00000000000E+00 0. -1.
         21   -1    0    0  502  503 -0.00000000000E+00 -0.00000000000E+00 -0.95168404701E+02  0.95168404701E+02  0.00000000000E+00 0. -1.
         -6    2    1    2    0  503 -0.91000674909E+02 -0.13512907668E+03  0.17922445885E+03  0.29477070057E+03  0.16801002668E+03 0.  0.
        -24    2    3    3    0    0 -0.63334608883E+02 -0.12985399527E+03  0.66223793459E+02  0.17821823139E+03  0.80640029807E+02 0.  0.
          6    2    1    2  501    0  0.91000674909E+02  0.13512907668E+03  0.33787729279E+03  0.41266786048E+03  0.17202531176E+03 0.  0.
         24    2    5    5    0    0  0.10640612194E+03  0.76494578328E+02  0.14961247913E+03  0.21482685801E+03  0.81197301132E+02 0.  0.
          5    1    5    5  501    0 -0.15405447026E+02  0.58634498354E+02  0.18826481366E+03  0.19784100247E+03  0.47000000000E+01 0. -1.
        -11    1    6    6    0    0  0.22470733169E+02  0.45906798435E+02  0.14998190750E+02  0.53266440818E+02  0.00000000000E+00 0.  1.
         12    1    6    6    0    0  0.83935388766E+02  0.30587779893E+02  0.13461428838E+03  0.16156041719E+03  0.00000000000E+00 0. -1.
         -5    1    3    3    0  503 -0.27666066026E+02 -0.52750814079E+01  0.11300066540E+03  0.11655246918E+03  0.47000000000E+01 0.  1.
         13    1    4    4    0    0 -0.45062245234E+02 -0.67967578214E+02  0.77745453290E+02  0.11267010758E+03  0.00000000000E+00 0. -1.
        -14    1    4    4    0    0 -0.18272363649E+02 -0.61886417060E+02 -0.11521659831E+02  0.65548123811E+02  0.00000000000E+00 0.  1.
</event>
<event>
12    1  0.8451514E-002  0.2514658E+03  0.7818608E-02  0.1113437E+00
         21   -1    0    0  503  502  0.00000000000E+00  0.00000000000E+00  0.61984922197E+03  0.61984922197E+03  0.00000000000E+00 0.  1.
         21   -1    0    0  501  503 -0.00000000000E+00 -0.00000000000E+00 -0.10321313761E+03  0.10321313761E+03  0.00000000000E+00 0.  1.
          6    2    1    2  501    0  0.10633245445E+03 -0.13767476811E+03  0.18500188340E+03  0.30686972034E+03  0.17228579674E+03 0.  0.
         24    2    3    3    0    0  0.12913823514E+03 -0.14840502198E+03  0.13795281610E+03  0.25328850428E+03  0.80145820894E+02 0.  0.
         -6    2    1    2    0  502 -0.10633245445E+03  0.13767476811E+03  0.33163420097E+03  0.41619263923E+03  0.18158782189E+03 0.  0.
        -24    2    5    5    0    0 -0.71687165692E+01  0.77869410476E+01  0.15830112489E+03  0.17792652794E+03  0.80539283930E+02 0.  0.
          5    1    3    3  501    0 -0.22805780695E+02  0.10730253870E+02  0.47049067292E+02  0.53581216058E+02  0.47000000000E+01 0. -1.
        -13    1    4    4    0    0  0.95389693232E+02 -0.52373943040E+02  0.87745475107E+02  0.13979088628E+03  0.00000000000E+00 0.  1.
         14    1    4    4    0    0  0.33748541911E+02 -0.96031078937E+02  0.50207340997E+02  0.11349761801E+03  0.00000000000E+00 0. -1.
         -5    1    5    5    0  502 -0.99163737879E+02  0.12988782706E+03  0.17333307608E+03  0.23826611129E+03  0.47000000000E+01 0.  1.
         11    1    6    6    0    0 -0.88535126678E+01  0.33155099611E+02  0.14544165217E+03  0.14943533552E+03  0.00000000000E+00 0. -1.
        -12    1    6    6    0    0  0.16847960986E+01 -0.25368158564E+02  0.12859472719E+02  0.28491192418E+02  0.00000000000E+00 0.  1.
</event>
<event>
12    1  0.8451514E-002  0.3340646E+03  0.7818608E-02  0.1069450E+00
         21   -1    0    0  501  502  0.00000000000E+00  0.00000000000E+00  0.16421993665E+03  0.16421993665E+03  0.00000000000E+00 0.  1.
         21   -1    0    0  502  503 -0.00000000000E+00 -0.00000000000E+00 -0.79665441006E+03  0.79665441006E+03  0.00000000000E+00 0. -1.
         -6    2    1    2    0  503  0.19760280451E+03  0.20587771891E+03 -0.13025108244E+03  0.35772651744E+03  0.17196049926E+03 0.  0.
        -24    2    3    3    0    0  0.22205215334E+03  0.18718800325E+03 -0.12507910209E+03  0.32616838837E+03  0.79965795340E+02 0.  0.
          6    2    1    2  501    0 -0.19760280451E+03 -0.20587771891E+03 -0.50218339096E+03  0.60314782927E+03  0.17368546948E+03 0.  0.
         24    2    5    5    0    0 -0.60883516033E+02 -0.82698825704E+02 -0.11545771986E+03  0.17484415399E+03  0.81817448090E+02 0.  0.
          5    1    5    5  501    0 -0.13671928848E+03 -0.12317889321E+03 -0.38672567110E+03  0.42830367528E+03  0.47000000000E+01 0. -1.
        -11    1    6    6    0    0 -0.20882217686E+02  0.13599050397E+02 -0.10974675281E+02  0.27229481903E+02  0.00000000000E+00 0.  1.
         12    1    6    6    0    0 -0.40001298347E+02 -0.96297876100E+02 -0.10448304458E+03  0.14761467209E+03  0.00000000000E+00 0. -1.
         -5    1    3    3    0  503 -0.24449348832E+02  0.18689715662E+02 -0.51719803536E+01  0.31558129073E+02  0.47000000000E+01 0.  1.
         13    1    4    4    0    0  0.71683784503E+02  0.20920704842E+02 -0.49512222940E+02  0.89597438983E+02  0.00000000000E+00 0. -1.
        -14    1    4    4    0    0  0.15036836884E+03  0.16626729841E+03 -0.75566879151E+02  0.23657094938E+03  0.00000000000E+00 0.  1.
</event>
<event>
12    1  0.8451514E-002  0.1939960E+03  0.7818608E-02  0.1155144E+00
         21   -1    0    0  503  502  0.00000000000E+00  0.00000000000E+00  0.77031687586E+02  0.77031687586E+02  0.00000000000E+00 0.  1.
         21   -1    0    0  501  503 -0.00000000000E+00 -0.00000000000E+00 -0.64175362152E+03  0.64175362152E+03  0.00000000000E+00 0. -1.
          6    2    1    2  501    0 -0.54134350434E+02 -0.72141906451E+02 -0.45890976746E+03  0.49780866705E+03  0.17052950404E+03 0.  0.
         24    2    3    3    0    0 -0.22531279366E+02 -0.46547692708E+01 -0.10103368856E+03  0.13222605581E+03  0.82137678226E+02 0.  0.
         -6    2    1    2    0  502  0.54134350434E+02  0.72141906451E+02 -0.10581216647E+03  0.22097664206E+03  0.17175412426E+03 0.  0.
        -24    2    5    5    0    0  0.49372114609E+02  0.34035811798E+02 -0.13882152396E+03  0.17011938081E+03  0.77930392184E+02 0.  0.
          5    1    3    3  501    0 -0.31603071068E+02 -0.67487137181E+02 -0.35787607891E+03  0.36558261124E+03  0.47000000000E+01 0. -1.
        -13    1    4    4    0    0 -0.51492179302E+02 -0.38094067451E+01 -0.42348528676E+02  0.66778394635E+02  0.00000000000E+00 0.  1.
         14    1    4    4    0    0  0.28960899935E+02 -0.84536252564E+00 -0.58685159882E+02  0.65447661174E+02  0.00000000000E+00 0. -1.
         -5    1    5    5    0  502  0.47622358254E+01  0.38106094653E+02  0.33009357493E+02  0.50857261250E+02  0.47000000000E+01 0.  1.
         11    1    6    6    0    0 -0.49921743706E+01 -0.20602396445E+02 -0.27611972382E+02  0.34810940278E+02  0.00000000000E+00 0. -1.
        -12    1    6    6    0    0  0.54364288980E+02  0.54638208243E+02 -0.11120955158E+03  0.13530844053E+03  0.00000000000E+00 0.  1.
</event>
<event>
12    1  0.8451514E-002  0.1835235E+03  0.7818608E-02  0.1165564E+00
         21   -1    0    0  501  502  0.00000000000E+00  0.00000000000E+00  0.32567148466E+03  0.32567148466E+03  0.00000000000E+00 0. -1.
         21   -1    0    0  502  503 -0.00000000000E+00 -0.00000000000E+00 -0.20669530898E+03  0.20669530898E+03  0.00000000000E+00 0. -1.
         -6    2    1    2    0  503 -0.38918348723E+02  0.29527685895E+02 -0.13142465242E+03  0.22191318062E+03  0.17200726254E+03 0.  0.
        -24    2    3    3    0    0 -0.74688546085E+02 -0.23619361649E+02 -0.57611732708E+02  0.12406353678E+03  0.77048012646E+02 0.  0.
          6    2    1    2  501    0  0.38918348723E+02 -0.29527685895E+02  0.25040082810E+03  0.31045361302E+03  0.17690208880E+03 0.  0.
         24    2    5    5    0    0  0.45546743142E+02 -0.35782471001E+02  0.51050063153E+02  0.11083929631E+03  0.79525779574E+02 0.  0.
          5    1    5    5  501    0 -0.66283944192E+01  0.62547851061E+01  0.19935076495E+03  0.19961431671E+03  0.47000000000E+01 0. -1.
        -11    1    6    6    0    0  0.13431391209E+01  0.19439116142E+02 -0.55351200514E+01  0.20256377096E+02  0.00000000000E+00 0.  1.
         12    1    6    6    0    0  0.44203604021E+02 -0.55221587143E+02  0.56585183204E+02  0.90582919214E+02  0.00000000000E+00 0. -1.
         -5    1    3    3    0  503  0.35770197362E+02  0.53147047544E+02 -0.73812919714E+02  0.97849643835E+02  0.47000000000E+01 0.  1.
         13    1    4    4    0    0  0.59139635376E+01 -0.20451172507E+02 -0.33821069142E+02  0.39963610192E+02  0.00000000000E+00 0. -1.
        -14    1    4    4    0    0 -0.80602509622E+02 -0.31681891419E+01 -0.23790663566E+02  0.84099926592E+02  0.00000000000E+00 0.  1.
</event>
<event>
12    1  0.8451514E-002  0.2853337E+03  0.7818608E-02  0.1092954E+00
         21   -1    0    0  501  502  0.00000000000E+00  0.00000000000E+00  0.12890577708E+04  0.12890577708E+04  0.00000000000E+00 0. -1.
         21   -1    0    0  502  503 -0.00000000000E+00 -0.00000000000E+00 -0.64027221471E+02  0.64027221471E+02  0.00000000000E+00 0. -1.
         -6    2    1    2    0  503  0.22827107855E+02  0.22535887551E+03  0.52474593185E+03  0.59730527394E+03  0.17351541044E+03 0.  0.
        -24    2    3    3    0    0  0.62759988529E+02  0.20919557356E+03  0.37879355781E+03  0.44505524019E+03  0.82993995111E+02 0.  0.
          6    2    1    2  501    0 -0.22827107855E+02 -0.22535887551E+03  0.70028461751E+03  0.75577971837E+03  0.17174614273E+03 0.  0.
         24    2    5    5    0    0 -0.13154849580E+02 -0.21350972739E+03  0.70352720931E+03  0.73945307472E+03  0.77979880147E+02 0.  0.
          5    1    5    5  501    0 -0.96722582748E+01 -0.11849148118E+02 -0.32425917985E+01  0.16326643648E+02  0.47000000000E+01 0. -1.
        -13    1    6    6    0    0  0.36180208136E+00  0.57243388120E+01  0.42558339457E+02  0.42943116014E+02  0.00000000000E+00 0.  1.
         14    1    6    6    0    0 -0.13516651661E+02 -0.21923406620E+03  0.66096886986E+03  0.69650995870E+03  0.00000000000E+00 0. -1.
         -5    1    3    3    0  503 -0.39932880674E+02  0.16163301943E+02  0.14595237404E+03  0.15225003375E+03  0.47000000000E+01 0.  1.
         11    1    4    4    0    0  0.19153976198E+02  0.69692931544E+01  0.11224899954E+02  0.23268954215E+02  0.00000000000E+00 0. -1.
        -12    1    4    4    0    0  0.43606012331E+02  0.20222628041E+03  0.36756865785E+03  0.42178628597E+03  0.00000000000E+00 0.  1.
</event>
<event>
12    1  0.8451514E-002  0.2343625E+03  0.7818608E-02  0.1123666E+00
         21   -1    0    0  501  502  0.00000000000E+00  0.00000000000E+00  0.51563240437E+03  0.51563240437E+03  0.00000000000E+00 0.  1.
         21   -1    0    0  502  503 -0.00000000000E+00 -0.00000000000E+00 -0.21206752868E+03  0.21206752868E+03  0.00000000000E+00 0.  1.
         -6    2    1    2    0  503 -0.14390761635E+03 -0.64741630604E+02 -0.10515610823E+03  0.25655384196E+03  0.17280389448E+03 0.  0.
        -24    2    3    3    0    0 -0.10675473614E+03 -0.39573303446E+02 -0.13718406039E+03  0.20122156458E+03  0.93316834474E+02 0.  0.
          6    2    1    2  501    0  0.14390761635E+03  0.64741630604E+02  0.40872098392E+03  0.47114609110E+03  0.17327699119E+03 0.  0.
         24    2    5    5    0    0  0.16428874322E+03  0.87952568499E+02  0.36319898219E+03  0.41593304362E+03  0.79751806580E+02 0.  0.
          5    1    5    5  501    0 -0.20381126865E+02 -0.23210937895E+02  0.45522001730E+02  0.55213047478E+02  0.47000000000E+01 0. -1.
        -11    1    6    6    0    0  0.46763536318E+02  0.69443972700E+02  0.15122983850E+03  0.17285762270E+03  0.00000000000E+00 0.  1.
         12    1    6    6    0    0  0.11752520690E+03  0.18508595799E+02  0.21196914370E+03  0.24307542092E+03  0.00000000000E+00 0. -1.
         -5    1    3    3    0  503 -0.37152880216E+02 -0.25168327157E+02  0.32027952153E+02  0.55332277374E+02  0.47000000000E+01 0.  1.
         11    1    4    4    0    0 -0.60957641001E+02 -0.66307334416E+02 -0.10822037465E+03  0.14079824602E+03  0.00000000000E+00 0. -1.
        -12    1    4    4    0    0 -0.45797095135E+02  0.26734030970E+02 -0.28963685742E+02  0.60423318565E+02  0.00000000000E+00 0.  1.
</event>
<event>
12    1  0.8451514E-002  0.1736695E+03  0.7818608E-02  0.1174154E+00
         21   -1    0    0  503  502  0.00000000000E+00  0.00000000000E+00  0.55277251255E+02  0.55277251255E+02  0.00000000000E+00 0. -1.
         21   -1    0    0  501  503 -0.00000000000E+00 -0.00000000000E+00 -0.10790294014E+04  0.10790294014E+04  0.00000000000E+00 0. -1.
          6    2    1    2  501    0  0.78202571291E+01 -0.23476342811E+02 -0.91123330299E+03  0.92763527883E+03  0.17189759436E+03 0.  0.
         24    2    3    3    0    0  0.43840861764E+02  0.34277462907E+02 -0.36802737494E+03  0.38016130108E+03  0.77340161064E+02 0.  0.
         -6    2    1    2    0  502 -0.78202571291E+01  0.23476342811E+02 -0.11251884710E+03  0.20667137378E+03  0.17158167353E+03 0.  0.
        -24    2    5    5    0    0 -0.19614428946E+02 -0.50475453597E+02 -0.46546696255E+02  0.10675948576E+03  0.79363062113E+02 0.  0.
          5    1    3    3  501    0 -0.36020604634E+02 -0.57753805718E+02 -0.54320592805E+03  0.54747397774E+03  0.47000000000E+01 0. -1.
        -11    1    4    4    0    0  0.59535610335E+02  0.44744993421E+02 -0.32021552810E+03  0.32876220551E+03  0.00000000000E+00 0.  1.
         12    1    4    4    0    0 -0.15694748572E+02 -0.10467530514E+02 -0.47811846839E+02  0.51399095576E+02  0.00000000000E+00 0. -1.
         -5    1    5    5    0  502  0.11794171817E+02  0.73951796408E+02 -0.65972150849E+02  0.99911888024E+02  0.47000000000E+01 0.  1.
         11    1    6    6    0    0  0.21814524428E+02 -0.11835223813E+02  0.99618929443E+01  0.26742948786E+02  0.00000000000E+00 0. -1.
        -12    1    6    6    0    0 -0.41428953374E+02 -0.38640229784E+02 -0.56508589199E+02  0.80016536970E+02  0.00000000000E+00 0.  1.
</event>
<event>
12    1  0.8451514E-002  0.2384584E+03  0.7818608E-02  0.1121506E+00
         21   -1    0    0  501  502  0.00000000000E+00  0.00000000000E+00  0.11400530141E+04  0.11400530141E+04  0.00000000000E+00 0.  1.
         21   -1    0    0  502  503 -0.00000000000E+00 -0.00000000000E+00 -0.53363373728E+02  0.53363373728E+02  0.00000000000E+00 0.  1.
         -6    2    1    2    0  503 -0.69363429461E+02 -0.13823910730E+03  0.37772761100E+03  0.44669961875E+03  0.18149673590E+03 0.  0.
        -24    2    3    3    0    0  0.28945923713E+02 -0.24176472171E+02  0.12450818862E+03  0.15205206738E+03  0.78709426726E+02 0.  0.
          6    2    1    2  501    0  0.69363429461E+02  0.13823910730E+03  0.70896202941E+03  0.74671676912E+03  0.17617445332E+03 0.  0.
         24    2    5    5    0    0  0.10669895530E+03  0.92980708204E+02  0.39939912978E+03  0.43160798948E+03  0.82071386928E+02 0.  0.
          5    1    5    5  501    0 -0.37335525841E+02  0.45258399101E+02  0.30956289963E+03  0.31510877964E+03  0.47000000000E+01 0. -1.
        -13    1    6    6    0    0  0.41636381379E+02  0.41607618291E+02  0.28083043486E+03  0.28693294565E+03  0.00000000000E+00 0.  1.
         14    1    6    6    0    0  0.65062573923E+02  0.51373089913E+02  0.11856869492E+03  0.14467504383E+03  0.00000000000E+00 0. -1.
         -5    1    3    3    0  503 -0.98309353175E+02 -0.11406263513E+03  0.25321942238E+03  0.29464755137E+03  0.47000000000E+01 0.  1.
         13    1    4    4    0    0  0.28918331950E+02 -0.17567312143E+02  0.13526186121E+03  0.13942973671E+03  0.00000000000E+00 0. -1.
        -14    1    4    4    0    0  0.27591763275E-01 -0.66091600278E+01 -0.10753672591E+02  0.12622330679E+02  0.00000000000E+00 0.  1.
</event>
<event>
12    1  0.8451514E-002  0.2341710E+03  0.7818608E-02  0.1123838E+00
         21   -1    0    0  503  502  0.00000000000E+00  0.00000000000E+00  0.26213659105E+04  0.26213659105E+04  0.00000000000E+00 0. -1.
         21   -1    0    0  501  503 -0.00000000000E+00 -0.00000000000E+00 -0.27605186152E+02  0.27605186152E+02  0.00000000000E+00 0. -1.
          6    2    1    2  501    0  0.86934854524E+02 -0.13196773430E+03  0.64372532886E+03  0.68499515919E+03  0.17280890393E+03 0.  0.
         24    2    3    3    0    0  0.88273545570E+02 -0.15186136508E+02  0.31633812619E+03  0.33736862950E+03  0.75663362992E+02 0.  0.
         -6    2    1    2    0  502 -0.86934854524E+02  0.13196773430E+03  0.19500353955E+04  0.19639759375E+04  0.17201827642E+03 0.  0.
        -24    2    5    5    0    0 -0.13385584849E+02  0.10936177209E+03  0.80248344666E+03  0.81383764584E+03  0.78821700918E+02 0.  0.
          5    1    3    3  501    0 -0.13386910462E+01 -0.11678159779E+03  0.32738720267E+03  0.34762652969E+03  0.47000000000E+01 0. -1.
        -11    1    4    4    0    0  0.85764458522E+02 -0.36699882319E+02  0.22654516761E+03  0.24500027893E+03  0.00000000000E+00 0.  1.
         12    1    4    4    0    0  0.25090870485E+01  0.21513745810E+02  0.89792958577E+02  0.92368350568E+02  0.00000000000E+00 0. -1.
         -5    1    5    5    0  502 -0.73549269676E+02  0.22605962205E+02  0.11475519488E+04  0.11501382916E+04  0.47000000000E+01 0.  1.
         11    1    6    6    0    0  0.10820384365E+02  0.90014662385E+02  0.72070313152E+03  0.72638331750E+03  0.00000000000E+00 0. -1.
        -12    1    6    6    0    0 -0.24205969214E+02  0.19347109709E+02  0.81780315146E+02  0.87454328338E+02  0.00000000000E+00 0.  1.
</event>
<event>
12    1  0.8451514E-002  0.1767794E+03  0.7818608E-02  0.1171353E+00
         21   -1    0    0  501  502  0.00000000000E+00  0.00000000000E+00  0.24692181845E+03  0.24692181845E+03  0.00000000000E+00 0.  1.
         21   -1    0    0  502  503 -0.00000000000E+00 -0.00000000000E+00 -0.14497935714E+03  0.14497935714E+03  0.00000000000E+00 0.  1.
         -6    2    1    2    0  503  0.14866559326E+02 -0.35980392999E+02 -0.20791620223E+02  0.17799788589E+03  0.17243941732E+03 0.  0.
        -24    2    3    3    0    0 -0.41378548103E+02 -0.44084097125E+02  0.26650214735E+02  0.10382241937E+03  0.80082888031E+02 0.  0.
          6    2    1    2  501    0 -0.14866559326E+02  0.35980392999E+02  0.12273408153E+03  0.21390328970E+03  0.17080796032E+03 0.  0.
         24    2    5    5    0    0 -0.34470371277E+02 -0.22980285167E+02  0.12181667361E+03  0.15158473187E+03  0.80139434517E+02 0.  0.
          5    1    5    5  501    0  0.19603811951E+02  0.58960678165E+02  0.91740792180E+00  0.62318557830E+02  0.47000000000E+01 0. -1.
        -13    1    6    6    0    0 -0.12567109525E+02  0.24331988739E+02  0.11760943883E+02  0.29804323828E+02  0.00000000000E+00 0.  1.
         14    1    6    6    0    0 -0.21903261753E+02 -0.47312273906E+02  0.11005572973E+03  0.12178040804E+03  0.00000000000E+00 0. -1.
         -5    1    3    3    0  503  0.56245107430E+02  0.81037041263E+01 -0.47441834958E+02  0.74175466528E+02  0.47000000000E+01 0.  1.
         11    1    4    4    0    0  0.12767570177E+02  0.10571228598E+02  0.20896398308E+02  0.26672479910E+02  0.00000000000E+00 0. -1.
        -12    1    4    4    0    0 -0.54146118281E+02 -0.54655325723E+02  0.57538164275E+01  0.77149939457E+02  0.00000000000E+00 0.  1.
</event>
<event>
12    1  0.8451514E-002  0.1830174E+03  0.7818608E-02  0.1166018E+00
         21   -1    0    0  503  502  0.00000000000E+00  0.00000000000E+00  0.15361405860E+04  0.15361405860E+04  0.00000000000E+00 0. -1.
         21   -1    0    0  501  503 -0.00000000000E+00 -0.00000000000E+00 -0.11753219767E+03  0.11753219767E+03  0.00000000000E+00 0. -1.
          6    2    1    2  501    0  0.39546678053E+02  0.31468678252E+02 -0.40641571847E+02  0.18299068905E+03  0.17111293774E+03 0.  0.
         24    2    3    3    0    0  0.44384818742E+02 -0.15147399753E+02  0.31494536885E+02  0.96838646032E+02  0.78653427501E+02 0.  0.
         -6    2    1    2    0  502 -0.39546678053E+02 -0.31468678252E+02  0.14592499602E+04  0.14706820946E+04  0.17590099400E+03 0.  0.
        -24    2    5    5    0    0 -0.22142955846E+02  0.52900702490E+02  0.77964187423E+03  0.78561981830E+03  0.77898986042E+02 0.  0.
          5    1    3    3  501    0 -0.48381406899E+01  0.46616078005E+02 -0.72136108732E+02  0.86152043022E+02  0.47000000000E+01 0. -1.
        -11    1    4    4    0    0 -0.21426338480E+02  0.34122000215E+01  0.15359032509E+02  0.26582531280E+02  0.00000000000E+00 0.  1.
         12    1    4    4    0    0  0.65811157222E+02 -0.18559599774E+02  0.16135504376E+02  0.70256114753E+02  0.00000000000E+00 0. -1.
         -5    1    5    5    0  502 -0.17403722207E+02 -0.84369380742E+02  0.67960808594E+03  0.68506227632E+03  0.47000000000E+01 0.  1.
         11    1    6    6    0    0 -0.51187738192E+02  0.29261024914E+02  0.50743658996E+03  0.51085055050E+03  0.00000000000E+00 0. -1.
        -12    1    6    6    0    0  0.29044782346E+02  0.23639677577E+02  0.27220528428E+03  0.27476926780E+03  0.00000000000E+00 0.  1.
</event>
<event>
12    1  0.8451514E-002  0.2085040E+03  0.7818608E-02  0.1142888E+00
         21   -1    0    0  503  502  0.00000000000E+00  0.00000000000E+00  0.42824335269E+03  0.42824335269E+03  0.00000000000E+00 0.  1.
         21   -1    0    0  501  503 -0.00000000000E+00 -0.00000000000E+00 -0.15683078816E+03  0.15683078816E+03  0.00000000000E+00 0.  1.
          6    2    1    2  501    0  0.78148735678E+02 -0.89333311675E+02 -0.38390331343E+02  0.21200879346E+03  0.17142416837E+03 0.  0.
         24    2    3    3    0    0  0.57797421887E+02 -0.32293641976E+02  0.39994330510E+02  0.11284254362E+03  0.82161255406E+02 0.  0.
         -6    2    1    2    0  502 -0.78148735678E+02  0.89333311675E+02  0.30980289587E+03  0.37306534739E+03  0.17062313346E+03 0.  0.
        -24    2    5    5    0    0  0.23146124320E+02  0.24229133081E+02  0.16355969058E+03  0.18357031361E+03  0.76311818858E+02 0.  0.
          5    1    3    3  501    0  0.20351313791E+02 -0.57039669700E+02 -0.78384661852E+02  0.99166249834E+02  0.47000000000E+01 0. -1.
        -13    1    4    4    0    0  0.39882953891E+02  0.93709986190E+00  0.58492763156E+02  0.70802058648E+02  0.00000000000E+00 0.  1.
         14    1    4    4    0    0  0.17914467996E+02 -0.33230741838E+02 -0.18498432646E+02  0.42040484976E+02  0.00000000000E+00 0. -1.
         -5    1    5    5    0  502 -0.10129486000E+03  0.65104178594E+02  0.14624320529E+03  0.18949503378E+03  0.47000000000E+01 0.  1.
         13    1    6    6    0    0 -0.17932542261E+02 -0.12914317876E+02  0.82426659676E+02  0.85337623024E+02  0.00000000000E+00 0. -1.
        -14    1    6    6    0    0  0.41078666580E+02  0.37143450957E+02  0.81133030900E+02  0.98232690588E+02  0.00000000000E+00 0.  1.
</event>
<event>
12    1  0.8451514E-002  0.1736012E+03  0.7818608E-02  0.1174252E+00
         21   -1    0    0  501  502  0.00000000000E+00  0.00000000000E+00  0.11474642745E+03  0.11474642745E+03  0.00000000000E+00 0.  1.
         21   -1    0    0  502  503 -0.00000000000E+00 -0.00000000000E+00 -0.35091460450E+03  0.35091460450E+03  0.00000000000E+00 0.  1.
         -6    2    1    2    0  503  0.24021488996E+02  0.35332458893E+00 -0.23539317438E+03  0.29248472508E+03  0.17193083229E+03 0.  0.
        -24    2    3    3    0    0 -0.68105364119E+01  0.52085415904E+02 -0.20263688601E+03  0.22376873356E+03  0.79066203865E+02 0.  0.
          6    2    1    2  501    0 -0.24021488996E+02 -0.35332458893E+00 -0.77500267082E+00  0.17317630686E+03  0.17150007539E+03 0.  0.
         24    2    5    5    0    0  0.34630771831E+02  0.36781901101E+01 -0.47669094297E+02  0.97827208393E+02  0.78006414549E+02 0.  0.
          5    1    5    5  501    0 -0.58652260828E+02 -0.40315146990E+01  0.46894091626E+02  0.75349098471E+02  0.47000000000E+01 0. -1.
        -11    1    6    6    0    0 -0.99907039742E+01 -0.25121895941E+02 -0.33136369622E+02  0.42766140968E+02  0.00000000000E+00 0.  1.
         12    1    6    6    0    0  0.44621475806E+02  0.28800086051E+02 -0.14532724675E+02  0.55061067426E+02  0.00000000000E+00 0. -1.
         -5    1    3    3    0  503  0.30832025408E+02 -0.51732091315E+02 -0.32756288370E+02  0.68715991518E+02  0.47000000000E+01 0.  1.
         11    1    4    4    0    0  0.13353340884E+01 -0.21171263629E+02 -0.46078053634E+02  0.50726645340E+02  0.00000000000E+00 0. -1.
        -12    1    4    4    0    0 -0.81458705003E+01  0.73256679533E+02 -0.15655883237E+03  0.17304208822E+03  0.00000000000E+00 0.  1.
</event>
<event>
12    1  0.8451514E-002  0.1879689E+03  0.7818608E-02  0.1160518E+00
         21   -1    0    0  501  502  0.00000000000E+00  0.00000000000E+00  0.49720885601E+03  0.49720885601E+03  0.00000000000E+00 0.  1.
         21   -1    0    0  502  503 -0.00000000000E+00 -0.00000000000E+00 -0.13436825589E+03  0.13436825589E+03  0.00000000000E+00 0.  1.
         -6    2    1    2    0  503 -0.69393014452E+02 -0.20672981280E+02 -0.35698340018E+02  0.19132874302E+03  0.17346340772E+03 0.  0.
        -24    2    3    3    0    0 -0.88158785143E+02  0.30313009325E+02  0.75031730168E+01  0.12175729690E+03  0.77959552400E+02 0.  0.
          6    2    1    2  501    0  0.69393014452E+02  0.20672981280E+02  0.39853894014E+03  0.44024836887E+03  0.17246036320E+03 0.  0.
         24    2    5    5    0    0  0.99676320569E+02 -0.71823709233E+01  0.36545837358E+03  0.38724447128E+03  0.80071857624E+02 0.  0.
          5    1    5    5  501    0 -0.30283306117E+02  0.27855352204E+02  0.33080566561E+02  0.53003897590E+02  0.47000000000E+01 0. -1.
        -11    1    6    6    0    0  0.75967375125E+02 -0.17999191252E+02  0.34606083416E+03  0.35475782431E+03  0.00000000000E+00 0.  1.
         12    1    6    6    0    0  0.23708945443E+02  0.10816820328E+02  0.19397539427E+02  0.32486646978E+02  0.00000000000E+00 0. -1.
         -5    1    3    3    0  503  0.18765770691E+02 -0.50985990605E+02 -0.43201513035E+02  0.69571446127E+02  0.47000000000E+01 0.  1.
         11    1    4    4    0    0 -0.50989045385E+02 -0.99140182358E+01 -0.25443906409E+02  0.57840840936E+02  0.00000000000E+00 0. -1.
        -12    1    4    4    0    0 -0.37169739758E+02  0.40227027561E+02  0.32947079426E+02  0.63916455962E+02  0.00000000000E+00 0.  1.
</event>
<event>
12    1  0.8451514E-002  0.1924558E+03  0.7818608E-02  0.1156667E+00
         21   -1    0    0  503  502  0.00000000000E+00  0.00000000000E+00  0.21049303297E+04  0.21049303297E+04  0.00000000000E+00 0.  1.
         21   -1    0    0  501  503 -0.00000000000E+00 -0.00000000000E+00 -0.17705257440E+02  0.17705257440E+02  0.00000000000E+00 0.  1.
          6    2    1    2  501    0  0.37031571593E+02  0.74717160903E+02  0.90692937506E+03  0.92675215734E+03  0.17144876305E+03 0.  0.
         24    2    3    3    0    0  0.28375377415E+02  0.10803559100E+03  0.50837819541E+03  0.52668943691E+03  0.80476843922E+02 0.  0.
         -6    2    1    2    0  502 -0.37031571593E+02 -0.74717160903E+02  0.11802956972E+04  0.11958834298E+04  0.17345101159E+03 0.  0.
        -24    2    5    5    0    0 -0.85265299617E+01  0.15447208689E+02  0.79714102399E+03  0.80120413652E+03  0.78631662083E+02 0.  0.
          5    1    3    3  501    0  0.86561941783E+01 -0.33318430101E+02  0.39855117964E+03  0.40006272043E+03  0.47000000000E+01 0. -1.
        -11    1    4    4    0    0 -0.18953313076E+02  0.79335698292E+02  0.32932282400E+03  0.33927408316E+03  0.00000000000E+00 0.  1.
         12    1    4    4    0    0  0.47328690491E+02  0.28699892711E+02  0.17905537142E+03  0.18741535374E+03  0.00000000000E+00 0. -1.
         -5    1    5    5    0  502 -0.28505041631E+02 -0.90164369592E+02  0.38315467321E+03  0.39467929328E+03  0.47000000000E+01 0.  1.
         11    1    6    6    0    0 -0.14905209818E+02  0.43081013827E+02  0.32119320096E+03  0.32441210116E+03  0.00000000000E+00 0. -1.
        -12    1    6    6    0    0  0.63786798565E+01 -0.27633805138E+02  0.47594782303E+03  0.47679203537E+03  0.00000000000E+00 0.  1.
</event>
<event>
12    1  0.8451514E-002  0.1751214E+03  0.7818608E-02  0.1172649E+00
         21   -1    0    0  503  502  0.00000000000E+00  0.00000000000E+00  0.17565934562E+04  0.17565934562E+04  0.00000000000E+00 0. -1.
         21   -1    0    0  501  503 -0.00000000000E+00 -0.00000000000E+00 -0.30621827813E+02  0.30621827813E+02  0.00000000000E+00 0. -1.
          6    2    1    2  501    0 -0.32940515412E+02  0.95729683994E+00  0.27697246003E+03  0.32769076911E+03  0.17199273988E+03 0.  0.
         24    2    3    3    0    0 -0.49634731351E+02  0.62968350137E+02  0.16696554654E+03  0.20022438690E+03  0.76050586480E+02 0.  0.
         -6    2    1    2    0  502  0.32940515412E+02 -0.95729683994E+00  0.14489991683E+04  0.14595245149E+04  0.17183487928E+03 0.  0.
        -24    2    5    5    0    0  0.21785368590E+02  0.65057072563E+02  0.77281319312E+03  0.78001594441E+03  0.80483644915E+02 0.  0.
          5    1    3    3  501    0  0.16694215939E+02 -0.62011053297E+02  0.11000691350E+03  0.12746638221E+03  0.47000000000E+01 0. -1.
        -11    1    4    4    0    0 -0.11091794880E+01  0.22535903811E+02  0.93194774323E+00  0.22582421622E+02  0.00000000000E+00 0.  1.
         12    1    4    4    0    0 -0.48525551863E+02  0.40432446326E+02  0.16603359879E+03  0.17764196528E+03  0.00000000000E+00 0. -1.
         -5    1    5    5    0  502  0.11155146821E+02 -0.66014369403E+02  0.67618597522E+03  0.67950857048E+03  0.47000000000E+01 0.  1.
         13    1    6    6    0    0  0.50050922392E+02  0.43369733574E+02  0.39359377947E+03  0.39912666142E+03  0.00000000000E+00 0. -1.
        -14    1    6    6    0    0 -0.28265553802E+02  0.21687338989E+02  0.37921941365E+03  0.38088928298E+03  0.00000000000E+00 0.  1.
</event>
<event>
12    1  0.8451514E-002  0.1853254E+03  0.7818608E-02  0.1163324E+00
         21   -1    0    0  501  502  0.00000000000E+00  0.00000000000E+00  0.13842739333E+02  0.13842739333E+02  0.00000000000E+00 0. -1.
         21   -1    0    0  502  503 -0.00000000000E+00 -0.00000000000E+00 -0.28052623309E+04  0.28052623309E+04  0.00000000000E+00 0. -1.
         -6    2    1    2    0  503 -0.30866215243E+02 -0.62741183861E+02 -0.90101852150E+03  0.91988036048E+03  0.17162844206E+03 0.  0.
        -24    2    3    3    0    0 -0.19523631428E+02  0.29691989441E+02 -0.22147831808E+03  0.23397255050E+03  0.66541134548E+02 0.  0.
          6    2    1    2  501    0  0.30866215243E+02  0.62741183861E+02 -0.18904010700E+04  0.18992247097E+04  0.16896482773E+03 0.  0.
         24    2    5    5    0    0 -0.36961065273E+02  0.69045829590E+02 -0.10209248956E+04  0.10270715142E+04  0.80341806641E+02 0.  0.
          5    1    5    5  501    0  0.67827280516E+02 -0.63046457282E+01 -0.86947617441E+03  0.87215319549E+03  0.47000000000E+01 0. -1.
        -13    1    6    6    0    0 -0.11624421912E+02  0.41512303169E+02 -0.17191816361E+03  0.17724066542E+03  0.00000000000E+00 0.  1.
         14    1    6    6    0    0 -0.25336643361E+02  0.27533526420E+02 -0.84900673202E+03  0.84983084881E+03  0.00000000000E+00 0. -1.
         -5    1    3    3    0  503 -0.11342583815E+02 -0.92433173302E+02 -0.67954020342E+03  0.68590780999E+03  0.47000000000E+01 0.  1.
         13    1    4    4    0    0  0.24535595402E+02  0.76333126531E+01 -0.63994141145E+02  0.68960227701E+02  0.00000000000E+00 0. -1.
        -14    1    4    4    0    0 -0.44059226830E+02  0.22058676788E+02 -0.15748417693E+03  0.16501232279E+03  0.00000000000E+00 0.  1.
</event>
<event>
12    1  0.8451514E-002  0.1912066E+03  0.7818608E-02  0.1158409E+00
         21   -1    0    0  501  502  0.00000000000E+00  0.00000000000E+00  0.43375171811E+02  0.43375171811E+02  0.00000000000E+00 0.  1.
         21   -1    0    0  502  503 -0.00000000000E+00 -0.00000000000E+00 -0.10395123560E+04  0.10395123560E+04  0.00000000000E+00 0.  1.
         -6    2    1    2    0  503 -0.45182544524E+02  0.58713191155E+02 -0.74994657143E+03  0.77393787814E+03  0.17627046852E+03 0.  0.
        -24    2    3    3    0    0  0.27236992127E+02  0.81648053102E+02 -0.39959012996E+03  0.41540988305E+03  0.74059710103E+02 0.  0.
          6    2    1    2  501    0  0.45182544524E+02 -0.58713191155E+02 -0.24619061274E+03  0.30894964966E+03  0.17132240681E+03 0.  0.
         24    2    5    5    0    0  0.19071750202E+02 -0.70294593713E+02 -0.25643018293E+03  0.27824392929E+03  0.79738221137E+02 0.  0.
          5    1    5    5  501    0  0.26110794322E+02  0.11581402558E+02  0.10239570188E+02  0.30705720362E+02  0.47000000000E+01 0. -1.
        -11    1    6    6    0    0  0.47083427595E+01 -0.43886683556E+01  0.50641410256E+01  0.81898977895E+01  0.00000000000E+00 0.  1.
         12    1    6    6    0    0  0.14363407443E+02 -0.65905925357E+02 -0.26149432396E+03  0.27005403150E+03  0.00000000000E+00 0. -1.
         -5    1    3    3    0  503 -0.72419536651E+02 -0.22934861947E+02 -0.35035644147E+03  0.35852799509E+03  0.47000000000E+01 0.  1.
         11    1    4    4    0    0  0.48248220387E+02  0.71515509824E+02 -0.26148103693E+03  0.27534467780E+03  0.00000000000E+00 0. -1.
        -12    1    4    4    0    0 -0.21011228260E+02  0.10132543278E+02 -0.13810909303E+03  0.14006520525E+03  0.00000000000E+00 0.  1.
</event>
<event>
12    1  0.8451514E-002  0.1774561E+03  0.7818608E-02  0.1170808E+00
         21   -1    0    0  503  502  0.00000000000E+00  0.00000000000E+00  0.19544537450E+03  0.19544537450E+03  0.00000000000E+00 0.  1.
         21   -1    0    0  501  503 -0.00000000000E+00 -0.00000000000E+00 -0.31074223022E+03  0.31074223022E+03  0.00000000000E+00 0.  1.
          6    2    1    2  501    0 -0.80074621485E+01  0.34552105570E+02 -0.23455430301E+03  0.29411966651E+03  0.17387550063E+03 0.  0.
         24    2    3    3    0    0 -0.15179304064E+02  0.66804068653E+02 -0.23811035634E+03  0.26055837997E+03  0.80628361722E+02 0.  0.
         -6    2    1    2    0  502  0.80074621485E+01 -0.34552105570E+02  0.11925744728E+03  0.21206793821E+03  0.17173381798E+03 0.  0.
        -24    2    5    5    0    0  0.30171771636E+02 -0.20317097499E+01  0.55554613991E+00  0.86923764980E+02  0.81492138508E+02 0.  0.
          5    1    3    3  501    0  0.71718419155E+01 -0.32251963083E+02  0.35560533302E+01  0.33561286543E+02  0.47000000000E+01 0. -1.
        -13    1    4    4    0    0 -0.40666064162E+02  0.14761406208E+02 -0.65651122332E+02  0.78623773447E+02  0.00000000000E+00 0.  1.
         14    1    4    4    0    0  0.25486760098E+02  0.52042662445E+02 -0.17245923401E+03  0.18193460652E+03  0.00000000000E+00 0. -1.
         -5    1    5    5    0  502 -0.22164309487E+02 -0.32520395820E+02  0.11870190114E+03  0.12514417323E+03  0.47000000000E+01 0.  1.
         11    1    6    6    0    0  0.57476927372E+02  0.71378552460E+01  0.31460174828E+01  0.58003823871E+02  0.00000000000E+00 0. -1.
        -12    1    6    6    0    0 -0.27305155736E+02 -0.91695649958E+01 -0.25904713429E+01  0.28919941109E+02  0.00000000000E+00 0.  1.
</event>
<event>
12    1  0.8451514E-002  0.1856550E+03  0.7818608E-02  0.1162519E+00
         21   -1    0    0  503  502  0.00000000000E+00  0.00000000000E+00  0.29785169847E+03  0.29785169847E+03  0.00000000000E+00 0. -1.
         21   -1    0    0  501  503 -0.00000000000E+00 -0.00000000000E+00 -0.13660326532E+03  0.13660326532E+03  0.00000000000E+00 0. -1.
          6    2    1    2  501    0 -0.47415274413E+02 -0.51966512162E+02 -0.48026938337E+01  0.18537513867E+03  0.17144138804E+03 0.  0.
         24    2    3    3    0    0 -0.61631374346E+02  0.27069540144E+02  0.96642736298E+01  0.10364278149E+03  0.78212797313E+02 0.  0.
         -6    2    1    2    0  502  0.47415274413E+02  0.51966512162E+02  0.16605112699E+03  0.24907982512E+03  0.17181110521E+03 0.  0.
        -24    2    5    5    0    0  0.66374775958E+02  0.10980212050E+02  0.17412184988E+03  0.20296511962E+03  0.79688425972E+02 0.  0.
          5    1    3    3  501    0  0.14216099933E+02 -0.79036052306E+02 -0.14466967464E+02  0.81732357173E+02  0.47000000000E+01 0. -1.
        -11    1    4    4    0    0 -0.49679872189E+02  0.56517208537E+01  0.40427168701E+02  0.64299203872E+02  0.00000000000E+00 0.  1.
         12    1    4    4    0    0 -0.11951502156E+02  0.21417819290E+02 -0.30762895071E+02  0.39343577622E+02  0.00000000000E+00 0. -1.
         -5    1    5    5    0  502 -0.18959501545E+02  0.40986300112E+02 -0.80707228954E+01  0.46114705505E+02  0.47000000000E+01 0.  1.
         13    1    6    6    0    0  0.20173597884E+02 -0.33794717624E+01  0.14512569738E+03  0.14656010003E+03  0.00000000000E+00 0. -1.
        -14    1    6    6    0    0  0.46201178074E+02  0.14359683812E+02  0.28996152506E+02  0.56405019588E+02  0.00000000000E+00 0.  1.
</event>
<event>
12    1  0.8451514E-002  0.1917622E+03  0.7818608E-02  0.1156960E+00
         21   -1    0    0  503  502  0.00000000000E+00  0.00000000000E+00  0.34022601407E+03  0.34022601407E+03  0.00000000000E+00 0. -1.
         21   -1    0    0  501  503 -0.00000000000E+00 -0.00000000000E+00 -0.37456737841E+03  0.37456737841E+03  0.00000000000E+00 0. -1.
          6    2    1    2  501    0  0.50464611936E+02 -0.67733402918E+02 -0.31874179661E+03  0.37197995964E+03  0.17215767930E+03 0.  0.
         24    2    3    3    0    0  0.44586354721E+02 -0.13892478888E+02 -0.30080520787E+03  0.31473303637E+03  0.79951029409E+02 0.  0.
         -6    2    1    2    0  502 -0.50464611936E+02  0.67733402918E+02  0.28440043227E+03  0.34281343283E+03  0.17176423646E+03 0.  0.
        -24    2    5    5    0    0 -0.95378240487E+02  0.49196530003E+02  0.24839091194E+03  0.28215351821E+03  0.79970340657E+02 0.  0.
          5    1    3    3  501    0  0.58782572150E+01 -0.53840924030E+02 -0.17936588736E+02  0.57246923269E+02  0.47000000000E+01 0. -1.
        -11    1    4    4    0    0  0.49835193768E+02  0.15213504017E+02 -0.11080647487E+03  0.12244620090E+03  0.00000000000E+00 0.  1.
         12    1    4    4    0    0 -0.52488390468E+01 -0.29105982904E+02 -0.18999873300E+03  0.19228683547E+03  0.00000000000E+00 0. -1.
         -5    1    5    5    0  502  0.44913628550E+02  0.18536872914E+02  0.36009520333E+02  0.60659914619E+02  0.47000000000E+01 0.  1.
         13    1    6    6    0    0 -0.68273793788E+02  0.66750759479E+02  0.21718268472E+03  0.23724521776E+03  0.00000000000E+00 0. -1.
        -14    1    6    6    0    0 -0.27104446699E+02 -0.17554229476E+02  0.31208227216E+02  0.44908300450E+02  0.00000000000E+00 0.  1.
</event>
<event>
12    1  0.8451514E-002  0.2691789E+03  0.7818608E-02  0.1101819E+00
         21   -1    0    0  501  502  0.00000000000E+00  0.00000000000E+00  0.62064610733E+03  0.62064610733E+03  0.00000000000E+00 0. -1.
         21   -1    0    0  502  503 -0.00000000000E+00 -0.00000000000E+00 -0.13082295498E+03  0.13082295498E+03  0.00000000000E+00 0.  1.
         -6    2    1    2    0  503  0.56125005012E+02 -0.19817731297E+03  0.36926764926E+03  0.45696376598E+03  0.17330038391E+03 0.  0.
        -24    2    3    3    0    0  0.87064002746E+01 -0.20370711011E+03  0.32326478931E+03  0.39049982196E+03  0.80109917129E+02 0.  0.
          6    2    1    2  501    0 -0.56125005012E+02  0.19817731297E+03  0.12055550309E+03  0.29450529633E+03  0.17255572051E+03 0.  0.
         24    2    5    5    0    0  0.22491252926E+02  0.11911513198E+03  0.10942009111E+03  0.18235614620E+03  0.81158712384E+02 0.  0.
          5    1    5    5  501    0 -0.78616257938E+02  0.79062180992E+02  0.11135411982E+02  0.11214915013E+03  0.47000000000E+01 0. -1.
        -13    1    6    6    0    0 -0.22106306747E+02  0.75965435409E+02  0.38081937314E+02  0.87804727233E+02  0.00000000000E+00 0.  1.
         14    1    6    6    0    0  0.44597559673E+02  0.43149696570E+02  0.71338153791E+02  0.94551418970E+02  0.00000000000E+00 0. -1.
         -5    1    3    3    0  503  0.47418604737E+02  0.55297971428E+01  0.46002859948E+02  0.66463944023E+02  0.47000000000E+01 0.  1.
         11    1    4    4    0    0  0.35831385127E+02 -0.10336561121E+03  0.20987786435E+03  0.23667922530E+03  0.00000000000E+00 0. -1.
        -12    1    4    4    0    0 -0.27124984852E+02 -0.10034149890E+03  0.11338692496E+03  0.15382059666E+03  0.00000000000E+00 0.  1.
</event>
<event>
12    1  0.8451514E-002  0.1801953E+03  0.7818608E-02  0.1167815E+00
         21   -1    0    0  501  502  0.00000000000E+00  0.00000000000E+00  0.79223436183E+02  0.79223436183E+02  0.00000000000E+00 0. -1.
         21   -1    0    0  502  503 -0.00000000000E+00 -0.00000000000E+00 -0.61985595513E+03  0.61985595513E+03  0.00000000000E+00 0. -1.
         -6    2    1    2    0  503  0.44824105623E+02 -0.23737059866E+02 -0.47426717232E+03  0.50705152342E+03  0.17204432045E+03 0.  0.
        -24    2    3    3    0    0  0.35563386407E+02 -0.20079052748E+02 -0.48359772032E+03  0.49261923107E+03  0.84492774285E+02 0.  0.
          6    2    1    2  501    0 -0.44824105623E+02  0.23737059866E+02 -0.66365346628E+02  0.19202786790E+03  0.17290949760E+03 0.  0.
         24    2    5    5    0    0 -0.68977650726E+02  0.38696797780E+02 -0.97810199218E+02  0.14938919703E+03  0.80591182267E+02 0.  0.
          5    1    5    5  501    0  0.24153545103E+02 -0.14959737914E+02  0.31444852590E+02  0.42638670874E+02  0.47000000000E+01 0. -1.
        -13    1    6    6    0    0 -0.13917123254E+02 -0.23421247827E+02 -0.39351825723E+02  0.47862379352E+02  0.00000000000E+00 0.  1.
         14    1    6    6    0    0 -0.55060527472E+02  0.62118045608E+02 -0.58458373495E+02  0.10152681768E+03  0.00000000000E+00 0. -1.
         -5    1    3    3    0  503  0.92607192154E+01 -0.36580071186E+01  0.93305479986E+01  0.14432292348E+02  0.47000000000E+01 0.  1.
         11    1    4    4    0    0  0.56339948035E+02 -0.36326969437E+02 -0.32475755618E+03  0.33160414465E+03  0.00000000000E+00 0. -1.
        -12    1    4    4    0    0 -0.20776561628E+02  0.16247916689E+02 -0.15884016414E+03  0.16101508642E+03  0.00000000000E+00 0.  1.
</event>
<event>
12    1  0.8451514E-002  0.1925333E+03  0.7818608E-02  0.1156323E+00
         21   -1    0    0  501  502  0.00000000000E+00  0.00000000000E+00  0.11422160907E+03  0.11422160907E+03  0.00000000000E+00 0.  1.
         21   -1    0    0  502  503 -0.00000000000E+00 -0.00000000000E+00 -0.33111655033E+03  0.33111655033E+03  0.00000000000E+00 0.  1.
         -6    2    1    2    0  503 -0.42368142825E+02 -0.73586974796E+02 -0.14221742220E+03  0.23936347573E+03  0.17279749984E+03 0.  0.
        -24    2    3    3    0    0 -0.53948414283E+02  0.15647221715E+02 -0.99861900539E+02  0.13979980400E+03  0.80101929235E+02 0.  0.
          6    2    1    2  501    0  0.42368142825E+02  0.73586974796E+02 -0.74677519069E+02  0.20597468367E+03  0.17215904296E+03 0.  0.
         24    2    5    5    0    0  0.70033936701E+00  0.10971772612E+03 -0.36255001143E+02  0.13859503600E+03  0.76522473804E+02 0.  0.
          5    1    5    5  501    0  0.41667803458E+02 -0.36130751319E+02 -0.38422517926E+02  0.67379647667E+02  0.47000000000E+01 0. -1.
        -11    1    6    6    0    0 -0.18269557040E+02  0.72741335828E+02 -0.54998830930E+02  0.93005107689E+02  0.00000000000E+00 0.  1.
         12    1    6    6    0    0  0.18969896407E+02  0.36976390287E+02  0.18743829788E+02  0.45589928312E+02  0.00000000000E+00 0. -1.
         -5    1    3    3    0  503  0.11580271458E+02 -0.89234196512E+02 -0.42355521658E+02  0.99563671733E+02  0.47000000000E+01 0.  1.
         13    1    4    4    0    0 -0.32009893150E+02 -0.10471005693E+02  0.62166216804E+00  0.33684739625E+02  0.00000000000E+00 0. -1.
        -14    1    4    4    0    0 -0.21938521133E+02  0.26118227409E+02 -0.10048356271E+03  0.10611506437E+03  0.00000000000E+00 0.  1.
</event>
<event>
12    1  0.8451514E-002  0.2249559E+03  0.7818608E-02  0.1130721E+00
         21   -1    0    0  501  502  0.00000000000E+00  0.00000000000E+00  0.31615244216E+03  0.31615244216E+03  0.00000000000E+00 0.  1.
         21   -1    0    0  502  503 -0.00000000000E+00 -0.00000000000E+00 -0.16015510979E+03  0.16015510979E+03  0.00000000000E+00 0.  1.
         -6    2    1    2    0  503  0.95368221415E+02  0.10757166308E+03  0.51216873668E+02  0.22814613399E+03  0.16958988754E+03 0.  0.
        -24    2    3    3    0    0  0.16319991685E+02  0.92772426774E+02  0.75609766970E+02  0.14397521703E+03  0.78351521747E+02 0.  0.
          6    2    1    2  501    0 -0.95368221415E+02 -0.10757166308E+03  0.10478045869E+03  0.24816141796E+03  0.17302712066E+03 0.  0.
         24    2    5    5    0    0 -0.13135955091E+03 -0.10751569363E+03  0.77668298256E+02  0.20285647148E+03  0.79394127467E+02 0.  0.
          5    1    5    5  501    0  0.35991329492E+02 -0.55969445227E-01  0.27112160439E+02  0.45304946472E+02  0.47000000000E+01 0. -1.
        -13    1    6    6    0    0 -0.65746035128E+02 -0.10154617162E+03  0.42843693424E+02  0.12833451668E+03  0.00000000000E+00 0.  1.
         14    1    6    6    0    0 -0.65613515779E+02 -0.59695220172E+01  0.34824604832E+02  0.74521954803E+02  0.00000000000E+00 0. -1.
         -5    1    3    3    0  503  0.79048229730E+02  0.14799236305E+02 -0.24392893302E+02  0.84170916962E+02  0.47000000000E+01 0.  1.
         13    1    4    4    0    0 -0.39822605171E+01 -0.12203648638E+02 -0.31185262936E+00  0.12840743396E+02  0.00000000000E+00 0. -1.
        -14    1    4    4    0    0  0.20302252203E+02  0.10497607541E+03  0.75921619599E+02  0.13113447364E+03  0.00000000000E+00 0.  1.
</event>
<event>
12    1  0.8451514E-002  0.4129394E+03  0.7818608E-02  0.1039390E+00
         21   -1    0    0  503  502  0.00000000000E+00  0.00000000000E+00  0.96788725506E+02  0.96788725506E+02  0.00000000000E+00 0. -1.
         21   -1    0    0  501  503 -0.00000000000E+00 -0.00000000000E+00 -0.26687326876E+04  0.26687326876E+04  0.00000000000E+00 0.  1.
          6    2    1    2  501    0  0.89633674720E+02  0.36451306593E+03 -0.20920803136E+04  0.21324431539E+04  0.17207496890E+03 0.  0.
         24    2    3    3    0    0  0.10828815970E+02  0.80338456055E+02 -0.71991450936E+03  0.72893807762E+03  0.80636774692E+02 0.  0.
         -6    2    1    2    0  502 -0.89633674720E+02 -0.36451306593E+03 -0.47986364848E+03  0.63307825926E+03  0.17209006458E+03 0.  0.
        -24    2    5    5    0    0 -0.74841330267E+02 -0.37711013546E+03 -0.45121120445E+03  0.59814185755E+03  0.79805086004E+02 0.  0.
          5    1    3    3  501    0  0.78804858750E+02  0.28417460988E+03 -0.13721658043E+04  0.14035050763E+04  0.47000000000E+01 0. -1.
        -13    1    4    4    0    0 -0.17307028091E+02  0.79144476770E+02 -0.61486923539E+03  0.62018348741E+03  0.00000000000E+00 0.  1.
         14    1    4    4    0    0  0.28135844061E+02  0.11939792849E+01 -0.10504527397E+03  0.10875459021E+03  0.00000000000E+00 0. -1.
         -5    1    5    5    0  502 -0.14792344453E+02  0.12597069525E+02 -0.28652444033E+02  0.34936401705E+02  0.47000000000E+01 0.  1.
         13    1    6    6    0    0 -0.57105231690E+02 -0.29314415607E+03 -0.39639650717E+03  0.49631108654E+03  0.00000000000E+00 0. -1.
        -14    1    6    6    0    0 -0.17736098578E+02 -0.83965979386E+02 -0.54814697281E+02  0.10183077101E+03  0.00000000000E+00 0.  1.
</event>
<event>
12    1  0.8451514E-002  0.2725300E+03  0.7818608E-02  0.1099990E+00
         21   -1    0    0  501  502  0.00000000000E+00  0.00000000000E+00  0.17255813738E+04  0.17255813738E+04  0.00000000000E+00 0.  1.
         21   -1    0    0  502  503 -0.00000000000E+00 -0.00000000000E+00 -0.60627076643E+02  0.60627076643E+02  0.00000000000E+00 0.  1.
         -6    2    1    2    0  503  0.20897475159E+03 -0.27119911591E+02  0.35035369705E+03  0.44386968939E+03  0.17281970871E+03 0.  0.
        -24    2    3    3    0    0  0.19076307317E+03  0.15714394942E+01  0.19360301088E+03  0.28340870824E+03  0.80282940761E+02 0.  0.
          6    2    1    2  501    0 -0.20897475159E+03  0.27119911591E+02  0.13146006001E+04  0.13423387610E+04  0.17115103041E+03 0.  0.
         24    2    5    5    0    0 -0.17372471674E+03  0.69096431533E+02  0.82621929341E+03  0.85086853417E+03  0.79902112440E+02 0.  0.
          5    1    5    5  501    0 -0.35250034845E+02 -0.41976519942E+02  0.48838130668E+03  0.49147022687E+03  0.47000000000E+01 0. -1.
        -13    1    6    6    0    0 -0.96046796808E+02  0.55422724265E+02  0.32298316785E+03  0.34148908073E+03  0.00000000000E+00 0.  1.
         14    1    6    6    0    0 -0.77677919935E+02  0.13673707268E+02  0.50323612556E+03  0.50937945344E+03  0.00000000000E+00 0. -1.
         -5    1    3    3    0  503  0.18211678419E+02 -0.28691351086E+02  0.15675068617E+03  0.16046098115E+03  0.47000000000E+01 0.  1.
         13    1    4    4    0    0  0.17562306924E+02 -0.84076743594E+01  0.63887546362E+02  0.66788787927E+02  0.00000000000E+00 0. -1.
        -14    1    4    4    0    0  0.17320076625E+03  0.99791138536E+01  0.12971546452E+03  0.21661992031E+03  0.00000000000E+00 0.  1.
</event>
<event>
12    1  0.8451514E-002  0.1953340E+03  0.7818608E-02  0.1153753E+00
         21   -1    0    0  501  502  0.00000000000E+00  0.00000000000E+00  0.69151781633E+03  0.69151781633E+03  0.00000000000E+00 0. -1.
         21   -1    0    0  502  503 -0.00000000000E+00 -0.00000000000E+00 -0.21469380448E+03  0.21469380448E+03  0.00000000000E+00 0. -1.
         -6    2    1    2    0  503  0.88980288017E+02 -0.21468587299E+02 -0.15216770331E+03  0.24760929812E+03  0.17256002633E+03 0.  0.
        -24    2    3    3    0    0  0.12446904357E+03  0.12058149805E+02 -0.11725346991E+03  0.18740475041E+03  0.75724649108E+02 0.  0.
          6    2    1    2  501    0 -0.88980288017E+02  0.21468587299E+02  0.62899171516E+03  0.65860232269E+03  0.17247622972E+03 0.  0.
         24    2    5    5    0    0 -0.52220527808E+02 -0.36097951733E+02  0.19914606252E+03  0.22333853890E+03  0.78682292145E+02 0.  0.
          5    1    5    5  501    0 -0.36759760209E+02  0.57566539032E+02  0.42984565264E+03  0.43526378379E+03  0.47000000000E+01 0. -1.
        -11    1    6    6    0    0 -0.55978837263E+02 -0.37922596998E+02  0.20516061618E+03  0.21601535134E+03  0.00000000000E+00 0.  1.
         12    1    6    6    0    0  0.37583094546E+01  0.18246452654E+01 -0.60145536592E+01  0.73231875587E+01  0.00000000000E+00 0. -1.
         -5    1    3    3    0  503 -0.35488755557E+02 -0.33526737104E+02 -0.34914233393E+02  0.60204547712E+02  0.47000000000E+01 0.  1.
         13    1    4    4    0    0  0.87789419671E+02  0.42615885210E+02 -0.88067211564E+02  0.13144934245E+03  0.00000000000E+00 0. -1.
        -14    1    4    4    0    0  0.36679623903E+02 -0.30557735405E+02 -0.29186258351E+02  0.55955407954E+02  0.00000000000E+00 0.  1.
</event>
<event>
12    1  0.8451514E-002  0.1716238E+03  0.7818608E-02  0.1177261E+00
         21   -1    0    0  501  502  0.00000000000E+00  0.00000000000E+00  0.36859981716E+02  0.36859981716E+02  0.00000000000E+00 0.  1.
         21   -1    0    0  502  503 -0.00000000000E+00 -0.00000000000E+00 -0.78179865002E+03  0.78179865002E+03  0.00000000000E+00 0.  1.
         -6    2    1    2    0  503 -0.44053374482E+00 -0.39017947138E+00 -0.34650407894E+03  0.38483278755E+03  0.16742416594E+03 0.  0.
        -24    2    3    3    0    0  0.38351447790E+02  0.48504403211E+02 -0.18436249206E+03  0.21102978918E+03  0.81978855588E+02 0.  0.
          6    2    1    2  501    0  0.44053374482E+00  0.39017947138E+00 -0.39843458936E+03  0.43382584419E+03  0.17162282707E+03 0.  0.
         24    2    5    5    0    0  0.67849407453E+02 -0.23005546112E+01 -0.24517028659E+03  0.26630500128E+03  0.78746743645E+02 0.  0.
          5    1    5    5  501    0 -0.67408873708E+02  0.26907340826E+01 -0.15326430277E+03  0.16752084291E+03  0.47000000000E+01 0. -1.
        -11    1    6    6    0    0  0.56653847168E+02 -0.25388958713E+02 -0.22573295650E+03  0.23411455588E+03  0.00000000000E+00 0.  1.
         12    1    6    6    0    0  0.11195560284E+02  0.23088404102E+02 -0.19437330096E+02  0.32190445404E+02  0.00000000000E+00 0. -1.
         -5    1    3    3    0  503 -0.38791981535E+02 -0.48894582682E+02 -0.16214158688E+03  0.17380299837E+03  0.47000000000E+01 0.  1.
         11    1    4    4    0    0  0.23952591578E+02  0.10367268940E+02 -0.16286657832E+03  0.16494462478E+03  0.00000000000E+00 0. -1.
        -12    1    4    4    0    0  0.14398856212E+02  0.38137134271E+02 -0.21495913743E+02  0.46085164405E+02  0.00000000000E+00 0.  1.
</event>
<event>
12    1  0.8451514E-002  0.2351031E+03  0.7818608E-02  0.1123349E+00
         21   -1    0    0  503  502  0.00000000000E+00  0.00000000000E+00  0.19312266523E+04  0.19312266523E+04  0.00000000000E+00 0.  1.
         21   -1    0    0  501  503 -0.00000000000E+00 -0.00000000000E+00 -0.43230923223E+02  0.43230923223E+02  0.00000000000E+00 0. -1.
          6    2    1    2  501    0  0.67290672494E+02  0.14421738971E+03  0.36467739910E+03  0.43310356332E+03  0.17106256472E+03 0.  0.
         24    2    3    3    0    0  0.50657888841E+02  0.79462519164E+02  0.99153200820E+02  0.15925135387E+03  0.81542153646E+02 0.  0.
         -6    2    1    2    0  502 -0.67290672494E+02 -0.14421738971E+03  0.15233183300E+04  0.15413540123E+04  0.17305134034E+03 0.  0.
        -24    2    5    5    0    0 -0.11670609021E+02 -0.67057311200E+02  0.11799335941E+04  0.11850080623E+04  0.85836677145E+02 0.  0.
          5    1    3    3  501    0  0.16632783653E+02  0.64754870541E+02  0.26552419828E+03  0.27385220945E+03  0.47000000000E+01 0. -1.
        -13    1    4    4    0    0 -0.50131780367E+01 -0.14199303820E+02  0.17539891997E+02  0.23117093119E+02  0.00000000000E+00 0.  1.
         14    1    4    4    0    0  0.55671066878E+02  0.93661822984E+02  0.81613308824E+02  0.13613426075E+03  0.00000000000E+00 0. -1.
         -5    1    5    5    0  502 -0.55620063473E+02 -0.77160078505E+02  0.34338473591E+03  0.35634594993E+03  0.47000000000E+01 0.  1.
         11    1    6    6    0    0  0.10840421567E+02 -0.57555491570E+02  0.36180516516E+03  0.36651483856E+03  0.00000000000E+00 0. -1.
        -12    1    6    6    0    0 -0.22511030588E+02 -0.95018196306E+01  0.81812842896E+03  0.81849322376E+03  0.00000000000E+00 0.  1.
</event>
<event>
12    1  0.8451514E-002  0.2292348E+03  0.7818608E-02  0.1127442E+00
         21   -1    0    0  503  502  0.00000000000E+00  0.00000000000E+00  0.17860839713E+03  0.17860839713E+03  0.00000000000E+00 0.  1.
         21   -1    0    0  501  503 -0.00000000000E+00 -0.00000000000E+00 -0.46408069968E+03  0.46408069968E+03  0.00000000000E+00 0. -1.
          6    2    1    2  501    0 -0.14950121185E+03 -0.45048475029E+01 -0.33794154625E+03  0.40752612448E+03  0.17176189175E+03 0.  0.
         24    2    3    3    0    0 -0.13525243976E+03 -0.26374422905E+01 -0.14458245050E+03  0.21357678929E+03  0.80067355221E+02 0.  0.
         -6    2    1    2    0  502  0.14950121185E+03  0.45048475029E+01  0.52469243704E+02  0.23516297233E+03  0.17371728764E+03 0.  0.
        -24    2    5    5    0    0  0.14610710888E+03 -0.49262857513E+02  0.14515309752E+02  0.16909424190E+03  0.67882634255E+02 0.  0.
          5    1    3    3  501    0 -0.14248772091E+02 -0.18674052123E+01 -0.19335909575E+03  0.19394933519E+03  0.47000000000E+01 0. -1.
        -11    1    4    4    0    0 -0.37993031078E+02 -0.91669099422E+01  0.14441541317E+00  0.39083545184E+02  0.00000000000E+00 0.  1.
         12    1    4    4    0    0 -0.97259408679E+02  0.65294676516E+01 -0.14472686591E+03  0.17449324411E+03  0.00000000000E+00 0. -1.
         -5    1    5    5    0  502  0.33941029727E+01  0.53767705016E+02  0.37953933953E+02  0.66068730426E+02  0.47000000000E+01 0.  1.
         11    1    6    6    0    0  0.28799186981E+02  0.14201912489E+01 -0.21911794675E+02  0.36215146828E+02  0.00000000000E+00 0. -1.
        -12    1    6    6    0    0  0.11730792189E+03 -0.50683048762E+02  0.36427104426E+02  0.13287909507E+03  0.00000000000E+00 0.  1.
</event>
<event>
12    1  0.8451514E-002  0.2318283E+03  0.7818608E-02  0.1125369E+00
         21   -1    0    0  503  502  0.00000000000E+00  0.00000000000E+00  0.31410213910E+03  0.31410213910E+03  0.00000000000E+00 0.  1.
         21   -1    0    0  501  503 -0.00000000000E+00 -0.00000000000E+00 -0.17594238209E+03  0.17594238209E+03  0.00000000000E+00 0.  1.
          6    2    1    2  501    0  0.15385606376E+03 -0.19458273619E+02  0.10989298008E+03  0.25655568356E+03  0.17231958370E+03 0.  0.
         24    2    3    3    0    0  0.79275318154E+02 -0.74446766560E+02  0.41445685946E+02  0.14125978578E+03  0.80060508833E+02 0.  0.
         -6    2    1    2    0  502 -0.15385606376E+03  0.19458273619E+02  0.28266776924E+02  0.23348883763E+03  0.17224318232E+03 0.  0.
        -24    2    5    5    0    0 -0.17851219694E+03  0.28540513410E+01  0.42480244198E+01  0.19498409023E+03  0.78268765562E+02 0.  0.
          5    1    3    3  501    0  0.74580745604E+02  0.54988492941E+02  0.68447294135E+02  0.11529589778E+03  0.47000000000E+01 0. -1.
        -11    1    4    4    0    0  0.94882564922E+02 -0.55933363828E+02  0.39329454665E+02  0.11695318858E+03  0.00000000000E+00 0.  1.
         12    1    4    4    0    0 -0.15607246768E+02 -0.18513402732E+02  0.21162312807E+01  0.24306597195E+02  0.00000000000E+00 0. -1.
         -5    1    5    5    0  502  0.24656133186E+02  0.16604222278E+02  0.24018752504E+02  0.38504747409E+02  0.47000000000E+01 0.  1.
         13    1    6    6    0    0 -0.78162757295E+02 -0.70625200930E+01 -0.36084121471E+02  0.86379162072E+02  0.00000000000E+00 0. -1.
        -14    1    6    6    0    0 -0.10034943965E+03  0.99165714340E+01  0.40332145890E+02  0.10860492815E+03  0.00000000000E+00 0.  1.
</event>
<event>
12    1  0.8451514E-002  0.2068899E+03  0.7818608E-02  0.1144148E+00
         21   -1    0    0  503  502  0.00000000000E+00  0.00000000000E+00  0.45018129859E+02  0.45018129859E+02  0.00000000000E+00 0. -1.
         21   -1    0    0  501  503 -0.00000000000E+00 -0.00000000000E+00 -0.13234847066E+04  0.13234847066E+04  0.00000000000E+00 0.  1.
          6    2    1    2  501    0 -0.51625597784E+02 -0.10365616131E+03 -0.10028610488E+04  0.10238844222E+04  0.17087780656E+03 0.  0.
         24    2    3    3    0    0 -0.67294569811E+02 -0.76109573492E+02 -0.40971597633E+03  0.42987474371E+03  0.81264307784E+02 0.  0.
         -6    2    1    2    0  502  0.51625597784E+02  0.10365616131E+03 -0.27560552795E+03  0.34461841423E+03  0.17144574146E+03 0.  0.
        -24    2    5    5    0    0 -0.34830383694E+02  0.69799363928E+02 -0.17516092362E+03  0.20775304972E+03  0.79967954037E+02 0.  0.
          5    1    3    3  501    0  0.15668972027E+02 -0.27546587823E+02 -0.59314507244E+03  0.59400967849E+03  0.47000000000E+01 0. -1.
        -11    1    4    4    0    0 -0.19952744736E+02  0.16577805739E+02 -0.75953698338E+02  0.80261447513E+02  0.00000000000E+00 0.  1.
         12    1    4    4    0    0 -0.47341825075E+02 -0.92687379230E+02 -0.33376227799E+03  0.34961329620E+03  0.00000000000E+00 0. -1.
         -5    1    5    5    0  502  0.86455981479E+02  0.33856797387E+02 -0.10044460434E+03  0.13686536451E+03  0.47000000000E+01 0.  1.
         13    1    6    6    0    0  0.16600678696E+02 -0.51083817315E+01 -0.12381552091E+02  0.21330281978E+02  0.00000000000E+00 0. -1.
        -14    1    6    6    0    0 -0.51431062390E+02  0.74907745659E+02 -0.16277937153E+03  0.18642276774E+03  0.00000000000E+00 0.  1.
</event>
<event>
12    1  0.8451514E-002  0.2615682E+03  0.7818608E-02  0.1106389E+00
         21   -1    0    0  503  502  0.00000000000E+00  0.00000000000E+00  0.26510730131E+03  0.26510730131E+03  0.00000000000E+00 0.  1.
         21   -1    0    0  501  503 -0.00000000000E+00 -0.00000000000E+00 -0.26495241380E+03  0.26495241380E+03  0.00000000000E+00 0.  1.
          6    2    1    2  501    0  0.53010401977E+02  0.18840656247E+03 -0.46243575760E+02  0.26562454616E+03  0.17352462569E+03 0.  0.
         24    2    3    3    0    0 -0.14493254387E+02  0.16518435102E+03 -0.58532553161E+02  0.19303581636E+03  0.79629406482E+02 0.  0.
         -6    2    1    2    0  502 -0.53010401977E+02 -0.18840656247E+03  0.46398463279E+02  0.26443516895E+03  0.17165665057E+03 0.  0.
        -24    2    5    5    0    0 -0.51354704594E+02 -0.21453979507E+03  0.47728600294E+02  0.23779785594E+03  0.74867694317E+02 0.  0.
          5    1    3    3  501    0  0.67503656364E+02  0.23222211453E+02  0.12288977401E+02  0.72588729792E+02  0.47000000000E+01 0. -1.
        -11    1    4    4    0    0  0.18356769995E+02  0.12783773289E+03 -0.61833545483E+02  0.14318814302E+03  0.00000000000E+00 0.  1.
         12    1    4    4    0    0 -0.32850024381E+02  0.37346618124E+02  0.33009923224E+01  0.49847673341E+02  0.00000000000E+00 0. -1.
         -5    1    5    5    0  502 -0.16556973828E+01  0.26133232601E+02 -0.13301370149E+01  0.26637313012E+02  0.47000000000E+01 0.  1.
         11    1    6    6    0    0 -0.18973303979E+02 -0.58417975080E+01  0.13093892933E+02  0.23781566268E+02  0.00000000000E+00 0. -1.
        -12    1    6    6    0    0 -0.32381400615E+02 -0.20869799756E+03  0.34634707361E+02  0.21401628967E+03  0.00000000000E+00 0.  1.
</event>
<event>
12    1  0.8451514E-002  0.3070943E+03  0.7818608E-02  0.1081843E+00
         21   -1    0    0  501  502  0.00000000000E+00  0.00000000000E+00  0.28507649879E+03  0.28507649879E+03  0.00000000000E+00 0.  1.
         21   -1    0    0  502  503 -0.00000000000E+00 -0.00000000000E+00 -0.38503401478E+03  0.38503401478E+03  0.00000000000E+00 0. -1.
         -6    2    1    2    0  503  0.13699949220E+03 -0.21331755939E+03  0.76791400309E+02  0.31578423106E+03  0.17189973653E+03 0.  0.
        -24    2    3    3    0    0  0.75222241383E+02 -0.60750030223E+02  0.84750809026E+02  0.15092452749E+03  0.79035192147E+02 0.  0.
          6    2    1    2  501    0 -0.13699949220E+03  0.21331755939E+03 -0.17674891630E+03  0.35432628250E+03  0.17330231693E+03 0.  0.
         24    2    5    5    0    0 -0.10242484633E+03  0.11051035263E+03 -0.31522660048E+02  0.17300479066E+03  0.78953101974E+02 0.  0.
          5    1    5    5  501    0 -0.34574645871E+02  0.10280720675E+03 -0.14522625625E+03  0.18132149184E+03  0.47000000000E+01 0. -1.
        -11    1    6    6    0    0 -0.71933620864E+02  0.21153766095E+02 -0.61050493256E+01  0.75227649557E+02  0.00000000000E+00 0.  1.
         12    1    6    6    0    0 -0.30491225466E+02  0.89356586539E+02 -0.25417610722E+02  0.97777141107E+02  0.00000000000E+00 0. -1.
         -5    1    3    3    0  503  0.61777250818E+02 -0.15256752917E+03 -0.79594087173E+01  0.16485970357E+03  0.47000000000E+01 0.  1.
         13    1    4    4    0    0 -0.12521252924E+02 -0.27375220159E+02  0.13105461156E+02  0.32831959516E+02  0.00000000000E+00 0. -1.
        -14    1    4    4    0    0  0.87743494307E+02 -0.33374810064E+02  0.71645347870E+02  0.11809256798E+03  0.00000000000E+00 0.  1.
</event>
<event>
12    1  0.8451514E-002  0.1838175E+03  0.7818608E-02  0.1165535E+00
         21   -1    0    0  501  502  0.00000000000E+00  0.00000000000E+00  0.12174910827E+03  0.12174910827E+03  0.00000000000E+00 0.  1.
         21   -1    0    0  502  503 -0.00000000000E+00 -0.00000000000E+00 -0.35188838172E+03  0.35188838172E+03  0.00000000000E+00 0.  1.
         -6    2    1    2    0  503 -0.27388062359E+02 -0.60202003140E+02 -0.22865525098E+03  0.28981400136E+03  0.16533161960E+03 0.  0.
        -24    2    3    3    0    0  0.46113050912E+02 -0.35689253550E+02 -0.11228572350E+03  0.14993103073E+03  0.80443110280E+02 0.  0.
          6    2    1    2  501    0  0.27388062359E+02  0.60202003140E+02 -0.14840224674E+01  0.18382348862E+03  0.17150651738E+03 0.  0.
         24    2    5    5    0    0  0.29366405356E+02  0.89553457278E+02 -0.44153531571E+02  0.13178313209E+03  0.80839668970E+02 0.  0.
          5    1    5    5  501    0 -0.19783429977E+01 -0.29351454138E+02  0.42669509103E+02  0.52040356534E+02  0.47000000000E+01 0. -1.
        -11    1    6    6    0    0  0.78392393565E+01  0.96459367818E+02 -0.20233435302E+02  0.98869890349E+02  0.00000000000E+00 0.  1.
         12    1    6    6    0    0  0.21527166000E+02 -0.69059105398E+01 -0.23920096269E+02  0.32913241741E+02  0.00000000000E+00 0. -1.
         -5    1    3    3    0  503 -0.73501113271E+02 -0.24512749590E+02 -0.11636952748E+03  0.13988297063E+03  0.47000000000E+01 0.  1.
         13    1    4    4    0    0  0.13769961982E+02  0.25946517568E+02 -0.27554598330E+02  0.40275172452E+02  0.00000000000E+00 0. -1.
        -14    1    4    4    0    0  0.32343088930E+02 -0.61635771119E+02 -0.84731125169E+02  0.10965585828E+03  0.00000000000E+00 0.  1.
</event>
<event>
12    1  0.8451514E-002  0.2018889E+03  0.7818608E-02  0.1148395E+00
         21   -1    0    0  503  502  0.00000000000E+00  0.00000000000E+00  0.21137496513E+03  0.21137496513E+03  0.00000000000E+00 0. -1.
         21   -1    0    0  501  503 -0.00000000000E+00 -0.00000000000E+00 -0.19312127644E+03  0.19312127644E+03  0.00000000000E+00 0. -1.
          6    2    1    2  501    0 -0.72606470617E+02 -0.75167699484E+02 -0.80372992256E+01  0.20090264545E+03  0.17139250902E+03 0.  0.
         24    2    3    3    0    0  0.28691350583E+02 -0.54577811101E+02 -0.13739756766E+02  0.97269638613E+02  0.73963981890E+02 0.  0.
         -6    2    1    2    0  502  0.72606470617E+02  0.75167699484E+02  0.26290987916E+02  0.20359359612E+03  0.17273463380E+03 0.  0.
        -24    2    5    5    0    0  0.83349146068E+02 -0.12356610867E+02  0.20625867058E+01  0.11202386638E+03  0.73792454853E+02 0.  0.
          5    1    3    3  501    0 -0.10129782120E+03 -0.20589888383E+02  0.57024575407E+01  0.10363300683E+03  0.47000000000E+01 0. -1.
        -13    1    4    4    0    0  0.32619873794E+02 -0.24807252973E+02 -0.40082309377E+02  0.57324056830E+02  0.00000000000E+00 0.  1.
         14    1    4    4    0    0 -0.39285232119E+01 -0.29770558128E+02  0.26342552611E+02  0.39945581783E+02  0.00000000000E+00 0. -1.
         -5    1    5    5    0  502 -0.10742675451E+02  0.87524310351E+02  0.24228401210E+02  0.91569729733E+02  0.47000000000E+01 0.  1.
         13    1    6    6    0    0  0.22925378472E+02  0.30313483154E+02 -0.46776734438E+00  0.38009196852E+02  0.00000000000E+00 0. -1.
        -14    1    6    6    0    0  0.60423767596E+02 -0.42670094021E+02  0.25303540502E+01  0.74014669531E+02  0.00000000000E+00 0.  1.
</event>
<event>
12    1  0.8451514E-002  0.2039637E+03  0.7818608E-02  0.1147200E+00
         21   -1    0    0  501  502  0.00000000000E+00  0.00000000000E+00  0.18550652399E+03  0.18550652399E+03  0.00000000000E+00 0.  1.
         21   -1    0    0  502  503 -0.00000000000E+00 -0.00000000000E+00 -0.22053752363E+03  0.22053752363E+03  0.00000000000E+00 0.  1.
         -6    2    1    2    0  503  0.10134940002E+03 -0.16088689270E+02 -0.10170618406E+02  0.20421715700E+03  0.17626871227E+03 0.  0.
        -24    2    3    3    0    0 -0.11105982311E+00 -0.48890314481E+02 -0.21535513951E+02  0.96879268168E+02  0.80817937708E+02 0.  0.
          6    2    1    2  501    0 -0.10134940002E+03  0.16088689270E+02 -0.24860381229E+02  0.20182689062E+03  0.17200438488E+03 0.  0.
         24    2    5    5    0    0 -0.13651966674E+03  0.26541865862E+02 -0.57777734954E+01  0.16020415068E+03  0.79308872012E+02 0.  0.
          5    1    5    5  501    0  0.35170266721E+02 -0.10453176592E+02 -0.19082607733E+02  0.41622739939E+02  0.47000000000E+01 0. -1.
        -11    1    6    6    0    0 -0.76537129502E+02 -0.11740728092E+02 -0.32793466255E+02  0.84090358054E+02  0.00000000000E+00 0.  1.
         12    1    6    6    0    0 -0.59982537236E+02  0.38282593954E+02  0.27015692760E+02  0.76113792629E+02  0.00000000000E+00 0. -1.
         -5    1    3    3    0  503  0.10146045984E+03  0.32801625211E+02  0.11364895545E+02  0.10733788883E+03  0.47000000000E+01 0.  1.
         11    1    4    4    0    0 -0.16733943679E+02 -0.33878842440E+02  0.24949255784E+02  0.45279865285E+02  0.00000000000E+00 0. -1.
        -12    1    4    4    0    0  0.16622883855E+02 -0.15011472041E+02 -0.46484769735E+02  0.51599402883E+02  0.00000000000E+00 0.  1.
</event>
<event>
12    1  0.8451514E-002  0.1999069E+03  0.7818608E-02  0.1150171E+00
         21   -1    0    0  501  502  0.00000000000E+00  0.00000000000E+00  0.25732266571E+03  0.25732266571E+03  0.00000000000E+00 0.  1.
         21   -1    0    0  502  503 -0.00000000000E+00 -0.00000000000E+00 -0.16424791216E+03  0.16424791216E+03  0.00000000000E+00 0.  1.
         -6    2    1    2    0  503  0.10245990694E+03 -0.34016895549E+01 -0.59025324229E+01  0.19999406366E+03  0.17161929259E+03 0.  0.
        -24    2    3    3    0    0  0.21729933113E+02 -0.28411260786E+02 -0.51767196411E+02  0.10372119765E+03  0.82455166514E+02 0.  0.
          6    2    1    2  501    0 -0.10245990694E+03  0.34016895549E+01  0.98977285974E+02  0.22157651421E+03  0.16967629324E+03 0.  0.
         24    2    5    5    0    0 -0.91853502294E+02 -0.26602170310E+02  0.12585635643E+03  0.17965632987E+03  0.85392230687E+02 0.  0.
          5    1    5    5  501    0 -0.10606404645E+02  0.30003859865E+02 -0.26879070453E+02  0.41920184335E+02  0.47000000000E+01 0. -1.
        -11    1    6    6    0    0 -0.25416517216E+02 -0.47767867069E+02  0.32445205472E+02  0.63090885473E+02  0.00000000000E+00 0.  1.
         12    1    6    6    0    0 -0.66436985078E+02  0.21165696759E+02  0.93411150954E+02  0.11656544440E+03  0.00000000000E+00 0. -1.
         -5    1    3    3    0  503  0.80729973826E+02  0.25009571231E+02  0.45864663988E+02  0.96272866011E+02  0.47000000000E+01 0.  1.
         11    1    4    4    0    0 -0.39396276634E+01  0.22591112838E+02  0.47094910211E+01  0.23410646106E+02  0.00000000000E+00 0. -1.
        -12    1    4    4    0    0  0.25669560776E+02 -0.51002373625E+02 -0.56476687432E+02  0.80310551543E+02  0.00000000000E+00 0.  1.
</event>
<event>
12    1  0.8451514E-002  0.2654232E+03  0.7818608E-02  0.1103950E+00
         21   -1    0    0  501  502  0.00000000000E+00  0.00000000000E+00  0.36557523393E+03  0.36557523393E+03  0.00000000000E+00 0.  1.
         21   -1    0    0  502  503 -0.00000000000E+00 -0.00000000000E+00 -0.21326410061E+03  0.21326410061E+03  0.00000000000E+00 0.  1.
         -6    2    1    2    0  503 -0.67861487040E+02  0.18905222885E+03 -0.13918540982E+02  0.26578792247E+03  0.17350379619E+03 0.  0.
        -24    2    3    3    0    0 -0.10551511946E+03  0.96171421565E+02 -0.21475783859E+02  0.16517061622E+03  0.80235530841E+02 0.  0.
          6    2    1    2  501    0  0.67861487040E+02 -0.18905222885E+03  0.16622967431E+03  0.31305141206E+03  0.17327133438E+03 0.  0.
         24    2    5    5    0    0 -0.82573477651E+01 -0.12528995330E+03  0.15139524429E+03  0.21254342676E+03  0.80550804306E+02 0.  0.
          5    1    5    5  501    0  0.76118834805E+02 -0.63762275559E+02  0.14834430014E+02  0.10050798531E+03  0.47000000000E+01 0. -1.
        -13    1    6    6    0    0 -0.64612752807E+01 -0.72156848896E+01  0.66264648323E+02  0.66968782309E+02  0.00000000000E+00 0.  1.
         14    1    6    6    0    0 -0.17960724844E+01 -0.11807426841E+03  0.85130595971E+02  0.14557464445E+03  0.00000000000E+00 0. -1.
         -5    1    3    3    0  503  0.37653632425E+02  0.92880807289E+02  0.75572428766E+01  0.10061730625E+03  0.47000000000E+01 0.  1.
         11    1    4    4    0    0 -0.93006452905E+02  0.36611039941E+02 -0.28423360911E+02  0.10391561949E+03  0.00000000000E+00 0. -1.
        -12    1    4    4    0    0 -0.12508666560E+02  0.59560381624E+02  0.69475770520E+01  0.61254996737E+02  0.00000000000E+00 0.  1.
</event>
<event>
12    1  0.8451514E-002  0.2392759E+03  0.7818608E-02  0.1120490E+00
         21   -1    0    0  503  502  0.00000000000E+00  0.00000000000E+00  0.81006780302E+03  0.81006780302E+03  0.00000000000E+00 0.  1.
         21   -1    0    0  501  503 -0.00000000000E+00 -0.00000000000E+00 -0.75724951560E+03  0.75724951560E+03  0.00000000000E+00 0.  1.
          6    2    1    2  501    0 -0.11858768207E+02  0.16409794651E+03 -0.71999399377E+03  0.75831066789E+03  0.17197369431E+03 0.  0.
         24    2    3    3    0    0 -0.48550421480E+02  0.28276515062E+02 -0.31221797478E+03  0.32692092494E+03  0.78996978776E+02 0.  0.
         -6    2    1    2    0  502  0.11858768207E+02 -0.16409794651E+03  0.77281228120E+03  0.80900665073E+03  0.17373592753E+03 0.  0.
        -24    2    5    5    0    0  0.42262820806E+01 -0.17261815389E+03  0.77339109813E+03  0.79662627079E+03  0.81637835212E+02 0.  0.
          5    1    3    3  501    0  0.36691653273E+02  0.13582143144E+03 -0.40777601900E+03  0.43138974296E+03  0.47000000000E+01 0. -1.
        -13    1    4    4    0    0  0.20136904872E+02  0.39443471372E+01 -0.11178231520E+03  0.11365007172E+03  0.00000000000E+00 0.  1.
         14    1    4    4    0    0 -0.68687326353E+02  0.24332167925E+02 -0.20043565958E+03  0.21327085321E+03  0.00000000000E+00 0. -1.
         -5    1    5    5    0  502  0.76324861265E+01  0.85202073820E+01 -0.57881692875E+00  0.12380379935E+02  0.47000000000E+01 0.  1.
         11    1    6    6    0    0 -0.14284831862E+02 -0.15399218473E+03  0.53837333256E+03  0.56014595830E+03  0.00000000000E+00 0. -1.
        -12    1    6    6    0    0  0.18511113942E+02 -0.18625969154E+02  0.23501776557E+03  0.23648031249E+03  0.00000000000E+00 0.  1.
</event>
<event>
12    1  0.8451514E-002  0.3534056E+03  0.7818608E-02  0.1061277E+00
         21   -1    0    0  501  502  0.00000000000E+00  0.00000000000E+00  0.48227833669E+03  0.48227833669E+03  0.00000000000E+00 0.  1.
         21   -1    0    0  502  503 -0.00000000000E+00 -0.00000000000E+00 -0.63428933698E+03  0.63428933698E+03  0.00000000000E+00 0.  1.
         -6    2    1    2    0  503  0.26919358687E+03  0.15006971652E+03 -0.50568926470E+03  0.61694178670E+03  0.17294342636E+03 0.  0.
        -24    2    3    3    0    0  0.56678962692E+02  0.87828753907E+02 -0.15977219645E+03  0.20618990172E+03  0.77850664648E+02 0.  0.
          6    2    1    2  501    0 -0.26919358687E+03 -0.15006971652E+03  0.35367826441E+03  0.49962588696E+03  0.17190580322E+03 0.  0.
         24    2    5    5    0    0 -0.79244050175E+02 -0.11133643561E+02  0.80195178793E+02  0.13879469793E+03  0.80181818173E+02 0.  0.
          5    1    5    5  501    0 -0.18994953670E+03 -0.13893607296E+03  0.27348308561E+03  0.36083118903E+03  0.47000000000E+01 0. -1.
        -11    1    6    6    0    0 -0.95843091061E+02 -0.12288308318E+02  0.67614730469E+02  0.11793494987E+03  0.00000000000E+00 0.  1.
         12    1    6    6    0    0  0.16599040886E+02  0.11546647568E+01  0.12580448324E+02  0.20859748058E+02  0.00000000000E+00 0. -1.
         -5    1    3    3    0  503  0.21251462418E+03  0.62240962615E+02 -0.34591706825E+03  0.41075188499E+03  0.47000000000E+01 0.  1.
         13    1    4    4    0    0  0.31906213504E+02 -0.37669669299E+01 -0.62664105611E+02  0.70420072649E+02  0.00000000000E+00 0. -1.
        -14    1    4    4    0    0  0.24772749188E+02  0.91595720837E+02 -0.97108090840E+02  0.13576982907E+03  0.00000000000E+00 0.  1.
</event>
<event>
12    1  0.8451514E-002  0.1875372E+03  0.7818608E-02  0.1160741E+00
         21   -1    0    0  501  502  0.00000000000E+00  0.00000000000E+00  0.95378777468E+02  0.95378777468E+02  0.00000000000E+00 0.  1.
         21   -1    0    0  502  503 -0.00000000000E+00 -0.00000000000E+00 -0.38742430138E+03  0.38742430138E+03  0.00000000000E+00 0.  1.
         -6    2    1    2    0  503 -0.46428934141E+02  0.55367397912E+02 -0.19944364565E+03  0.27364925582E+03  0.17287264892E+03 0.  0.
        -24    2    3    3    0    0 -0.62512468261E+02 -0.17134609810E+02 -0.15603887130E+03  0.18750237178E+03  0.81287185491E+02 0.  0.
          6    2    1    2  501    0  0.46428934141E+02 -0.55367397912E+02 -0.92601878269E+02  0.20915382303E+03  0.17305784915E+03 0.  0.
         24    2    5    5    0    0  0.19094951769E+02 -0.30256446332E+00 -0.11747820659E+03  0.14266920687E+03  0.78668067454E+02 0.  0.
          5    1    5    5  501    0  0.27333982371E+02 -0.55064833448E+02  0.24876328324E+02  0.66484616159E+02  0.47000000000E+01 0. -1.
        -13    1    6    6    0    0  0.88213810679E+01 -0.37652086046E+02 -0.37816744516E+02  0.54088839083E+02  0.00000000000E+00 0.  1.
         14    1    6    6    0    0  0.10273570701E+02  0.37349521583E+02 -0.79661462077E+02  0.88580367789E+02  0.00000000000E+00 0. -1.
         -5    1    3    3    0  503  0.16083534120E+02  0.72502007722E+02 -0.43404774343E+02  0.86146884037E+02  0.47000000000E+01 0.  1.
         13    1    4    4    0    0 -0.56553419927E+02 -0.33254212093E+02 -0.56773730149E+02  0.86760523064E+02  0.00000000000E+00 0. -1.
        -14    1    4    4    0    0 -0.59590483336E+01  0.16119602283E+02 -0.99265141154E+02  0.10074184872E+03  0.00000000000E+00 0.  1.
</event>
<event>
12    1  0.8451514E-002  0.2156924E+03  0.7818608E-02  0.1137286E+00
         21   -1    0    0  503  502  0.00000000000E+00  0.00000000000E+00  0.60120831757E+03  0.60120831757E+03  0.00000000000E+00 0. -1.
         21   -1    0    0  501  503 -0.00000000000E+00 -0.00000000000E+00 -0.17541351014E+03  0.17541351014E+03  0.00000000000E+00 0. -1.
          6    2    1    2  501    0  0.11845721712E+03  0.49974987878E+02 -0.77635432117E+02  0.22923885523E+03  0.17318654892E+03 0.  0.
         24    2    3    3    0    0  0.81682075618E+02  0.10144897113E+03 -0.53624341643E+02  0.16141109948E+03  0.78829675862E+02 0.  0.
         -6    2    1    2    0  502 -0.11845721712E+03 -0.49974987878E+02  0.50343023955E+03  0.54738297247E+03  0.17221062905E+03 0.  0.
        -24    2    5    5    0    0  0.72111424145E+01  0.12188499333E+02  0.21823763636E+03  0.22955637408E+03  0.69770358079E+02 0.  0.
          5    1    3    3  501    0  0.36775141505E+02 -0.51473983256E+02 -0.24011090474E+02  0.67827755755E+02  0.47000000000E+01 0. -1.
        -13    1    4    4    0    0 -0.75451725797E+01  0.43707471312E+01 -0.25010968505E+02  0.26487385777E+02  0.00000000000E+00 0.  1.
         14    1    4    4    0    0  0.89227248197E+02  0.97078224002E+02 -0.28613373138E+02  0.13492371370E+03  0.00000000000E+00 0. -1.
         -5    1    5    5    0  502 -0.12566835954E+03 -0.62163487211E+02  0.28519260319E+03  0.31782659839E+03  0.47000000000E+01 0.  1.
         13    1    6    6    0    0 -0.16126138575E+02  0.33830017916E+02  0.14372845904E+03  0.14853414556E+03  0.00000000000E+00 0. -1.
        -14    1    6    6    0    0  0.23337280989E+02 -0.21641518583E+02  0.74509177318E+02  0.81022228525E+02  0.00000000000E+00 0.  1.
</event>
<event>
12    1  0.8451514E-002  0.1775907E+03  0.7818608E-02  0.1170352E+00
         21   -1    0    0  501  502  0.00000000000E+00  0.00000000000E+00  0.18727789495E+03  0.18727789495E+03  0.00000000000E+00 0. -1.
         21   -1    0    0  502  503 -0.00000000000E+00 -0.00000000000E+00 -0.16827924945E+03  0.16827924945E+03  0.00000000000E+00 0. -1.
         -6    2    1    2    0  503  0.15859632184E+02  0.41708906319E+02  0.20391136048E+02  0.17875751302E+03  0.17189324953E+03 0.  0.
        -24    2    3    3    0    0  0.22549767753E+02  0.62481357538E+02  0.68649617707E+02  0.12558586931E+03  0.81526857494E+02 0.  0.
          6    2    1    2  501    0 -0.15859632184E+02 -0.41708906319E+02 -0.13924905424E+01  0.17679963138E+03  0.17107018976E+03 0.  0.
         24    2    5    5    0    0 -0.12711359032E+02 -0.16275017409E+02  0.65112185323E+02  0.10537305200E+03  0.80233587549E+02 0.  0.
          5    1    5    5  501    0 -0.31482731521E+01 -0.25433888910E+02 -0.66504675865E+02  0.71426579373E+02  0.47000000000E+01 0. -1.
        -13    1    6    6    0    0  0.14776890894E+02  0.21277218070E+02  0.70850106224E+00  0.25914831411E+02  0.00000000000E+00 0.  1.
         14    1    6    6    0    0 -0.27488249926E+02 -0.37552235479E+02  0.64403684261E+02  0.79458220593E+02  0.00000000000E+00 0. -1.
         -5    1    3    3    0  503 -0.66901355692E+01 -0.20772451218E+02 -0.48258481659E+02  0.53171643717E+02  0.47000000000E+01 0.  1.
         11    1    4    4    0    0  0.47149851601E+02  0.30564460540E+02  0.14397153205E+02  0.58004937501E+02  0.00000000000E+00 0. -1.
        -12    1    4    4    0    0 -0.24600083848E+02  0.31916896998E+02  0.54252464502E+02  0.67580931806E+02  0.00000000000E+00 0.  1.
</event>
<event>
12    1  0.8451514E-002  0.2024149E+03  0.7818608E-02  0.1148100E+00
         21   -1    0    0  503  502  0.00000000000E+00  0.00000000000E+00  0.40969641547E+02  0.40969641547E+02  0.00000000000E+00 0.  1.
         21   -1    0    0  501  503 -0.00000000000E+00 -0.00000000000E+00 -0.13767260892E+04  0.13767260892E+04  0.00000000000E+00 0.  1.
          6    2    1    2  501    0  0.10158042763E+03  0.22750607311E+02 -0.10452528364E+04  0.10646714376E+04  0.17359609609E+03 0.  0.
         24    2    3    3    0    0  0.17939260136E+02  0.47365294443E+02 -0.77150214884E+03  0.77733321064E+03  0.80411855595E+02 0.  0.
         -6    2    1    2    0  502 -0.10158042763E+03 -0.22750607311E+02 -0.29050361124E+03  0.35302429316E+03  0.17145737081E+03 0.  0.
        -24    2    5    5    0    0 -0.10159290202E+03 -0.31604428759E+02 -0.11041838046E+03  0.17266029826E+03  0.79368773425E+02 0.  0.
          5    1    3    3  501    0  0.83641167495E+02 -0.24614687132E+02 -0.27375068759E+03  0.28733822698E+03  0.47000000000E+01 0. -1.
        -13    1    4    4    0    0  0.24777622756E+02  0.68147876150E+02 -0.62806255230E+03  0.63223463463E+03  0.00000000000E+00 0.  1.
         14    1    4    4    0    0 -0.68383626199E+01 -0.20782581707E+02 -0.14343959653E+03  0.14509857601E+03  0.00000000000E+00 0. -1.
         -5    1    5    5    0  502  0.12474385170E-01  0.88538214484E+01 -0.18008523078E+03  0.18036399490E+03  0.47000000000E+01 0.  1.
         11    1    6    6    0    0  0.10640177612E+02 -0.34641746675E+01  0.19623683006E+01  0.11360667898E+02  0.00000000000E+00 0. -1.
        -12    1    6    6    0    0 -0.11223307963E+03 -0.28140254092E+02 -0.11238074876E+03  0.16129963036E+03  0.00000000000E+00 0.  1.
</event>
<event>
12    1  0.8451514E-002  0.1751699E+03  0.7818608E-02  0.1172714E+00
         21   -1    0    0  503  502  0.00000000000E+00  0.00000000000E+00  0.10898814455E+04  0.10898814455E+04  0.00000000000E+00 0. -1.
         21   -1    0    0  501  503 -0.00000000000E+00 -0.00000000000E+00 -0.28230322809E+02  0.28230322809E+02  0.00000000000E+00 0. -1.
          6    2    1    2  501    0 -0.11740126515E+02 -0.30490164867E+02  0.48597404214E+03  0.51637378729E+03  0.17147488983E+03 0.  0.
         24    2    3    3    0    0 -0.44861520050E+02  0.84219902900E+01  0.43336421258E+03  0.44288183742E+03  0.79096746302E+02 0.  0.
         -6    2    1    2    0  502  0.11740126515E+02  0.30490164867E+02  0.57567708051E+03  0.60173798098E+03  0.17209594999E+03 0.  0.
        -24    2    5    5    0    0 -0.55741563231E+02  0.15891399844E+02  0.40628335172E+03  0.41875375284E+03  0.83239925390E+02 0.  0.
          5    1    3    3  501    0  0.33121393534E+02 -0.38912155157E+02  0.52609829566E+02  0.73491949869E+02  0.47000000000E+01 0. -1.
        -13    1    4    4    0    0  0.10007057027E+02  0.82770674404E+01  0.27454005102E+03  0.27484703136E+03  0.00000000000E+00 0.  1.
         14    1    4    4    0    0 -0.54868577076E+02  0.14492284961E+00  0.15882416155E+03  0.16803480606E+03  0.00000000000E+00 0. -1.
         -5    1    5    5    0  502  0.67481689746E+02  0.14598765023E+02  0.16939372880E+03  0.18298422814E+03  0.47000000000E+01 0.  1.
         13    1    6    6    0    0 -0.19656587510E+02  0.10484625810E+01  0.34835151820E+03  0.34890723830E+03  0.00000000000E+00 0. -1.
        -14    1    6    6    0    0 -0.36084975721E+02  0.14842937263E+02  0.57931833518E+02  0.69846514546E+02  0.00000000000E+00 0.  1.
</event>
<event>
12    1  0.8451514E-002  0.2538635E+03  0.7818608E-02  0.1110909E+00
         21   -1    0    0  503  502  0.00000000000E+00  0.00000000000E+00  0.69591453749E+03  0.69591453749E+03  0.00000000000E+00 0.  1.
         21   -1    0    0  501  503 -0.00000000000E+00 -0.00000000000E+00 -0.14867886446E+03  0.14867886446E+03  0.00000000000E+00 0. -1.
          6    2    1    2  501    0 -0.78571221364E+02 -0.17083463439E+03  0.14210230550E+02  0.25426087654E+03  0.17055425399E+03 0.  0.
         24    2    3    3    0    0 -0.42812278994E+02 -0.20400511414E+02  0.33655653607E+02  0.98346342929E+02  0.79310957939E+02 0.  0.
         -6    2    1    2    0  502  0.78571221364E+02  0.17083463439E+03  0.53302544248E+03  0.59033252540E+03  0.17034805277E+03 0.  0.
        -24    2    5    5    0    0  0.25062240722E+02  0.15095490034E+02  0.13457996050E+03  0.15917271256E+03  0.79800983253E+02 0.  0.
          5    1    3    3  501    0 -0.35758942370E+02 -0.15043412297E+03 -0.19445423057E+02  0.15591453361E+03  0.47000000000E+01 0. -1.
        -11    1    4    4    0    0 -0.21222518049E+02 -0.41141286218E+02  0.46639981295E+02  0.65713686240E+02  0.00000000000E+00 0.  1.
         12    1    4    4    0    0 -0.21589760945E+02  0.20740774803E+02 -0.12984327688E+02  0.32632656690E+02  0.00000000000E+00 0. -1.
         -5    1    5    5    0  502  0.53508980643E+02  0.15573914435E+03  0.39844548198E+03  0.43115981283E+03  0.47000000000E+01 0.  1.
         13    1    6    6    0    0  0.44394111359E+02  0.17326868199E+02  0.38849945890E+02  0.61484760556E+02  0.00000000000E+00 0. -1.
        -14    1    6    6    0    0 -0.19331870637E+02 -0.22313781650E+01  0.95730014608E+02  0.97687952009E+02  0.00000000000E+00 0.  1.
</event>
<event>
12    1  0.8451514E-002  0.1739736E+03  0.7818608E-02  0.1174078E+00
         21   -1    0    0  503  502  0.00000000000E+00  0.00000000000E+00  0.51081558476E+02  0.51081558476E+02  0.00000000000E+00 0.  1.
         21   -1    0    0  501  503 -0.00000000000E+00 -0.00000000000E+00 -0.92921874111E+03  0.92921874111E+03  0.00000000000E+00 0.  1.
          6    2    1    2  501    0 -0.21491425481E+02 -0.23392350517E+01 -0.73495359030E+03  0.75498198816E+03  0.17138748251E+03 0.  0.
         24    2    3    3    0    0  0.25653399704E+02 -0.48984753190E+02 -0.34109917076E+03  0.35555510788E+03  0.83744775839E+02 0.  0.
         -6    2    1    2    0  502  0.21491425481E+02  0.23392350517E+01 -0.14318359234E+03  0.22531831143E+03  0.17262516318E+03 0.  0.
        -24    2    5    5    0    0  0.71101767898E+01  0.24846732766E+02 -0.16853111152E+03  0.18819696318E+03  0.79670864531E+02 0.  0.
          5    1    3    3  501    0 -0.47144825185E+02  0.46645518138E+02 -0.39385441953E+03  0.39942688028E+03  0.47000000000E+01 0. -1.
        -11    1    4    4    0    0 -0.28756751312E+02 -0.60954421337E+01 -0.13358475617E+03  0.13678081825E+03  0.00000000000E+00 0.  1.
         12    1    4    4    0    0  0.54410151017E+02 -0.42889311056E+02 -0.20751441459E+03  0.21877428962E+03  0.00000000000E+00 0. -1.
         -5    1    5    5    0  502  0.14381248691E+02 -0.22507497714E+02  0.25347519185E+02  0.37121348253E+02  0.47000000000E+01 0.  1.
         13    1    6    6    0    0 -0.21347523776E+02  0.17245687125E+02 -0.13857138353E+02  0.30743304623E+02  0.00000000000E+00 0. -1.
        -14    1    6    6    0    0  0.28457700566E+02  0.76010456410E+01 -0.15467397317E+03  0.15745365856E+03  0.00000000000E+00 0.  1.
</event>
<event>
12    1  0.8451514E-002  0.2027807E+03  0.7818608E-02  0.1148590E+00
         21   -1    0    0  501  502  0.00000000000E+00  0.00000000000E+00  0.87200095678E+02  0.87200095678E+02  0.00000000000E+00 0. -1.
         21   -1    0    0  502  503 -0.00000000000E+00 -0.00000000000E+00 -0.10923355658E+04  0.10923355658E+04  0.00000000000E+00 0. -1.
         -6    2    1    2    0  503 -0.81861970112E+02  0.67118483825E+02 -0.95470335681E+03  0.97600128160E+03  0.17295585899E+03 0.  0.
        -24    2    3    3    0    0 -0.31378664116E+02  0.74645122439E+02 -0.86688877548E+03  0.87432185808E+03  0.79912749904E+02 0.  0.
          6    2    1    2  501    0  0.81861970112E+02 -0.67118483825E+02 -0.50432113267E+02  0.20353437983E+03  0.16636277439E+03 0.  0.
         24    2    5    5    0    0 -0.10591493405E+02 -0.48893996271E+02 -0.55955082843E+02  0.10902317385E+03  0.79071350923E+02 0.  0.
          5    1    5    5  501    0  0.92453463518E+02 -0.18224487554E+02  0.55229695761E+01  0.94511205981E+02  0.47000000000E+01 0. -1.
        -11    1    6    6    0    0  0.19953971203E+02 -0.48146602227E+02 -0.58517043450E+02  0.78361346637E+02  0.00000000000E+00 0.  1.
         12    1    6    6    0    0 -0.30545464608E+02 -0.74739404424E+00  0.25619606063E+01  0.30661827214E+02  0.00000000000E+00 0. -1.
         -5    1    3    3    0  503 -0.50483305996E+02 -0.75266386143E+01 -0.87814581326E+02  0.10167942352E+03  0.47000000000E+01 0.  1.
         13    1    4    4    0    0 -0.58389868543E+02  0.48995187813E+02 -0.61101497603E+03  0.61575092863E+03  0.00000000000E+00 0. -1.
        -14    1    4    4    0    0  0.27011204427E+02  0.25649934626E+02 -0.25587379945E+03  0.25857092945E+03  0.00000000000E+00 0.  1.
</event>
<event>
12    1  0.8451514E-002  0.2153746E+03  0.7818608E-02  0.1137410E+00
         21   -1    0    0  503  502  0.00000000000E+00  0.00000000000E+00  0.92343797138E+02  0.92343797138E+02  0.00000000000E+00 0.  1.
         21   -1    0    0  501  503 -0.00000000000E+00 -0.00000000000E+00 -0.81309369943E+03  0.81309369943E+03  0.00000000000E+00 0.  1.
          6    2    1    2  501    0  0.64673892517E+02  0.11276614080E+03 -0.64034579861E+03  0.67554397750E+03  0.17151678886E+03 0.  0.
         24    2    3    3    0    0  0.10788721533E+03  0.10608873125E+03 -0.50189199565E+03  0.53027345531E+03  0.79999324808E+02 0.  0.
         -6    2    1    2    0  502 -0.64673892517E+02 -0.11276614080E+03 -0.80404103678E+02  0.22989351906E+03  0.17171865167E+03 0.  0.
        -24    2    5    5    0    0 -0.58691166487E+02 -0.38754119468E+02  0.16869225455E+02  0.10742816529E+03  0.79433652385E+02 0.  0.
          5    1    3    3  501    0 -0.43213322816E+02  0.66774095475E+01 -0.13845380296E+03  0.14527052220E+03  0.47000000000E+01 0. -1.
        -13    1    4    4    0    0  0.91988726383E+02  0.72917293474E+02 -0.45898273646E+03  0.47375522144E+03  0.00000000000E+00 0.  1.
         14    1    4    4    0    0  0.15898488950E+02  0.33171437779E+02 -0.42909259191E+02  0.56518233868E+02  0.00000000000E+00 0. -1.
         -5    1    5    5    0  502 -0.59827260303E+01 -0.74012021333E+02 -0.97273329133E+02  0.12246535377E+03  0.47000000000E+01 0.  1.
         13    1    6    6    0    0  0.17949357420E+02 -0.48211694524E+01  0.14509218430E+02  0.23578391085E+02  0.00000000000E+00 0. -1.
        -14    1    6    6    0    0 -0.76640523907E+02 -0.33932950016E+02  0.23600070250E+01  0.83849774207E+02  0.00000000000E+00 0.  1.
</event>
<event>
12    1  0.8451514E-002  0.2128408E+03  0.7818608E-02  0.1139664E+00
         21   -1    0    0  501  502  0.00000000000E+00  0.00000000000E+00  0.10901835956E+03  0.10901835956E+03  0.00000000000E+00 0.  1.
         21   -1    0    0  502  503 -0.00000000000E+00 -0.00000000000E+00 -0.50666263325E+03  0.50666263325E+03  0.00000000000E+00 0. -1.
         -6    2    1    2    0  503  0.75878714311E+02 -0.98229786820E+02 -0.33105663473E+03  0.39266730752E+03  0.17082871155E+03 0.  0.
        -24    2    3    3    0    0  0.20391035794E+02 -0.61898210970E+02 -0.30417571591E+03  0.32094883244E+03  0.78981668962E+02 0.  0.
          6    2    1    2  501    0 -0.75878714311E+02  0.98229786820E+02 -0.66587638964E+02  0.22301368529E+03  0.17290031770E+03 0.  0.
         24    2    5    5    0    0 -0.72034301529E+02  0.38192830400E+02  0.21316101402E+02  0.11639111162E+03  0.80280021145E+02 0.  0.
          5    1    5    5  501    0 -0.38444127822E+01  0.60036956420E+02 -0.87903740366E+02  0.10662257367E+03  0.47000000000E+01 0. -1.
        -13    1    6    6    0    0 -0.48161936636E+02  0.58000303784E+02 -0.52192503673E+01  0.75570152534E+02  0.00000000000E+00 0.  1.
         14    1    6    6    0    0 -0.23872364893E+02 -0.19807473383E+02  0.26535351770E+02  0.40820959089E+02  0.00000000000E+00 0. -1.
         -5    1    3    3    0  503  0.55487678518E+02 -0.36331575850E+02 -0.26880918823E+02  0.71718475080E+02  0.47000000000E+01 0.  1.
         13    1    4    4    0    0  0.31988445854E+02 -0.31742272530E+02 -0.27069685386E+03  0.27442233733E+03  0.00000000000E+00 0. -1.
        -14    1    4    4    0    0 -0.11597410060E+02 -0.30155938440E+02 -0.33478862049E+02  0.46526495111E+02  0.00000000000E+00 0.  1.
</event>
<event>
12    1  0.8451514E-002  0.2268354E+03  0.7818608E-02  0.1128977E+00
         21   -1    0    0  501  502  0.00000000000E+00  0.00000000000E+00  0.48984149664E+03  0.48984149664E+03  0.00000000000E+00 0. -1.
         21   -1    0    0  502  503 -0.00000000000E+00 -0.00000000000E+00 -0.15137468873E+03  0.15137468873E+03  0.00000000000E+00 0.  1.
         -6    2    1    2    0  503 -0.97004437952E+02  0.11366645940E+03 -0.84549101286E+01  0.22699291467E+03  0.17065864417E+03 0.  0.
        -24    2    3    3    0    0 -0.12015407328E+03  0.13144027940E+03  0.21237823817E+00  0.19618664614E+03  0.82314073195E+02 0.  0.
          6    2    1    2  501    0  0.97004437952E+02 -0.11366645940E+03  0.34692171804E+03  0.41422327070E+03  0.16998916015E+03 0.  0.
         24    2    5    5    0    0  0.10807619592E+03 -0.82935080301E+02  0.16058504414E+03  0.22498678499E+03  0.79201043859E+02 0.  0.
          5    1    5    5  501    0 -0.11071757968E+02 -0.30731379100E+02  0.18633667389E+03  0.18923648571E+03  0.47000000000E+01 0. -1.
        -11    1    6    6    0    0  0.63136070979E+02  0.12375926731E+00  0.63325173212E+02  0.89421788941E+02  0.00000000000E+00 0.  1.
         12    1    6    6    0    0  0.44940124940E+02 -0.83058839568E+02  0.97259870931E+02  0.13556499605E+03  0.00000000000E+00 0. -1.
         -5    1    3    3    0  503  0.23149635323E+02 -0.17773820001E+02 -0.86672883668E+01  0.30806268529E+02  0.47000000000E+01 0.  1.
         11    1    4    4    0    0 -0.35962155858E+02  0.69770156755E+02  0.35325408910E+02  0.86075756995E+02  0.00000000000E+00 0. -1.
        -12    1    4    4    0    0 -0.84191917417E+02  0.61670122646E+02 -0.35113030672E+02  0.11011088915E+03  0.00000000000E+00 0.  1.
</event>
<event>
12    1  0.8451514E-002  0.2320972E+03  0.7818608E-02  0.1125365E+00
         21   -1    0    0  503  502  0.00000000000E+00  0.00000000000E+00  0.42975523042E+03  0.42975523042E+03  0.00000000000E+00 0.  1.
         21   -1    0    0  501  503 -0.00000000000E+00 -0.00000000000E+00 -0.23819976777E+03  0.23819976777E+03  0.00000000000E+00 0.  1.
          6    2    1    2  501    0  0.10889289519E+03  0.10976542940E+03  0.32614294990E+03  0.39965866642E+03  0.17161501613E+03 0.  0.
         24    2    3    3    0    0 -0.10115197086E+02  0.66685376537E+02  0.14350106597E+03  0.17739988763E+03  0.79554431318E+02 0.  0.
         -6    2    1    2    0  502 -0.10889289519E+03 -0.10976542940E+03 -0.13458748724E+03  0.26829633177E+03  0.17309828944E+03 0.  0.
        -24    2    5    5    0    0 -0.13946262259E+03 -0.11873308849E+03 -0.11518690070E+03  0.23070112063E+03  0.80047583114E+02 0.  0.
          5    1    3    3  501    0  0.11900809228E+03  0.43080052858E+02  0.18264188393E+03  0.22225877878E+03  0.47000000000E+01 0. -1.
        -13    1    4    4    0    0  0.32238993456E+02  0.36455523865E+02  0.92593391191E+02  0.10460350860E+03  0.00000000000E+00 0.  1.
         14    1    4    4    0    0 -0.42354190542E+02  0.30229852671E+02  0.50907674778E+02  0.72796379033E+02  0.00000000000E+00 0. -1.
         -5    1    5    5    0  502  0.30569727402E+02  0.89676590922E+01 -0.19400586539E+02  0.37595211146E+02  0.47000000000E+01 0.  1.
         11    1    6    6    0    0 -0.10784656923E+03 -0.54798028199E+02 -0.40851077413E+02  0.12768130996E+03  0.00000000000E+00 0. -1.
        -12    1    6    6    0    0 -0.31616053366E+02 -0.63935060289E+02 -0.74335823290E+02  0.10301981066E+03  0.00000000000E+00 0.  1.
</event>
<event>
12    1  0.8451514E-002  0.2527571E+03  0.7818608E-02  0.1111578E+00
         21   -1    0    0  501  502  0.00000000000E+00  0.00000000000E+00  0.56920758205E+03  0.56920758205E+03  0.00000000000E+00 0. -1.
         21   -1    0    0  502  503 -0.00000000000E+00 -0.00000000000E+00 -0.10950617130E+04  0.10950617130E+04  0.00000000000E+00 0. -1.
         -6    2    1    2    0  503  0.33450087627E+02  0.18184395296E+03 -0.10512701140E+04  0.10812284645E+04  0.17233690310E+03 0.  0.
        -24    2    3    3    0    0  0.19651051680E+02  0.10037096480E+02 -0.30038385901E+03  0.31079983878E+03  0.76675745150E+02 0.  0.
          6    2    1    2  501    0 -0.33450087627E+02 -0.18184395296E+03  0.52541598302E+03  0.58304083063E+03  0.17230357911E+03 0.  0.
         24    2    5    5    0    0 -0.79745846562E+02 -0.10799873493E+03  0.25005861358E+03  0.29418068380E+03  0.77394041788E+02 0.  0.
          5    1    5    5  501    0  0.46295758935E+02 -0.73845218028E+02  0.27535736944E+03  0.28886014683E+03  0.47000000000E+01 0. -1.
        -13    1    6    6    0    0 -0.23698381361E+02 -0.39642799086E+02  0.16560807267E+03  0.17192788759E+03  0.00000000000E+00 0.  1.
         14    1    6    6    0    0 -0.56047465201E+02 -0.68355935844E+02  0.84450540917E+02  0.12225279621E+03  0.00000000000E+00 0. -1.
         -5    1    3    3    0  503  0.13799035948E+02  0.17180685648E+03 -0.75088625499E+03  0.77042862567E+03  0.47000000000E+01 0.  1.
         13    1    4    4    0    0  0.53926128669E+01  0.59312133160E+01 -0.29485722316E+03  0.29496617029E+03  0.00000000000E+00 0. -1.
        -14    1    4    4    0    0  0.14258438813E+02  0.41058831639E+01 -0.55266358419E+01  0.15833668484E+02  0.00000000000E+00 0.  1.
</event>
<event>
12    1  0.8451514E-002  0.2251897E+03  0.7818608E-02  0.1130382E+00
         21   -1    0    0  503  502  0.00000000000E+00  0.00000000000E+00  0.31133684991E+03  0.31133684991E+03  0.00000000000E+00 0. -1.
         21   -1    0    0  501  503 -0.00000000000E+00 -0.00000000000E+00 -0.17754984821E+03  0.17754984821E+03  0.00000000000E+00 0. -1.
          6    2    1    2  501    0 -0.12157997462E+03 -0.75691249301E+02 -0.60294423889E+01  0.22527039034E+03  0.17378014598E+03 0.  0.
         24    2    3    3    0    0 -0.11211375219E+03 -0.13223800973E+02  0.43456621879E+02  0.14487914688E+03  0.79731592691E+02 0.  0.
         -6    2    1    2    0  502  0.12157997462E+03  0.75691249301E+02  0.13981644409E+03  0.26361630778E+03  0.17156358658E+03 0.  0.
        -24    2    5    5    0    0  0.66909138925E+01  0.58311494593E+02  0.30242343378E+02  0.10383481418E+03  0.80137822364E+02 0.  0.
          5    1    3    3  501    0 -0.94662224240E+01 -0.62467448328E+02 -0.49486064267E+02  0.80391243455E+02  0.47000000000E+01 0. -1.
        -13    1    4    4    0    0  0.48441664474E+01  0.13817542800E+02  0.16091907130E+02  0.21756376368E+02  0.00000000000E+00 0.  1.
         14    1    4    4    0    0 -0.11695791864E+03 -0.27041343773E+02  0.27364714748E+02  0.12312277051E+03  0.00000000000E+00 0. -1.
         -5    1    5    5    0  502  0.11488906072E+03  0.17379754707E+02  0.10957410071E+03  0.15978149359E+03  0.47000000000E+01 0.  1.
         13    1    6    6    0    0  0.36833873076E+02  0.55672871255E+02  0.10172052794E+02  0.67525354183E+02  0.00000000000E+00 0. -1.
        -14    1    6    6    0    0 -0.30142959183E+02  0.26386233384E+01  0.20070290584E+02  0.36309460001E+02  0.00000000000E+00 0.  1.
</event>
<event>
12    1  0.8451514E-002  0.2094307E+03  0.7818608E-02  0.1142201E+00
         21   -1    0    0  503  502  0.00000000000E+00  0.00000000000E+00  0.14361834877E+03  0.14361834877E+03  0.00000000000E+00 0.  1.
         21   -1    0    0  501  503 -0.00000000000E+00 -0.00000000000E+00 -0.92342524151E+03  0.92342524151E+03  0.00000000000E+00 0.  1.
          6    2    1    2  501    0  0.40381586715E+02 -0.11066128837E+03 -0.82656361247E+03  0.85245701116E+03  0.17204347455E+03 0.  0.
         24    2    3    3    0    0 -0.73113262309E+01 -0.10810874990E+03 -0.74882823399E+03  0.76110052007E+03  0.82397332070E+02 0.  0.
         -6    2    1    2    0  502 -0.40381586715E+02  0.11066128837E+03  0.46756719728E+02  0.21458657912E+03  0.17316066472E+03 0.  0.
        -24    2    5    5    0    0 -0.79567947154E+02  0.58814343630E+02 -0.10949780844E+02  0.12754746876E+03  0.79738785139E+02 0.  0.
          5    1    3    3  501    0  0.47692912946E+02 -0.25525384709E+01 -0.77735378475E+02  0.91356491091E+02  0.47000000000E+01 0. -1.
        -11    1    4    4    0    0  0.13001178196E+02 -0.11418235723E+03 -0.62988263397E+03  0.64028023077E+03  0.00000000000E+00 0.  1.
         12    1    4    4    0    0 -0.20312504427E+02  0.60736073335E+01 -0.11894560002E+03  0.12082028930E+03  0.00000000000E+00 0. -1.
         -5    1    5    5    0  502  0.39186360439E+02  0.51846944740E+02  0.57706500572E+02  0.87039110356E+02  0.47000000000E+01 0.  1.
         11    1    6    6    0    0 -0.24215039523E+02 -0.18456380040E+02 -0.11355720766E+02  0.32495515034E+02  0.00000000000E+00 0. -1.
        -12    1    6    6    0    0 -0.55352907632E+02  0.77270723670E+02  0.40593992148E+00  0.95051953725E+02  0.00000000000E+00 0.  1.
</event>
<event>
12    1  0.8451514E-002  0.1768505E+03  0.7818608E-02  0.1170955E+00
         21   -1    0    0  503  502  0.00000000000E+00  0.00000000000E+00  0.59001220674E+03  0.59001220674E+03  0.00000000000E+00 0.  1.
         21   -1    0    0  501  503 -0.00000000000E+00 -0.00000000000E+00 -0.16793425136E+03  0.16793425136E+03  0.00000000000E+00 0.  1.
          6    2    1    2  501    0 -0.14758885885E+02  0.34752767759E+02 -0.10263364034E+03  0.20423319857E+03  0.17248755227E+03 0.  0.
         24    2    3    3    0    0 -0.96469719131E+01  0.86856512409E+02 -0.45672786331E+02  0.12672474251E+03  0.79599240820E+02 0.  0.
         -6    2    1    2    0  502  0.14758885885E+02 -0.34752767759E+02  0.52471159572E+03  0.55371325953E+03  0.17277307520E+03 0.  0.
        -24    2    5    5    0    0  0.21623776552E+02  0.35314485017E+02  0.40637949127E+03  0.41594126100E+03  0.78410082963E+02 0.  0.
          5    1    3    3  501    0 -0.51119139719E+01 -0.52103744650E+02 -0.56960854009E+02  0.77508456058E+02  0.47000000000E+01 0. -1.
        -11    1    4    4    0    0 -0.10521347010E+02  0.26557521065E+02 -0.58471484839E+02  0.65076226130E+02  0.00000000000E+00 0.  1.
         12    1    4    4    0    0  0.87437509653E+00  0.60298991344E+02  0.12798698508E+02  0.61648516384E+02  0.00000000000E+00 0. -1.
         -5    1    5    5    0  502 -0.68648906675E+01 -0.70067252776E+02  0.11833210444E+03  0.13777199852E+03  0.47000000000E+01 0.  1.
         11    1    6    6    0    0  0.19183128429E+02 -0.74505481515E+01  0.26005708403E+02  0.33163231954E+02  0.00000000000E+00 0. -1.
        -12    1    6    6    0    0  0.24406481232E+01  0.42765033168E+02  0.38037378287E+03  0.38277802905E+03  0.00000000000E+00 0.  1.
</event>
<event>
12    1  0.8451514E-002  0.1811139E+03  0.7818608E-02  0.1166960E+00
         21   -1    0    0  501  502  0.00000000000E+00  0.00000000000E+00  0.34787615856E+03  0.34787615856E+03  0.00000000000E+00 0.  1.
         21   -1    0    0  502  503 -0.00000000000E+00 -0.00000000000E+00 -0.11810388449E+03  0.11810388449E+03  0.00000000000E+00 0.  1.
         -6    2    1    2    0  503 -0.40984280630E+02  0.35754618112E+02  0.94244485937E+01  0.18135895681E+03  0.17275458607E+03 0.  0.
        -24    2    3    3    0    0  0.23013436239E+02 -0.30163372064E+02 -0.52679972068E+01  0.88198626426E+02  0.79446829055E+02 0.  0.
          6    2    1    2  501    0  0.40984280630E+02 -0.35754618112E+02  0.22034782547E+03  0.28462108624E+03  0.17174951111E+03 0.  0.
         24    2    5    5    0    0  0.55162324848E+02  0.29549208606E+02  0.18111412270E+03  0.20698745851E+03  0.78265220402E+02 0.  0.
          5    1    5    5  501    0 -0.14178044218E+02 -0.65303826718E+02  0.39233702768E+02  0.77633627732E+02  0.47000000000E+01 0. -1.
        -11    1    6    6    0    0  0.59867626495E+02  0.11513456679E+02  0.63962494204E+02  0.88362282970E+02  0.00000000000E+00 0.  1.
         12    1    6    6    0    0 -0.47053016466E+01  0.18035751927E+02  0.11715162850E+03  0.11862517554E+03  0.00000000000E+00 0. -1.
         -5    1    3    3    0  503 -0.63997716869E+02  0.65917990177E+02  0.14692445800E+02  0.93160330383E+02  0.47000000000E+01 0.  1.
         11    1    4    4    0    0 -0.24474835168E+02 -0.30621961304E+02  0.52680466323E+01  0.39553437094E+02  0.00000000000E+00 0. -1.
        -12    1    4    4    0    0  0.47488271407E+02  0.45858923982E+00 -0.10536043839E+02  0.48645189332E+02  0.00000000000E+00 0.  1.
</event>
<event>
12    1  0.8451514E-002  0.1822933E+03  0.7818608E-02  0.1166196E+00
         21   -1    0    0  503  502  0.00000000000E+00  0.00000000000E+00  0.61997497956E+02  0.61997497956E+02  0.00000000000E+00 0. -1.
         21   -1    0    0  501  503 -0.00000000000E+00 -0.00000000000E+00 -0.57894414271E+03  0.57894414271E+03  0.00000000000E+00 0.  1.
          6    2    1    2  501    0  0.37075491926E+02 -0.46116090789E+02 -0.35445759943E+03  0.39858628271E+03  0.17242258855E+03 0.  0.
         24    2    3    3    0    0 -0.36280985943E+02 -0.26283123259E+02 -0.26769821581E+03  0.28315751640E+03  0.80676711856E+02 0.  0.
         -6    2    1    2    0  502 -0.37075491926E+02  0.46116090789E+02 -0.16248904533E+03  0.24235535796E+03  0.16980030550E+03 0.  0.
        -24    2    5    5    0    0 -0.57562317753E+02 -0.25553615612E+02 -0.82944028490E+02  0.13324185489E+03  0.83110001421E+02 0.  0.
          5    1    3    3  501    0  0.73356477869E+02 -0.19832967530E+02 -0.86759383615E+02  0.11542876631E+03  0.47000000000E+01 0. -1.
        -13    1    4    4    0    0 -0.83976295092E+01  0.28873886836E+02 -0.10049121815E+03  0.10489378650E+03  0.00000000000E+00 0.  1.
         14    1    4    4    0    0 -0.27883356434E+02 -0.55157010094E+02 -0.16720699766E+03  0.17826372989E+03  0.00000000000E+00 0. -1.
         -5    1    5    5    0  502  0.20486825827E+02  0.71669706401E+02 -0.79545016838E+02  0.10911350307E+03  0.47000000000E+01 0.  1.
         13    1    6    6    0    0 -0.81426302270E+01 -0.44496904696E+02 -0.16175234006E+02  0.48040765499E+02  0.00000000000E+00 0. -1.
        -14    1    6    6    0    0 -0.49419687526E+02  0.18943289084E+02 -0.66768794483E+02  0.85201089390E+02  0.00000000000E+00 0.  1.
</event>
<event>
12    1  0.8451514E-002  0.2179006E+03  0.7818608E-02  0.1136461E+00
         21   -1    0    0  503  502  0.00000000000E+00  0.00000000000E+00  0.73827522856E+03  0.73827522856E+03  0.00000000000E+00 0.  1.
         21   -1    0    0  501  503 -0.00000000000E+00 -0.00000000000E+00 -0.17414338430E+03  0.17414338430E+03  0.00000000000E+00 0. -1.
          6    2    1    2  501    0 -0.12567021150E+03  0.31062351282E+02 -0.83996183490E+02  0.22864188280E+03  0.16871241805E+03 0.  0.
         24    2    3    3    0    0 -0.75095429614E+02  0.75658900886E+02 -0.15205200100E+02  0.13220044878E+03  0.76695291359E+02 0.  0.
         -6    2    1    2    0  502  0.12567021150E+03 -0.31062351282E+02  0.64812802776E+03  0.68377673006E+03  0.17527921862E+03 0.  0.
        -24    2    5    5    0    0  0.17774950305E+02 -0.66958549156E+01  0.44479260658E+03  0.45225459929E+03  0.79579999831E+02 0.  0.
          5    1    3    3  501    0 -0.50574781886E+02 -0.44596549604E+02 -0.68790983390E+02  0.96441434017E+02  0.47000000000E+01 0. -1.
        -11    1    4    4    0    0  0.12846536998E+01 -0.13576295343E+02 -0.39772479354E+01  0.14205091745E+02  0.00000000000E+00 0.  1.
         12    1    4    4    0    0 -0.76380083313E+02  0.89235196229E+02 -0.11227952165E+02  0.11799535704E+03  0.00000000000E+00 0. -1.
         -5    1    5    5    0  502  0.10789526119E+03 -0.24366496367E+02  0.20333542117E+03  0.23152213077E+03  0.47000000000E+01 0.  1.
         13    1    6    6    0    0 -0.23904895051E+02 -0.26299251357E+02  0.17760747485E+03  0.18112843441E+03  0.00000000000E+00 0. -1.
        -14    1    6    6    0    0  0.41679845356E+02  0.19603396442E+02  0.26718513173E+03  0.27112616487E+03  0.00000000000E+00 0.  1.
</event>
<event>
12    1  0.8451514E-002  0.2401940E+03  0.7818608E-02  0.1119793E+00
         21   -1    0    0  503  502  0.00000000000E+00  0.00000000000E+00  0.32914142592E+03  0.32914142592E+03  0.00000000000E+00 0.  1.
         21   -1    0    0  501  503 -0.00000000000E+00 -0.00000000000E+00 -0.20832306215E+03  0.20832306215E+03  0.00000000000E+00 0. -1.
          6    2    1    2  501    0  0.14637359984E+03  0.82077902707E+02 -0.47601971775E+02  0.24410709546E+03  0.17076391158E+03 0.  0.
         24    2    3    3    0    0  0.16874596686E+03  0.45441084385E+02 -0.12161771077E+02  0.18824228464E+03  0.68899605015E+02 0.  0.
         -6    2    1    2    0  502 -0.14637359984E+03 -0.82077902707E+02  0.16842033555E+03  0.29335739261E+03  0.17184626132E+03 0.  0.
        -24    2    5    5    0    0 -0.14182170302E+02 -0.52707032459E+02  0.28807831575E+02  0.98804152270E+02  0.77157009536E+02 0.  0.
          5    1    3    3  501    0 -0.22372367018E+02  0.36636818322E+02 -0.35440200698E+02  0.55864810823E+02  0.47000000000E+01 0. -1.
        -13    1    4    4    0    0  0.64971100489E+02  0.50671716234E+02  0.65880471455E+01  0.82657541036E+02  0.00000000000E+00 0.  1.
         14    1    4    4    0    0  0.10377486637E+03 -0.52306318492E+01 -0.18749818222E+02  0.10558474361E+03  0.00000000000E+00 0. -1.
         -5    1    5    5    0  502 -0.13219142954E+03 -0.29370870248E+02  0.13961250397E+03  0.19455324034E+03  0.47000000000E+01 0.  1.
         13    1    6    6    0    0  0.21091489307E+01 -0.57886979775E+02 -0.77550888527E+01  0.58442213680E+02  0.00000000000E+00 0. -1.
        -14    1    6    6    0    0 -0.16291319232E+02  0.51799473160E+01  0.36562920428E+02  0.40361938590E+02  0.00000000000E+00 0.  1.
</event>
<event>
12    1  0.8451514E-002  0.2054819E+03  0.7818608E-02  0.1146739E+00
         21   -1    0    0  503  502  0.00000000000E+00  0.00000000000E+00  0.37895506051E+02  0.37895506051E+02  0.00000000000E+00 0.  1.
         21   -1    0    0  501  503 -0.00000000000E+00 -0.00000000000E+00 -0.13839376524E+04  0.13839376524E+04  0.00000000000E+00 0. -1.
          6    2    1    2  501    0 -0.49212816197E+02  0.10043895039E+03 -0.10189145727E+04  0.10394275885E+04  0.17237436409E+03 0.  0.
         24    2    3    3    0    0  0.54082023289E+01  0.11856157811E+03 -0.61785489779E+03  0.63423277353E+03  0.80127647154E+02 0.  0.
         -6    2    1    2    0  502  0.49212816197E+02 -0.10043895039E+03 -0.32712757365E+03  0.38240556988E+03  0.16343710227E+03 0.  0.
        -24    2    5    5    0    0  0.49748041164E+02 -0.39092204056E+02 -0.29667629312E+03  0.31375369272E+03  0.80134192316E+02 0.  0.
          5    1    3    3  501    0 -0.54621018526E+02 -0.18122627726E+02 -0.40105967487E+03  0.40519481501E+03  0.47000000000E+01 0. -1.
        -11    1    4    4    0    0 -0.33153335561E+01 -0.10257745834E+02 -0.21384727250E+02  0.23948263940E+02  0.00000000000E+00 0.  1.
         12    1    4    4    0    0  0.87235358850E+01  0.12881932395E+03 -0.59647017054E+03  0.61028450959E+03  0.00000000000E+00 0. -1.
         -5    1    5    5    0  502 -0.53522496740E+00 -0.61346746329E+02 -0.30451280526E+02  0.68651877153E+02  0.47000000000E+01 0.  1.
         11    1    6    6    0    0  0.86015039005E+01 -0.49469799863E+02 -0.22432678978E+03  0.22987769700E+03  0.00000000000E+00 0. -1.
        -12    1    6    6    0    0  0.41146537264E+02  0.10377595806E+02 -0.72349503346E+02  0.83875995719E+02  0.00000000000E+00 0.  1.
</event>
<event>
12    1  0.8451514E-002  0.1857354E+03  0.7818608E-02  0.1163300E+00
         21   -1    0    0  501  502  0.00000000000E+00  0.00000000000E+00  0.16196302230E+03  0.16196302230E+03  0.00000000000E+00 0. -1.
         21   -1    0    0  502  503 -0.00000000000E+00 -0.00000000000E+00 -0.28066816286E+03  0.28066816286E+03  0.00000000000E+00 0. -1.
         -6    2    1    2    0  503 -0.59977431417E+02 -0.10563109285E+02 -0.17112860865E+03  0.24963929780E+03  0.17124808540E+03 0.  0.
        -24    2    3    3    0    0 -0.46146734198E+02  0.38672725171E+02 -0.17115830434E+03  0.19828224900E+03  0.79972397569E+02 0.  0.
          6    2    1    2  501    0  0.59977431417E+02  0.10563109285E+02  0.52423468097E+02  0.19299188736E+03  0.17546731041E+03 0.  0.
         24    2    5    5    0    0 -0.18039858226E+02  0.49149030329E+02  0.11902201768E+02  0.96868873410E+02  0.80627864673E+02 0.  0.
          5    1    5    5  501    0  0.78017289643E+02 -0.38585921043E+02  0.40521266329E+02  0.96123013951E+02  0.47000000000E+01 0. -1.
        -13    1    6    6    0    0 -0.35198353238E+02 -0.63991559734E+01 -0.54697445679E+01  0.36191039961E+02  0.00000000000E+00 0.  1.
         14    1    6    6    0    0  0.17158495012E+02  0.55548186302E+02  0.17371946336E+02  0.60677833449E+02  0.00000000000E+00 0. -1.
         -5    1    3    3    0  503 -0.13830697219E+02 -0.49235834457E+02  0.29695690899E-01  0.51357048806E+02  0.47000000000E+01 0.  1.
         13    1    4    4    0    0 -0.31182999159E+02 -0.20703711297E+02 -0.49246841815E+02  0.61856887464E+02  0.00000000000E+00 0. -1.
        -14    1    4    4    0    0 -0.14963735039E+02  0.59376436468E+02 -0.12191146252E+03  0.13642536153E+03  0.00000000000E+00 0.  1.
</event>
<event>
12    1  0.8451514E-002  0.1792837E+03  0.7818608E-02  0.1168904E+00
         21   -1    0    0  503  502  0.00000000000E+00  0.00000000000E+00  0.55338418181E+02  0.55338418181E+02  0.00000000000E+00 0. -1.
         21   -1    0    0  501  503 -0.00000000000E+00 -0.00000000000E+00 -0.58467727609E+03  0.58467727609E+03  0.00000000000E+00 0. -1.
          6    2    1    2  501    0  0.47613730587E+02  0.97366209375E+01 -0.30604931204E+03  0.35469539109E+03  0.17257105764E+03 0.  0.
         24    2    3    3    0    0  0.86780130217E+02  0.39073217360E+02 -0.25656673548E+03  0.28494398872E+03  0.79429715085E+02 0.  0.
         -6    2    1    2    0  502 -0.47613730587E+02 -0.97366209375E+01 -0.22328954587E+03  0.28532030318E+03  0.17084374435E+03 0.  0.
        -24    2    5    5    0    0 -0.44301896275E+02 -0.61313371174E+02 -0.20432310561E+03  0.23006683933E+03  0.73897439559E+02 0.  0.
          5    1    3    3  501    0 -0.39166399630E+02 -0.29336596423E+02 -0.49482576555E+02  0.69751402367E+02  0.47000000000E+01 0. -1.
        -11    1    4    4    0    0  0.30338369759E+02  0.20624464750E+02 -0.19860445835E+03  0.20196414559E+03  0.00000000000E+00 0.  1.
         12    1    4    4    0    0  0.56441760458E+02  0.18448752610E+02 -0.57962277125E+02  0.82979843131E+02  0.00000000000E+00 0. -1.
         -5    1    5    5    0  502 -0.33118343123E+01  0.51576750237E+02 -0.18966440262E+02  0.55253463853E+02  0.47000000000E+01 0.  1.
         11    1    6    6    0    0 -0.45711763282E+02 -0.21607065067E+02 -0.17065915039E+03  0.17799150591E+03  0.00000000000E+00 0. -1.
        -12    1    6    6    0    0  0.14098670071E+01 -0.39706306108E+02 -0.33663955219E+02  0.52075333419E+02  0.00000000000E+00 0.  1.
</event>
<event>
12    1  0.8451514E-002  0.1795200E+03  0.7818608E-02  0.1168297E+00
         21   -1    0    0  503  502  0.00000000000E+00  0.00000000000E+00  0.62412455224E+03  0.62412455224E+03  0.00000000000E+00 0. -1.
         21   -1    0    0  501  503 -0.00000000000E+00 -0.00000000000E+00 -0.51870910382E+02  0.51870910382E+02  0.00000000000E+00 0. -1.
          6    2    1    2  501    0 -0.47084209643E+02  0.46237092105E+01  0.31037564311E+03  0.35849348567E+03  0.17304981348E+03 0.  0.
         24    2    3    3    0    0  0.26275969078E+02  0.22238033771E+02  0.10002839221E+03  0.13497606752E+03  0.83832588290E+02 0.  0.
         -6    2    1    2    0  502  0.47084209643E+02 -0.46237092105E+01  0.26187799875E+03  0.31750197695E+03  0.17317366329E+03 0.  0.
        -24    2    5    5    0    0  0.64520838335E+02  0.45142677841E+02  0.12722213334E+03  0.17281258070E+03  0.86474949516E+02 0.  0.
          5    1    3    3  501    0 -0.73360178722E+02 -0.17614324560E+02  0.21034725090E+03  0.22351741814E+03  0.47000000000E+01 0. -1.
        -11    1    4    4    0    0 -0.27948553604E+02  0.21259474227E+02  0.28580052297E+02  0.45275890740E+02  0.00000000000E+00 0.  1.
         12    1    4    4    0    0  0.54224522683E+02  0.97855954321E+00  0.71448339911E+02  0.89700176784E+02  0.00000000000E+00 0. -1.
         -5    1    5    5    0  502 -0.17436628692E+02 -0.49766387052E+02  0.13465586541E+03  0.14468939625E+03  0.47000000000E+01 0.  1.
         11    1    6    6    0    0 -0.16957074527E+02  0.24577981750E+02  0.17507783104E+02  0.34614188314E+02  0.00000000000E+00 0. -1.
        -12    1    6    6    0    0  0.81477912863E+02  0.20564696091E+02  0.10971435024E+03  0.13819839238E+03  0.00000000000E+00 0.  1.
</event>
<event>
12    1  0.8451514E-002  0.3536332E+03  0.7818608E-02  0.1061168E+00
         21   -1    0    0  503  502  0.00000000000E+00  0.00000000000E+00  0.20205254065E+03  0.20205254065E+03  0.00000000000E+00 0.  1.
         21   -1    0    0  501  503 -0.00000000000E+00 -0.00000000000E+00 -0.95119059776E+03  0.95119059776E+03  0.00000000000E+00 0. -1.
          6    2    1    2  501    0 -0.25376325876E+03 -0.17575649359E+03 -0.71555146847E+03  0.79801854759E+03  0.17185331462E+03 0.  0.
         24    2    3    3    0    0 -0.14824492117E+03 -0.17781216075E+03 -0.46216847529E+03  0.52349463868E+03  0.82784153137E+02 0.  0.
         -6    2    1    2    0  502  0.25376325876E+03  0.17575649359E+03 -0.33586588650E+02  0.35522459082E+03  0.17254076171E+03 0.  0.
        -24    2    5    5    0    0  0.21364761383E+03  0.19906845398E+03 -0.47343459399E+02  0.30660305282E+03  0.80563494096E+02 0.  0.
          5    1    3    3  501    0 -0.10551833759E+03  0.20556671598E+01 -0.25338299318E+03  0.27452390891E+03  0.47000000000E+01 0. -1.
        -11    1    4    4    0    0 -0.79612672535E+02 -0.87212210165E+02 -0.14761087798E+03  0.18903205688E+03  0.00000000000E+00 0.  1.
         12    1    4    4    0    0 -0.68632248636E+02 -0.90599950589E+02 -0.31455759731E+03  0.33446258180E+03  0.00000000000E+00 0. -1.
         -5    1    5    5    0  502  0.40115644926E+02 -0.23311960389E+02  0.13756870749E+02  0.48621538003E+02  0.47000000000E+01 0.  1.
         11    1    6    6    0    0  0.45229278746E+02  0.25623284735E+02 -0.38488526143E+02  0.64680808755E+02  0.00000000000E+00 0. -1.
        -12    1    6    6    0    0  0.16841833509E+03  0.17344516925E+03 -0.88549332551E+01  0.24192224406E+03  0.00000000000E+00 0.  1.
</event>
<event>
12    1  0.8451514E-002  0.1931790E+03  0.7818608E-02  0.1156085E+00
         21   -1    0    0  501  502  0.00000000000E+00  0.00000000000E+00  0.23446909993E+03  0.23446909993E+03  0.00000000000E+00 0.  1.
         21   -1    0    0  502  503 -0.00000000000E+00 -0.00000000000E+00 -0.20703489542E+03  0.20703489542E+03  0.00000000000E+00 0.  1.
         -6    2    1    2    0  503 -0.10769381510E+02 -0.86921408943E+02 -0.94252339180E+02  0.21494563993E+03  0.17218250136E+03 0.  0.
        -24    2    3    3    0    0  0.19180223038E+02 -0.38482498257E+01 -0.96368214668E+02  0.12648833098E+03  0.79559883692E+02 0.  0.
          6    2    1    2  501    0  0.10769381510E+02  0.86921408943E+02  0.12168654370E+03  0.22655835542E+03  0.16985217862E+03 0.  0.
         24    2    5    5    0    0  0.18138415496E+01  0.21395023568E+02 -0.57872286961E+01  0.82872721049E+02  0.79833319006E+02 0.  0.
          5    1    5    5  501    0  0.89555399600E+01  0.65526385375E+02  0.12747377239E+03  0.14368563437E+03  0.47000000000E+01 0. -1.
        -13    1    6    6    0    0 -0.35630232033E+02  0.22848607222E+02  0.77491409238E+01  0.43030471434E+02  0.00000000000E+00 0.  1.
         14    1    6    6    0    0  0.37444073583E+02 -0.14535836545E+01 -0.13536369620E+02  0.39842249615E+02  0.00000000000E+00 0. -1.
         -5    1    3    3    0  503 -0.29949604548E+02 -0.83073159117E+02  0.21158754879E+01  0.88457308954E+02  0.47000000000E+01 0.  1.
         11    1    4    4    0    0  0.15146920771E+02  0.56280778351E+01  0.10405393916E+02  0.19219175100E+02  0.00000000000E+00 0. -1.
        -12    1    4    4    0    0  0.40333022667E+01 -0.94763276609E+01 -0.10677360858E+03  0.10726915588E+03  0.00000000000E+00 0.  1.
</event>
<event>
12    1  0.8451514E-002  0.1787180E+03  0.7818608E-02  0.1169640E+00
         21   -1    0    0  501  502  0.00000000000E+00  0.00000000000E+00  0.74900285301E+03  0.74900285301E+03  0.00000000000E+00 0. -1.
         21   -1    0    0  502  503 -0.00000000000E+00 -0.00000000000E+00 -0.45261067465E+02  0.45261067465E+02  0.00000000000E+00 0. -1.
         -6    2    1    2    0  503  0.18646327032E+02  0.45880261687E+02  0.24425133007E+03  0.30124100272E+03  0.16921804145E+03 0.  0.
        -24    2    3    3    0    0  0.57564892834E+02  0.73159655607E+02  0.13675905573E+03  0.18361660414E+03  0.79661571024E+02 0.  0.
          6    2    1    2  501    0 -0.18646327032E+02 -0.45880261687E+02  0.45949045547E+03  0.49302291775E+03  0.17171905788E+03 0.  0.
         24    2    5    5    0    0  0.51219586661E+02 -0.27987241029E+01  0.27572587976E+03  0.29170532274E+03  0.80224407945E+02 0.  0.
          5    1    5    5  501    0 -0.69865913694E+02 -0.43081537584E+02  0.18376457571E+03  0.20131759502E+03  0.47000000000E+01 0. -1.
        -13    1    6    6    0    0  0.33427834817E+02 -0.55775018729E+01  0.29821710781E+02  0.45142697102E+02  0.00000000000E+00 0.  1.
         14    1    6    6    0    0  0.17791751844E+02  0.27787777700E+01  0.24590416898E+03  0.24656262564E+03  0.00000000000E+00 0. -1.
         -5    1    3    3    0  503 -0.38918565802E+02 -0.27279393920E+02  0.10749227435E+03  0.11762439858E+03  0.47000000000E+01 0.  1.
         13    1    4    4    0    0  0.21795594402E+02  0.70107562790E+02  0.47590309369E+02  0.87492604496E+02  0.00000000000E+00 0. -1.
        -14    1    4    4    0    0  0.35769298432E+02  0.30520928164E+01  0.89168746358E+02  0.96123999646E+02  0.00000000000E+00 0.  1.
</event>
<event>
12    1  0.8451514E-002  0.1885063E+03  0.7818608E-02  0.1160279E+00
         21   -1    0    0  503  502  0.00000000000E+00  0.00000000000E+00  0.11130523931E+03  0.11130523931E+03  0.00000000000E+00 0. -1.
         21   -1    0    0  501  503 -0.00000000000E+00 -0.00000000000E+00 -0.40225643239E+03  0.40225643239E+03  0.00000000000E+00 0. -1.
          6    2    1    2  501    0 -0.37762932352E+02 -0.57459851365E+02 -0.26510717716E+03  0.32529441017E+03  0.17551912808E+03 0.  0.
         24    2    3    3    0    0 -0.91009784381E+02 -0.23821537004E+02 -0.13282600174E+03  0.17870940815E+03  0.73783869143E+02 0.  0.
         -6    2    1    2    0  502  0.37762932352E+02  0.57459851365E+02 -0.25844015915E+02  0.18826726153E+03  0.17334640183E+03 0.  0.
        -24    2    5    5    0    0  0.25433210686E+02  0.10207936015E+03  0.35065932239E+01  0.13325389172E+03  0.81714499867E+02 0.  0.
          5    1    3    3  501    0  0.53246852029E+02 -0.33638314361E+02 -0.13228117543E+03  0.14658500202E+03  0.47000000000E+01 0. -1.
        -13    1    4    4    0    0 -0.47959469960E+02 -0.18477364636E+02 -0.15595376658E+02  0.53709771325E+02  0.00000000000E+00 0.  1.
         14    1    4    4    0    0 -0.43050314421E+02 -0.53441723681E+01 -0.11723062508E+03  0.12499963682E+03  0.00000000000E+00 0. -1.
         -5    1    5    5    0  502  0.12329721666E+02 -0.44619508787E+02 -0.29350609139E+02  0.55013369808E+02  0.47000000000E+01 0.  1.
         13    1    6    6    0    0 -0.29157365644E+02  0.46034086717E+02  0.69933617948E+01  0.54938112640E+02  0.00000000000E+00 0. -1.
        -14    1    6    6    0    0  0.54590576331E+02  0.56045273434E+02 -0.34867685708E+01  0.78315779084E+02  0.00000000000E+00 0.  1.
</event>
<event>
12    1  0.8451514E-002  0.1956727E+03  0.7818608E-02  0.1154057E+00
         21   -1    0    0  503  502  0.00000000000E+00  0.00000000000E+00  0.11679251146E+03  0.11679251146E+03  0.00000000000E+00 0.  1.
         21   -1    0    0  501  503 -0.00000000000E+00 -0.00000000000E+00 -0.35338569445E+03  0.35338569445E+03  0.00000000000E+00 0. -1.
          6    2    1    2  501    0 -0.57176743430E+02  0.77594131828E+02 -0.50298361457E+02  0.20203402840E+03  0.17028738703E+03 0.  0.
         24    2    3    3    0    0 -0.54100809292E+02  0.15296253408E+02  0.27682270402E+02  0.10206625373E+03  0.80562640983E+02 0.  0.
         -6    2    1    2    0  502  0.57176743430E+02 -0.77594131828E+02 -0.18629482153E+03  0.26814417751E+03  0.16704942417E+03 0.  0.
        -24    2    5    5    0    0  0.87923622595E+02 -0.94507851173E+02 -0.12394008800E+03  0.19643889684E+03  0.81023437574E+02 0.  0.
          5    1    3    3  501    0 -0.30759341375E+01  0.62297878420E+02 -0.77980631859E+02  0.99967774665E+02  0.47000000000E+01 0. -1.
        -11    1    4    4    0    0 -0.56434991654E+02  0.42551296137E+02  0.16962119274E+02  0.72685862285E+02  0.00000000000E+00 0.  1.
         12    1    4    4    0    0  0.23341823619E+01 -0.27255042729E+02  0.10720151128E+02  0.29380391448E+02  0.00000000000E+00 0. -1.
         -5    1    5    5    0  502 -0.30746879165E+02  0.16913719345E+02 -0.62354733539E+02  0.71705280664E+02  0.47000000000E+01 0.  1.
         13    1    6    6    0    0  0.99442373768E+02 -0.72046445976E+02 -0.82575376546E+02  0.14798029899E+03  0.00000000000E+00 0. -1.
        -14    1    6    6    0    0 -0.11518751174E+02 -0.22461405197E+02 -0.41364711450E+02  0.48458597848E+02  0.00000000000E+00 0.  1.
</event>
<event>
12    1  0.8451514E-002  0.2805996E+03  0.7818608E-02  0.1095520E+00
         21   -1    0    0  501  502  0.00000000000E+00  0.00000000000E+00  0.59852224209E+02  0.59852224209E+02  0.00000000000E+00 0.  1.
         21   -1    0    0  502  503 -0.00000000000E+00 -0.00000000000E+00 -0.13105052602E+04  0.13105052602E+04  0.00000000000E+00 0. -1.
         -6    2    1    2    0  503  0.21754821994E+03 -0.50465910202E+02 -0.61434797493E+03  0.67539585501E+03  0.16988846508E+03 0.  0.
        -24    2    3    3    0    0  0.17984228206E+03  0.19192619906E+02 -0.47351834407E+03  0.51375080096E+03  0.83717741526E+02 0.  0.
          6    2    1    2  501    0 -0.21754821994E+03  0.50465910202E+02 -0.63630506108E+03  0.69496162942E+03  0.16796874565E+03 0.  0.
         24    2    5    5    0    0 -0.79118014987E+02  0.92973045172E+01 -0.15082385383E+03  0.18843239203E+03  0.80080155563E+02 0.  0.
          5    1    5    5  501    0 -0.13843020496E+03  0.41168605685E+02 -0.48548120725E+03  0.50652923739E+03  0.47000000000E+01 0. -1.
        -11    1    6    6    0    0 -0.54623866750E+02  0.41003341568E+02 -0.11923501562E+03  0.13741189827E+03  0.00000000000E+00 0.  1.
         12    1    6    6    0    0 -0.24494148237E+02 -0.31706037050E+02 -0.31588838215E+02  0.51020493756E+02  0.00000000000E+00 0. -1.
         -5    1    3    3    0  503  0.37705937886E+02 -0.69658530108E+02 -0.14082963086E+03  0.16164505405E+03  0.47000000000E+01 0.  1.
         11    1    4    4    0    0  0.14786101594E+03 -0.15952314093E+02 -0.31649039877E+03  0.34969061879E+03  0.00000000000E+00 0. -1.
        -12    1    4    4    0    0  0.31981266118E+02  0.35144933999E+02 -0.15702794530E+03  0.16406018217E+03  0.00000000000E+00 0.  1.
</event>
<event>
12    1  0.8451514E-002  0.1800351E+03  0.7818608E-02  0.1168295E+00
         21   -1    0    0  503  502  0.00000000000E+00  0.00000000000E+00  0.12247143726E+04  0.12247143726E+04  0.00000000000E+00 0.  1.
         21   -1    0    0  501  503 -0.00000000000E+00 -0.00000000000E+00 -0.34444376422E+02  0.34444376422E+02  0.00000000000E+00 0. -1.
          6    2    1    2  501    0  0.24207551109E+02 -0.38826083928E+02  0.90682564474E+03  0.92452440481E+03  0.17412396393E+03 0.  0.
         24    2    3    3    0    0  0.38464621051E+01 -0.80697824174E+02  0.40351457212E+03  0.41904251355E+03  0.79029640954E+02 0.  0.
         -6    2    1    2    0  502 -0.24207551109E+02  0.38826083928E+02  0.28344435141E+03  0.33463434418E+03  0.17188942270E+03 0.  0.
        -24    2    5    5    0    0 -0.53626460833E+02  0.19604854291E+02  0.75367327748E+02  0.12355837280E+03  0.79537976992E+02 0.  0.
          5    1    3    3  501    0  0.20361089004E+02  0.41871740246E+02  0.50331107262E+03  0.50548189126E+03  0.47000000000E+01 0. -1.
        -13    1    4    4    0    0 -0.28960848418E+02 -0.94797643051E+01  0.17014122193E+03  0.17284858134E+03  0.00000000000E+00 0.  1.
         14    1    4    4    0    0  0.32807310524E+02 -0.71218059869E+02  0.23337335020E+03  0.24619393221E+03  0.00000000000E+00 0. -1.
         -5    1    5    5    0  502  0.29418909725E+02  0.19221229637E+02  0.20807702366E+03  0.21107597138E+03  0.47000000000E+01 0.  1.
         13    1    6    6    0    0 -0.12472536123E+02  0.45785981722E+02  0.48577902104E+02  0.67909740482E+02  0.00000000000E+00 0. -1.
        -14    1    6    6    0    0 -0.41153924710E+02 -0.26181127430E+02  0.26789425644E+02  0.55648632318E+02  0.00000000000E+00 0.  1.
</event>
<event>
12    1  0.8451514E-002  0.2056380E+03  0.7818608E-02  0.1145265E+00
         21   -1    0    0  501  502  0.00000000000E+00  0.00000000000E+00  0.13449390370E+03  0.13449390370E+03  0.00000000000E+00 0.  1.
         21   -1    0    0  502  503 -0.00000000000E+00 -0.00000000000E+00 -0.31350475781E+03  0.31350475781E+03  0.00000000000E+00 0.  1.
         -6    2    1    2    0  503 -0.10881066942E+03 -0.17867600918E+02 -0.99267218782E+02  0.22834397946E+03  0.17357413197E+03 0.  0.
        -24    2    3    3    0    0 -0.15271253833E+02 -0.58621157510E+02 -0.65743393885E+02  0.12084322840E+03  0.81309536394E+02 0.  0.
          6    2    1    2  501    0  0.10881066942E+03  0.17867600918E+02 -0.79743635329E+02  0.21965468204E+03  0.17242424141E+03 0.  0.
         24    2    5    5    0    0  0.10258779084E+03 -0.48073465791E+02 -0.51350996171E+02  0.14743847572E+03  0.79157225657E+02 0.  0.
          5    1    5    5  501    0  0.62228785818E+01  0.65941066709E+02 -0.28392639158E+02  0.72216206318E+02  0.47000000000E+01 0. -1.
        -11    1    6    6    0    0  0.92405226868E+02 -0.34895591473E+01 -0.34885694132E+02  0.98832760918E+02  0.00000000000E+00 0.  1.
         12    1    6    6    0    0  0.10182563972E+02 -0.44583906643E+02 -0.16465302039E+02  0.48605714807E+02  0.00000000000E+00 0. -1.
         -5    1    3    3    0  503 -0.93539415589E+02  0.40753556592E+02 -0.33523824896E+02  0.10750075106E+03  0.47000000000E+01 0.  1.
         11    1    4    4    0    0  0.24846300600E+02  0.51211057581E+01 -0.10579795546E+02  0.27486295704E+02  0.00000000000E+00 0. -1.
        -12    1    4    4    0    0 -0.40117554433E+02 -0.63742263268E+02 -0.55163598339E+02  0.93356932694E+02  0.00000000000E+00 0.  1.
</event>
<event>
12    1  0.8451514E-002  0.2113514E+03  0.7818608E-02  0.1140537E+00
         21   -1    0    0  503  502  0.00000000000E+00  0.00000000000E+00  0.37735316216E+03  0.37735316216E+03  0.00000000000E+00 0.  1.
         21   -1    0    0  501  503 -0.00000000000E+00 -0.00000000000E+00 -0.15588120362E+03  0.15588120362E+03  0.00000000000E+00 0.  1.
          6    2    1    2  501    0  0.10910296559E+03 -0.56561759438E+02 -0.20266029895E+02  0.21213206523E+03  0.17171666022E+03 0.  0.
         24    2    3    3    0    0  0.13765656722E+03 -0.48815824056E+02  0.14977626115E+02  0.16587719554E+03  0.77191965506E+02 0.  0.
         -6    2    1    2    0  502 -0.10910296559E+03  0.56561759438E+02  0.24173798844E+03  0.32110230055E+03  0.17194982592E+03 0.  0.
        -24    2    5    5    0    0 -0.53369210756E+02  0.97902583579E+01  0.22653544629E+03  0.24662390080E+03  0.80999495101E+02 0.  0.
          5    1    3    3  501    0 -0.28553601629E+02 -0.77459353820E+01 -0.35243656010E+02  0.46254869688E+02  0.47000000000E+01 0. -1.
        -11    1    4    4    0    0  0.57766545376E+02 -0.55811397155E+02 -0.12107734654E+02  0.81231047362E+02  0.00000000000E+00 0.  1.
         12    1    4    4    0    0  0.79890021846E+02  0.69955730982E+01  0.27085360769E+02  0.84646148179E+02  0.00000000000E+00 0. -1.
         -5    1    5    5    0  502 -0.55733754838E+02  0.46771501080E+02  0.15202542152E+02  0.74478399751E+02  0.47000000000E+01 0.  1.
         13    1    6    6    0    0  0.18349783297E+02  0.73506767194E+01  0.20628662497E+02  0.28570766733E+02  0.00000000000E+00 0. -1.
        -14    1    6    6    0    0 -0.71718994053E+02  0.24395816385E+01  0.20590678379E+03  0.21805313407E+03  0.00000000000E+00 0.  1.
</event>
<event>
12    1  0.8451514E-002  0.1731417E+03  0.7818608E-02  0.1174655E+00
         21   -1    0    0  503  502  0.00000000000E+00  0.00000000000E+00  0.61487443720E+03  0.61487443720E+03  0.00000000000E+00 0.  1.
         21   -1    0    0  501  503 -0.00000000000E+00 -0.00000000000E+00 -0.69709065106E+02  0.69709065106E+02  0.00000000000E+00 0.  1.
          6    2    1    2  501    0 -0.24115791383E+02  0.41465777323E+01  0.84792687838E+02  0.19278963044E+03  0.17140383949E+03 0.  0.
         24    2    3    3    0    0 -0.32367549386E+02 -0.96987705529E+01  0.12354338947E+03  0.15055821967E+03  0.79139648881E+02 0.  0.
         -6    2    1    2    0  502  0.24115791383E+02 -0.41465777323E+01  0.46037268426E+03  0.49179387187E+03  0.17122919872E+03 0.  0.
        -24    2    5    5    0    0  0.41049486160E+02  0.48612885607E+02  0.19714196871E+03  0.22275333478E+03  0.81889067441E+02 0.  0.
          5    1    3    3  501    0  0.82517580026E+01  0.13845348285E+02 -0.38750701628E+02  0.42231410773E+02  0.47000000000E+01 0. -1.
        -13    1    4    4    0    0 -0.42273365086E+02 -0.37448730343E+02  0.84765725805E+02  0.10185613909E+03  0.00000000000E+00 0.  1.
         14    1    4    4    0    0  0.99058157004E+01  0.27749959790E+02  0.38777663661E+02  0.48702080572E+02  0.00000000000E+00 0. -1.
         -5    1    5    5    0  502 -0.16933694777E+02 -0.52759463339E+02  0.26323071555E+03  0.26904053709E+03  0.47000000000E+01 0.  1.
         11    1    6    6    0    0 -0.10246343899E+02 -0.59303333116E+01  0.96973919986E+02  0.97693897322E+02  0.00000000000E+00 0. -1.
        -12    1    6    6    0    0  0.51295830059E+02  0.54543218919E+02  0.10016804873E+03  0.12505943746E+03  0.00000000000E+00 0.  1.
</event>
<event>
12    1  0.8451514E-002  0.1923151E+03  0.7818608E-02  0.1156659E+00
         21   -1    0    0  501  502  0.00000000000E+00  0.00000000000E+00  0.28824213132E+02  0.28824213132E+02  0.00000000000E+00 0. -1.
         21   -1    0    0  502  503 -0.00000000000E+00 -0.00000000000E+00 -0.16680271431E+04  0.16680271431E+04  0.00000000000E+00 0. -1.
         -6    2    1    2    0  503 -0.80886443120E+02  0.13073521409E+02 -0.12294247043E+04  0.12441889148E+04  0.17264825092E+03 0.  0.
        -24    2    3    3    0    0 -0.58118899986E+02  0.21727446794E+02 -0.12055819731E+04  0.12097822690E+04  0.79343279986E+02 0.  0.
          6    2    1    2  501    0  0.80886443120E+02 -0.13073521409E+02 -0.40977822567E+03  0.45266244143E+03  0.17398723517E+03 0.  0.
         24    2    5    5    0    0 -0.24943727590E+02 -0.20542161499E+02 -0.21318455523E+03  0.22921901039E+03  0.77778725813E+02 0.  0.
          5    1    5    5  501    0  0.10583017071E+03  0.74686400909E+01 -0.19659367044E+03  0.22344343104E+03  0.47000000000E+01 0. -1.
        -13    1    6    6    0    0 -0.47073625503E+02  0.77746869562E+01 -0.13461969800E+03  0.14282449042E+03  0.00000000000E+00 0.  1.
         14    1    6    6    0    0  0.22129897913E+02 -0.28316848456E+02 -0.78564857230E+02  0.86394519963E+02  0.00000000000E+00 0. -1.
         -5    1    3    3    0  503 -0.22767543134E+02 -0.86539253851E+01 -0.23842731264E+02  0.34406645856E+02  0.47000000000E+01 0.  1.
         13    1    4    4    0    0 -0.72366338677E+02  0.18017695354E+02 -0.69529583562E+03  0.69928379314E+03  0.00000000000E+00 0. -1.
        -14    1    4    4    0    0  0.14247438691E+02  0.37097514394E+01 -0.51028613746E+03  0.51049847586E+03  0.00000000000E+00 0.  1.
</event>
<event>
12    1  0.8451514E-002  0.3189268E+03  0.7818608E-02  0.1076196E+00
         21   -1    0    0  501  502  0.00000000000E+00  0.00000000000E+00  0.41838054082E+03  0.41838054082E+03  0.00000000000E+00 0. -1.
         21   -1    0    0  502  503 -0.00000000000E+00 -0.00000000000E+00 -0.41559406293E+03  0.41559406293E+03  0.00000000000E+00 0.  1.
         -6    2    1    2    0  503  0.75170357951E+02  0.25746482514E+03 -0.26750400894E+03  0.41591805476E+03  0.17172860732E+03 0.  0.
        -24    2    3    3    0    0  0.15823164155E+02  0.14420877473E+03 -0.23015510979E+03  0.28262869797E+03  0.76557580407E+02 0.  0.
          6    2    1    2  501    0 -0.75170357951E+02 -0.25746482514E+03  0.27029048683E+03  0.41805654900E+03  0.17255611257E+03 0.  0.
         24    2    5    5    0    0 -0.75618864593E+02 -0.66912848639E+02  0.10664508873E+03  0.16683520590E+03  0.79153452115E+02 0.  0.
          5    1    5    5  501    0  0.44850664165E+00 -0.19055197650E+03  0.16364539811E+03  0.25122134310E+03  0.47000000000E+01 0. -1.
        -11    1    6    6    0    0 -0.78189221389E+02 -0.81818784173E+02  0.94364696940E+02  0.14735183682E+03  0.00000000000E+00 0.  1.
         12    1    6    6    0    0  0.25703567964E+01  0.14905935534E+02  0.12280391785E+02  0.19483369077E+02  0.00000000000E+00 0. -1.
         -5    1    3    3    0  503  0.59347193797E+02  0.11325605041E+03 -0.37348899152E+02  0.13328935679E+03  0.47000000000E+01 0.  1.
         11    1    4    4    0    0 -0.15510284253E+02  0.93585652311E+01 -0.58433838280E+01  0.19034095601E+02  0.00000000000E+00 0. -1.
        -12    1    4    4    0    0  0.31333448408E+02  0.13485020950E+03 -0.22431172596E+03  0.26359460237E+03  0.00000000000E+00 0.  1.
</event>
<event>
12    1  0.8451514E-002  0.1745852E+03  0.7818608E-02  0.1173947E+00
         21   -1    0    0  501  502  0.00000000000E+00  0.00000000000E+00  0.21731024877E+03  0.21731024877E+03  0.00000000000E+00 0. -1.
         21   -1    0    0  502  503 -0.00000000000E+00 -0.00000000000E+00 -0.14020218296E+03  0.14020218296E+03  0.00000000000E+00 0.  1.
         -6    2    1    2    0  503  0.19258254625E+02 -0.21643848153E+02  0.15262474896E+02  0.17525102556E+03  0.17216457907E+03 0.  0.
        -24    2    3    3    0    0  0.22564702536E+02  0.32690192320E+02 -0.42413927905E+02  0.95804326494E+02  0.76168978070E+02 0.  0.
          6    2    1    2  501    0 -0.19258254625E+02  0.21643848153E+02  0.61845590914E+02  0.18226140617E+03  0.16898226690E+03 0.  0.
         24    2    5    5    0    0 -0.30496721069E+01 -0.42374359329E+02 -0.31711075375E+01  0.89469649451E+02  0.78675761334E+02 0.  0.
          5    1    5    5  501    0 -0.16208582518E+02  0.64018207482E+02  0.65016698452E+02  0.92791756714E+02  0.47000000000E+01 0. -1.
        -13    1    6    6    0    0  0.92657357135E+01 -0.94988344987E+01 -0.37858692806E+02  0.40116858503E+02  0.00000000000E+00 0.  1.
         14    1    6    6    0    0 -0.12315407820E+02 -0.32875524831E+02  0.34687585268E+02  0.49352790949E+02  0.00000000000E+00 0. -1.
         -5    1    3    3    0  503 -0.33064479111E+01 -0.54334040473E+02  0.57676402801E+02  0.79446699063E+02  0.47000000000E+01 0.  1.
         11    1    4    4    0    0  0.15418580541E+02  0.23826894656E+02  0.18472367687E+02  0.33862691902E+02  0.00000000000E+00 0. -1.
        -12    1    4    4    0    0  0.71461219957E+01  0.88632976639E+01 -0.60886295592E+02  0.61941634592E+02  0.00000000000E+00 0.  1.
</event>
<event>
12    1  0.8451514E-002  0.2144191E+03  0.7818608E-02  0.1138273E+00
         21   -1    0    0  501  502  0.00000000000E+00  0.00000000000E+00  0.17011248177E+04  0.17011248177E+04  0.00000000000E+00 0.  1.
         21   -1    0    0  502  503 -0.00000000000E+00 -0.00000000000E+00 -0.30698934961E+02  0.30698934961E+02  0.00000000000E+00 0.  1.
         -6    2    1    2    0  503 -0.11691608482E+03  0.52353476173E+02  0.53011427217E+03  0.57152805317E+03  0.17091786518E+03 0.  0.
        -24    2    3    3    0    0 -0.41855673366E+02  0.39889736633E+02  0.45069842593E+03  0.46144455392E+03  0.80367385957E+02 0.  0.
          6    2    1    2  501    0  0.11691608482E+03 -0.52353476173E+02  0.11403116106E+04  0.11602956995E+04  0.17194558360E+03 0.  0.
         24    2    5    5    0    0  0.42093868234E+02 -0.91136179126E+02  0.76633837179E+03  0.77691529381E+03  0.79026430958E+02 0.  0.
          5    1    5    5  501    0  0.74822216589E+02  0.38782702953E+02  0.37397323882E+03  0.38338040572E+03  0.47000000000E+01 0. -1.
        -13    1    6    6    0    0  0.57445289013E+02 -0.50479554130E+02  0.60546489999E+03  0.61027525899E+03  0.00000000000E+00 0.  1.
         14    1    6    6    0    0 -0.15351420779E+02 -0.40656624996E+02  0.16087347180E+03  0.16664003482E+03  0.00000000000E+00 0. -1.
         -5    1    3    3    0  503 -0.75060411458E+02  0.12463739541E+02  0.79415846242E+02  0.11008349924E+03  0.47000000000E+01 0.  1.
         13    1    4    4    0    0 -0.45539576988E+02  0.61770493189E+02  0.34200478033E+03  0.35050922480E+03  0.00000000000E+00 0. -1.
        -14    1    4    4    0    0  0.36839036220E+01 -0.21880756556E+02  0.10869364560E+03  0.11093532912E+03  0.00000000000E+00 0.  1.
</event>
<event>
12    1  0.8451514E-002  0.2281688E+03  0.7818608E-02  0.1127942E+00
         21   -1    0    0  503  502  0.00000000000E+00  0.00000000000E+00  0.51423491052E+02  0.51423491052E+02  0.00000000000E+00 0. -1.
         21   -1    0    0  501  503 -0.00000000000E+00 -0.00000000000E+00 -0.13177172261E+04  0.13177172261E+04  0.00000000000E+00 0. -1.
          6    2    1    2  501    0 -0.12354366993E+02  0.14914130926E+03 -0.96280470837E+03  0.98947153386E+03  0.17223602805E+03 0.  0.
         24    2    3    3    0    0  0.55941629430E+02  0.10873925545E+03 -0.52718937252E+03  0.54666290713E+03  0.77188133542E+02 0.  0.
         -6    2    1    2    0  502  0.12354366993E+02 -0.14914130926E+03 -0.30348902668E+03  0.37966918329E+03  0.17218402630E+03 0.  0.
        -24    2    5    5    0    0  0.82628521539E+01 -0.42744061274E+02 -0.51051036511E+02  0.10565432283E+03  0.81616775873E+02 0.  0.
          5    1    3    3  501    0 -0.68295996422E+02  0.40402053811E+02 -0.43561533585E+03  0.44280862673E+03  0.47000000000E+01 0. -1.
        -13    1    4    4    0    0 -0.56138285247E+01  0.14347359969E+01 -0.70117031569E+00  0.58365381774E+01  0.00000000000E+00 0.  1.
         14    1    4    4    0    0  0.61555457954E+02  0.10730451945E+03 -0.52648820220E+03  0.54082636896E+03  0.00000000000E+00 0. -1.
         -5    1    5    5    0  502  0.40915148390E+01 -0.10639724798E+03 -0.25243799017E+03  0.27401486046E+03  0.47000000000E+01 0.  1.
         11    1    6    6    0    0  0.18131268964E+02 -0.59781567991E+02 -0.57531454517E+02  0.84926126984E+02  0.00000000000E+00 0. -1.
        -12    1    6    6    0    0 -0.98684168104E+01  0.17037506717E+02  0.64804180055E+01  0.20728195845E+02  0.00000000000E+00 0.  1.
</event>
<event>
12    1  0.8451514E-002  0.1872544E+03  0.7818608E-02  0.1161061E+00
         21   -1    0    0  503  502  0.00000000000E+00  0.00000000000E+00  0.40747277424E+02  0.40747277424E+02  0.00000000000E+00 0. -1.
         21   -1    0    0  501  503 -0.00000000000E+00 -0.00000000000E+00 -0.18446072384E+04  0.18446072384E+04  0.00000000000E+00 0. -1.
          6    2    1    2  501    0  0.63384289639E+02  0.37639521718E+02 -0.15916509595E+04  0.16026281450E+04  0.17213335677E+03 0.  0.
         24    2    3    3    0    0 -0.37616724484E+02  0.25533768283E+02 -0.71230835201E+03  0.71740881316E+03  0.72285721791E+02 0.  0.
         -6    2    1    2    0  502 -0.63384289639E+02 -0.37639521718E+02 -0.21220900150E+03  0.28272637084E+03  0.17166024200E+03 0.  0.
        -24    2    5    5    0    0 -0.45175391760E+02 -0.81517279315E+02 -0.19721771324E+03  0.23268988118E+03  0.81017723641E+02 0.  0.
          5    1    3    3  501    0  0.10100101412E+03  0.12105753435E+02 -0.87934260749E+03  0.88521933185E+03  0.47000000000E+01 0. -1.
        -11    1    4    4    0    0 -0.26343356809E+02  0.51078587578E+02 -0.47776876769E+03  0.48121304008E+03  0.00000000000E+00 0.  1.
         12    1    4    4    0    0 -0.11273367675E+02 -0.25544819295E+02 -0.23453958432E+03  0.23619577309E+03  0.00000000000E+00 0. -1.
         -5    1    5    5    0  502 -0.18208897879E+02  0.43877757597E+02 -0.14991288265E+02  0.50036489660E+02  0.47000000000E+01 0.  1.
         11    1    6    6    0    0 -0.70885551792E+01 -0.23584870627E+02 -0.10706427440E+01  0.24650355229E+02  0.00000000000E+00 0. -1.
        -12    1    6    6    0    0 -0.38086836581E+02 -0.57932408687E+02 -0.19614707049E+03  0.20803952596E+03  0.00000000000E+00 0.  1.
</event>
<event>
12    1  0.8451514E-002  0.1735268E+03  0.7818608E-02  0.1174260E+00
         21   -1    0    0  503  502  0.00000000000E+00  0.00000000000E+00  0.64805349228E+03  0.64805349228E+03  0.00000000000E+00 0. -1.
         21   -1    0    0  501  503 -0.00000000000E+00 -0.00000000000E+00 -0.46428810439E+02  0.46428810439E+02  0.00000000000E+00 0. -1.
          6    2    1    2  501    0 -0.12295020464E+02 -0.14389556403E+02  0.30505686163E+03  0.35087785306E+03  0.17232919684E+03 0.  0.
         24    2    3    3    0    0  0.50199017481E+02 -0.14675359393E+02  0.24989976672E+03  0.26739143752E+03  0.79454263082E+02 0.  0.
         -6    2    1    2    0  502  0.12295020464E+02  0.14389556403E+02  0.29656782022E+03  0.34360444966E+03  0.17249150406E+03 0.  0.
        -24    2    5    5    0    0  0.46071718580E+02  0.99919347991E+01  0.29483488821E+03  0.30917630035E+03  0.80249183044E+02 0.  0.
          5    1    3    3  501    0 -0.62494037945E+02  0.28580298992E+00  0.55157094905E+02  0.83486415544E+02  0.47000000000E+01 0. -1.
        -11    1    4    4    0    0  0.19430923550E+02 -0.42226079779E+02  0.18265313436E+03  0.18847485268E+03  0.00000000000E+00 0.  1.
         12    1    4    4    0    0  0.30768093931E+02  0.27550720386E+02  0.67246632367E+02  0.78916584839E+02  0.00000000000E+00 0. -1.
         -5    1    5    5    0  502 -0.33776698116E+02  0.43976216039E+01  0.17329320077E+01  0.34428149307E+02  0.47000000000E+01 0.  1.
         13    1    6    6    0    0 -0.55126168071E+01 -0.21032250012E+02  0.27029348472E+02  0.34689049619E+02  0.00000000000E+00 0. -1.
        -14    1    6    6    0    0  0.51584335387E+02  0.31024184811E+02  0.26780553974E+03  0.27448725073E+03  0.00000000000E+00 0.  1.
</event>
<event>
12    1  0.8451514E-002  0.2223861E+03  0.7818608E-02  0.1132213E+00
         21   -1    0    0  501  502  0.00000000000E+00  0.00000000000E+00  0.14557830494E+03  0.14557830494E+03  0.00000000000E+00 0. -1.
         21   -1    0    0  502  503 -0.00000000000E+00 -0.00000000000E+00 -0.51604918866E+03  0.51604918866E+03  0.00000000000E+00 0.  1.
         -6    2    1    2    0  503 -0.91927676746E+02 -0.10590283276E+03 -0.37919584463E+03  0.43959646280E+03  0.17259621601E+03 0.  0.
        -24    2    3    3    0    0 -0.48439876279E+01  0.20018060331E+01 -0.10364446044E+03  0.13108773470E+03  0.80089628324E+02 0.  0.
          6    2    1    2  501    0  0.91927676746E+02  0.10590283276E+03  0.87249609141E+01  0.22203103081E+03  0.17191726486E+03 0.  0.
         24    2    5    5    0    0  0.11413971231E+03  0.12144505311E+03  0.31675828170E+02  0.18620133021E+03  0.76751563038E+02 0.  0.
          5    1    5    5  501    0 -0.22212035566E+02 -0.15542220346E+02 -0.22950867256E+02  0.35829700600E+02  0.47000000000E+01 0. -1.
        -11    1    6    6    0    0  0.54752099331E+02  0.26909888250E+02 -0.18573968483E+02  0.63772460921E+02  0.00000000000E+00 0.  1.
         12    1    6    6    0    0  0.59387612981E+02  0.94535164859E+02  0.50249796653E+02  0.12242886928E+03  0.00000000000E+00 0. -1.
         -5    1    3    3    0  503 -0.87083689118E+02 -0.10790463880E+03 -0.27555138419E+03  0.30850872810E+03  0.47000000000E+01 0.  1.
         13    1    4    4    0    0 -0.20382542664E+02 -0.21367386467E+02 -0.68593127576E+01  0.30316058804E+02  0.00000000000E+00 0. -1.
        -14    1    4    4    0    0  0.15538555036E+02  0.23369192500E+02 -0.96785147685E+02  0.10077167590E+03  0.00000000000E+00 0.  1.
</event>
<event>
12    1  0.8451514E-002  0.1980632E+03  0.7818608E-02  0.1151483E+00
         21   -1    0    0  501  502  0.00000000000E+00  0.00000000000E+00  0.49163050126E+02  0.49163050126E+02  0.00000000000E+00 0. -1.
         21   -1    0    0  502  503 -0.00000000000E+00 -0.00000000000E+00 -0.82774760264E+03  0.82774760264E+03  0.00000000000E+00 0. -1.
         -6    2    1    2    0  503 -0.36121669402E+02 -0.91119134931E+02 -0.47464277240E+03  0.51413023818E+03  0.17157117669E+03 0.  0.
        -24    2    3    3    0    0  0.40191248377E+02 -0.78395826467E+02 -0.26066469623E+03  0.28654673465E+03  0.80010656940E+02 0.  0.
          6    2    1    2  501    0  0.36121669402E+02  0.91119134931E+02 -0.30394178011E+03  0.36278041458E+03  0.17210912746E+03 0.  0.
         24    2    5    5    0    0  0.75847872128E+02  0.10388049093E+03 -0.25290966437E+03  0.29669418132E+03  0.86718410936E+02 0.  0.
          5    1    5    5  501    0 -0.39726202726E+02 -0.12761355996E+02 -0.51032115736E+02  0.66086233259E+02  0.47000000000E+01 0. -1.
        -13    1    6    6    0    0 -0.15529586564E+02  0.20770172793E+02 -0.18915347693E+02  0.32099198044E+02  0.00000000000E+00 0.  1.
         14    1    6    6    0    0  0.91377458693E+02  0.83110318134E+02 -0.23399431668E+03  0.26459498328E+03  0.00000000000E+00 0. -1.
         -5    1    3    3    0  503 -0.76312917779E+02 -0.12723308464E+02 -0.21397807618E+03  0.22758350354E+03  0.47000000000E+01 0.  1.
         13    1    4    4    0    0 -0.11384000582E+02  0.10981602252E+02 -0.34628347769E+02  0.38069850623E+02  0.00000000000E+00 0. -1.
        -14    1    4    4    0    0  0.51575248959E+02 -0.89377428720E+02 -0.22603634846E+03  0.24847688402E+03  0.00000000000E+00 0.  1.
</event>
<event>
12    1  0.8451514E-002  0.1853689E+03  0.7818608E-02  0.1162747E+00
         21   -1    0    0  503  502  0.00000000000E+00  0.00000000000E+00  0.80034207724E+03  0.80034207724E+03  0.00000000000E+00 0.  1.
         21   -1    0    0  501  503 -0.00000000000E+00 -0.00000000000E+00 -0.49637787328E+02  0.49637787328E+02  0.00000000000E+00 0.  1.
          6    2    1    2  501    0 -0.68779086246E+02  0.10893343630E+02  0.21884587301E+03  0.28680159376E+03  0.17179176467E+03 0.  0.
         24    2    3    3    0    0  0.11900570612E+02 -0.36646357136E+02  0.12236680437E+03  0.15226709683E+03  0.82018625271E+02 0.  0.
         -6    2    1    2    0  502  0.68779086246E+02 -0.10893343630E+02  0.53185841690E+03  0.56317827081E+03  0.17160175244E+03 0.  0.
        -24    2    5    5    0    0  0.33095741554E+02 -0.64812406647E+02  0.22460523329E+03  0.24916047627E+03  0.79608139980E+02 0.  0.
          5    1    3    3  501    0 -0.80679656858E+02  0.47539700767E+02  0.96479068635E+02  0.13453449693E+03  0.47000000000E+01 0. -1.
        -13    1    4    4    0    0 -0.51553423377E+01 -0.50602070309E+01 -0.11549781093E+02  0.13622800487E+02  0.00000000000E+00 0.  1.
         14    1    4    4    0    0  0.17055912950E+02 -0.31586150106E+02  0.13391658546E+03  0.13864429634E+03  0.00000000000E+00 0. -1.
         -5    1    5    5    0  502  0.35683344692E+02  0.53919063016E+02  0.30725318361E+03  0.31401779454E+03  0.47000000000E+01 0.  1.
         11    1    6    6    0    0 -0.25054729517E+02 -0.81613370098E+01  0.47071595400E+02  0.53945175748E+02  0.00000000000E+00 0. -1.
        -12    1    6    6    0    0  0.58150471071E+02 -0.56651069637E+02  0.17753363789E+03  0.19521530053E+03  0.00000000000E+00 0.  1.
</event>
<event>
12    1  0.8451514E-002  0.2130963E+03  0.7818608E-02  0.1139473E+00
         21   -1    0    0  503  502  0.00000000000E+00  0.00000000000E+00  0.11205041447E+04  0.11205041447E+04  0.00000000000E+00 0.  1.
         21   -1    0    0  501  503 -0.00000000000E+00 -0.00000000000E+00 -0.53087715717E+02  0.53087715717E+02  0.00000000000E+00 0.  1.
          6    2    1    2  501    0  0.25763433203E+02  0.12248948988E+03  0.24294723452E+03  0.32202889948E+03  0.17032857575E+03 0.  0.
         24    2    3    3    0    0  0.36025581572E+02  0.74295445337E+02  0.51674426662E+02  0.12445523057E+03  0.77467427482E+02 0.  0.
         -6    2    1    2    0  502 -0.25763433203E+02 -0.12248948988E+03  0.82446919450E+03  0.85156296097E+03  0.17246041344E+03 0.  0.
        -24    2    5    5    0    0 -0.57769109920E+01 -0.34227378182E+01  0.22046660221E+03  0.23559415169E+03  0.82788850615E+02 0.  0.
          5    1    3    3  501    0 -0.10262148369E+02  0.48194044547E+02  0.19127280786E+03  0.19757366891E+03  0.47000000000E+01 0. -1.
        -13    1    4    4    0    0 -0.19945064489E+02  0.35954128853E+02  0.35345716443E+01  0.41267398462E+02  0.00000000000E+00 0.  1.
         14    1    4    4    0    0  0.55970646061E+02  0.38341316483E+02  0.48139855017E+02  0.83187832111E+02  0.00000000000E+00 0. -1.
         -5    1    5    5    0  502 -0.19986522211E+02 -0.11906675207E+03  0.60400259229E+03  0.61596880928E+03  0.47000000000E+01 0.  1.
         11    1    6    6    0    0  0.10087780897E+02  0.28805840802E+01  0.21810891040E+03  0.21836107227E+03  0.00000000000E+00 0. -1.
        -12    1    6    6    0    0 -0.15864691889E+02 -0.63033218984E+01  0.23576918133E+01  0.17233079422E+02  0.00000000000E+00 0.  1.
</event>
<event>
12    1  0.8451514E-002  0.2859012E+03  0.7818608E-02  0.1093548E+00
         21   -1    0    0  501  502  0.00000000000E+00  0.00000000000E+00  0.14655831462E+03  0.14655831462E+03  0.00000000000E+00 0.  1.
         21   -1    0    0  502  503 -0.00000000000E+00 -0.00000000000E+00 -0.54283195043E+03  0.54283195043E+03  0.00000000000E+00 0.  1.
         -6    2    1    2    0  503 -0.13635325237E+03  0.17121682870E+03 -0.19255470533E+03  0.33833346663E+03  0.17171140973E+03 0.  0.
        -24    2    3    3    0    0 -0.11802665787E+03  0.68218741310E+02 -0.16877349003E+03  0.23094582174E+03  0.79166868127E+02 0.  0.
          6    2    1    2  501    0  0.13635325237E+03 -0.17121682870E+03 -0.20371893048E+03  0.35105679842E+03  0.18393493745E+03 0.  0.
         24    2    5    5    0    0  0.71505371664E+02 -0.16891973285E+03 -0.20449433731E+03  0.28599363267E+03  0.79545770534E+02 0.  0.
          5    1    5    5  501    0  0.64847880706E+02 -0.22970958549E+01  0.77540683739E+00  0.65063165748E+02  0.47000000000E+01 0. -1.
        -11    1    6    6    0    0  0.58206918583E+02 -0.73666151385E+02 -0.56758825255E+02  0.10971012476E+03  0.00000000000E+00 0.  1.
         12    1    6    6    0    0  0.13298453080E+02 -0.95253581465E+02 -0.14773551206E+03  0.17628350791E+03  0.00000000000E+00 0. -1.
         -5    1    3    3    0  503 -0.18326594497E+02  0.10299808740E+03 -0.23781215308E+02  0.10738764489E+03  0.47000000000E+01 0.  1.
         13    1    4    4    0    0 -0.20148902554E+02  0.22405502460E+02  0.47619604137E+00  0.30136548861E+02  0.00000000000E+00 0. -1.
        -14    1    4    4    0    0 -0.97877755318E+02  0.45813238850E+02 -0.16924968607E+03  0.20080927288E+03  0.00000000000E+00 0.  1.
</event>
<event>
12    1  0.8451514E-002  0.2644355E+03  0.7818608E-02  0.1104559E+00
         21   -1    0    0  503  502  0.00000000000E+00  0.00000000000E+00  0.32060059912E+03  0.32060059912E+03  0.00000000000E+00 0. -1.
         21   -1    0    0  501  503 -0.00000000000E+00 -0.00000000000E+00 -0.26775212103E+03  0.26775212103E+03  0.00000000000E+00 0.  1.
          6    2    1    2  501    0  0.14748033005E+03 -0.13610081842E+03 -0.10062861033E+03  0.28260554811E+03  0.17165633713E+03 0.  0.
         24    2    3    3    0    0  0.19418096121E+02 -0.34969992249E+02 -0.77404122629E+02  0.11771514029E+03  0.79154868702E+02 0.  0.
         -6    2    1    2    0  502 -0.14748033005E+03  0.13610081842E+03  0.15347708843E+03  0.30574717203E+03  0.17219824625E+03 0.  0.
        -24    2    5    5    0    0 -0.11813085220E+03  0.15170455417E+03  0.17029475662E+03  0.26819996997E+03  0.77212367955E+02 0.  0.
          5    1    3    3  501    0  0.12806223393E+03 -0.10113082617E+03 -0.23224487706E+02  0.16489040782E+03  0.47000000000E+01 0. -1.
        -11    1    4    4    0    0 -0.14725119176E+02 -0.46302303860E+02 -0.61511809697E+02  0.78386447870E+02  0.00000000000E+00 0.  1.
         12    1    4    4    0    0  0.34143215297E+02  0.11332311611E+02 -0.15892312932E+02  0.39328692422E+02  0.00000000000E+00 0. -1.
         -5    1    5    5    0  502 -0.29349477851E+02 -0.15603735747E+02 -0.16817668192E+02  0.37547202064E+02  0.47000000000E+01 0.  1.
         13    1    6    6    0    0 -0.63249054003E+02  0.23336081833E+02  0.60636975360E+02  0.90674463486E+02  0.00000000000E+00 0. -1.
        -14    1    6    6    0    0 -0.54881798193E+02  0.12836847233E+03  0.10965778126E+03  0.17752550648E+03  0.00000000000E+00 0.  1.
</event>
<event>
12    1  0.8451514E-002  0.2165777E+03  0.7818608E-02  0.1136735E+00
         21   -1    0    0  501  502  0.00000000000E+00  0.00000000000E+00  0.65025230830E+02  0.65025230830E+02  0.00000000000E+00 0. -1.
         21   -1    0    0  502  503 -0.00000000000E+00 -0.00000000000E+00 -0.96542598871E+03  0.96542598871E+03  0.00000000000E+00 0. -1.
         -6    2    1    2    0  503  0.13393143352E+03  0.11340300085E+02 -0.71067362203E+03  0.74252365103E+03  0.16798257054E+03 0.  0.
        -24    2    3    3    0    0  0.82823133993E+02  0.44033221481E+02 -0.31996642650E+03  0.34710603885E+03  0.96464978089E+02 0.  0.
          6    2    1    2  501    0 -0.13393143352E+03 -0.11340300085E+02 -0.18972713585E+03  0.28792756850E+03  0.16982245828E+03 0.  0.
         24    2    5    5    0    0 -0.15139822930E+03 -0.16482903629E+02 -0.10977252339E+03  0.20579130745E+03  0.84302700926E+02 0.  0.
          5    1    5    5  501    0  0.17466795788E+02  0.51426035440E+01 -0.79954612454E+02  0.82136261048E+02  0.47000000000E+01 0. -1.
        -11    1    6    6    0    0 -0.50482506596E+02  0.24463206858E+02 -0.70330454975E+02  0.89962797083E+02  0.00000000000E+00 0.  1.
         12    1    6    6    0    0 -0.10091572271E+03 -0.40946110488E+02 -0.39442068417E+02  0.11582851037E+03  0.00000000000E+00 0. -1.
         -5    1    3    3    0  503  0.51108299524E+02 -0.32692921396E+02 -0.39070719553E+03  0.39541761219E+03  0.47000000000E+01 0.  1.
         11    1    4    4    0    0 -0.81796821332E+01  0.24883744671E+02 -0.15952795740E+03  0.16166408736E+03  0.00000000000E+00 0. -1.
        -12    1    4    4    0    0  0.91002816126E+02  0.19149476811E+02 -0.16043846910E+03  0.18544195149E+03  0.00000000000E+00 0.  1.
</event>
<event>
12    1  0.8451514E-002  0.1981220E+03  0.7818608E-02  0.1151340E+00
         21   -1    0    0  503  502  0.00000000000E+00  0.00000000000E+00  0.39818096530E+02  0.39818096530E+02  0.00000000000E+00 0. -1.
         21   -1    0    0  501  503 -0.00000000000E+00 -0.00000000000E+00 -0.12128696633E+04  0.12128696633E+04  0.00000000000E+00 0. -1.
          6    2    1    2  501    0 -0.19098375630E+02 -0.95807297648E+02 -0.85760013276E+03  0.88018015495E+03  0.17232333338E+03 0.  0.
         24    2    3    3    0    0 -0.62283907983E+02 -0.80700568878E+02 -0.77366939494E+03  0.78447403075E+03  0.80270201475E+02 0.  0.
         -6    2    1    2    0  502  0.19098375630E+02  0.95807297648E+02 -0.31545143401E+03  0.37250760488E+03  0.17236160315E+03 0.  0.
        -24    2    5    5    0    0  0.68817198104E+02  0.22568229771E+02 -0.14654483207E+03  0.18175265069E+03  0.79457576566E+02 0.  0.
          5    1    3    3  501    0  0.43185532352E+02 -0.15106728770E+02 -0.83930737824E+02  0.95706124205E+02  0.47000000000E+01 0. -1.
        -11    1    4    4    0    0 -0.71355730618E+01  0.67489171876E+01 -0.10670445673E+02  0.14502506576E+02  0.00000000000E+00 0.  1.
         12    1    4    4    0    0 -0.55148334921E+02 -0.87449486066E+02 -0.76299894927E+03  0.76997152417E+03  0.00000000000E+00 0. -1.
         -5    1    5    5    0  502 -0.49718822474E+02  0.73239067877E+02 -0.16890660194E+03  0.19075495419E+03  0.47000000000E+01 0.  1.
         11    1    6    6    0    0  0.66316322070E+01  0.23273465698E+02 -0.18631789411E+01  0.24271468581E+02  0.00000000000E+00 0. -1.
        -12    1    6    6    0    0  0.62185565897E+02 -0.70523592674E+00 -0.14468165313E+03  0.15748118210E+03  0.00000000000E+00 0.  1.
</event>
<event>
12    1  0.8451514E-002  0.2013068E+03  0.7818608E-02  0.1148682E+00
         21   -1    0    0  501  502  0.00000000000E+00  0.00000000000E+00  0.32092483463E+03  0.32092483463E+03  0.00000000000E+00 0.  1.
         21   -1    0    0  502  503 -0.00000000000E+00 -0.00000000000E+00 -0.13015989390E+03  0.13015989390E+03  0.00000000000E+00 0.  1.
         -6    2    1    2    0  503 -0.43077861538E+02  0.94732468964E+02  0.13491847640E+03  0.24217508133E+03  0.17209250976E+03 0.  0.
        -24    2    3    3    0    0  0.58162467352E+01  0.19783360404E+02  0.28270240790E+01  0.82556020837E+02  0.79889263586E+02 0.  0.
          6    2    1    2  501    0  0.43077861538E+02 -0.94732468964E+02  0.55846464331E+02  0.20890964721E+03  0.17232083532E+03 0.  0.
         24    2    5    5    0    0 -0.42171600726E+01  0.10471388247E+02  0.52180561305E+02  0.93409865880E+02  0.76649577003E+02 0.  0.
          5    1    5    5  501    0  0.47295021610E+02 -0.10520385721E+03  0.36659030267E+01  0.11549978132E+03  0.47000000000E+01 0. -1.
        -11    1    6    6    0    0 -0.11665101070E+02 -0.21447978087E+02 -0.73114743960E+01  0.25486231672E+02  0.00000000000E+00 0.  1.
         12    1    6    6    0    0  0.74479409974E+01  0.31919366334E+02  0.59492035701E+02  0.67923634208E+02  0.00000000000E+00 0. -1.
         -5    1    3    3    0  503 -0.48894108273E+02  0.74949108559E+02  0.13209145232E+03  0.15961906049E+03  0.47000000000E+01 0.  1.
         13    1    4    4    0    0  0.39209060097E+02  0.29244080685E+01  0.16620646276E+02  0.42686630681E+02  0.00000000000E+00 0. -1.
        -14    1    4    4    0    0 -0.33392813362E+02  0.16858952336E+02 -0.13793622197E+02  0.39869390156E+02  0.00000000000E+00 0.  1.
</event>
<event>
12    1  0.8451514E-002  0.1779227E+03  0.7818608E-02  0.1170047E+00
         21   -1    0    0  503  502  0.00000000000E+00  0.00000000000E+00  0.64055266600E+03  0.64055266600E+03  0.00000000000E+00 0.  1.
         21   -1    0    0  501  503 -0.00000000000E+00 -0.00000000000E+00 -0.50134419493E+02  0.50134419493E+02  0.00000000000E+00 0.  1.
          6    2    1    2  501    0 -0.41840811513E+02 -0.17753587215E+02  0.24814746788E+03  0.30534184545E+03  0.17201928206E+03 0.  0.
         24    2    3    3    0    0 -0.27243590600E+02  0.38782782816E+02  0.22280675955E+03  0.24151644695E+03  0.80255994023E+02 0.  0.
         -6    2    1    2    0  502  0.41840811513E+02  0.17753587215E+02  0.34227077863E+03  0.38534524004E+03  0.17110179646E+03 0.  0.
        -24    2    5    5    0    0  0.73260100642E+02  0.11662896670E+02  0.33548221546E+03  0.35229311711E+03  0.77839950972E+02 0.  0.
          5    1    3    3  501    0 -0.14597220913E+02 -0.56536370031E+02  0.25340708330E+02  0.63825398497E+02  0.47000000000E+01 0. -1.
        -13    1    4    4    0    0 -0.37369417210E+01  0.40693840196E+02  0.21140923028E+03  0.21532258593E+03  0.00000000000E+00 0.  1.
         14    1    4    4    0    0 -0.23506648879E+02 -0.19110573802E+01  0.11397529265E+02  0.26193861021E+02  0.00000000000E+00 0. -1.
         -5    1    5    5    0  502 -0.31419289129E+02  0.60906905450E+01  0.67885631714E+01  0.33052122937E+02  0.47000000000E+01 0.  1.
         13    1    6    6    0    0  0.39040173098E+02  0.25116702608E+02  0.68238206774E+02  0.82531428736E+02  0.00000000000E+00 0. -1.
        -14    1    6    6    0    0  0.34219927544E+02 -0.13453805938E+02  0.26724400868E+03  0.26976168837E+03  0.00000000000E+00 0.  1.
</event>
<event>
12    1  0.8451514E-002  0.2071826E+03  0.7818608E-02  0.1144095E+00
         21   -1    0    0  501  502  0.00000000000E+00  0.00000000000E+00  0.54305072073E+02  0.54305072073E+02  0.00000000000E+00 0.  1.
         21   -1    0    0  502  503 -0.00000000000E+00 -0.00000000000E+00 -0.79521771334E+03  0.79521771334E+03  0.00000000000E+00 0. -1.
         -6    2    1    2    0  503 -0.11491356407E+03  0.45725395247E+01 -0.32398127089E+03  0.38456274910E+03  0.17233284303E+03 0.  0.
        -24    2    3    3    0    0 -0.11563520069E+03  0.34730839733E+02 -0.32188804056E+03  0.35396020927E+03  0.84250746132E+02 0.  0.
          6    2    1    2  501    0  0.11491356407E+03 -0.45725395247E+01 -0.41693137038E+03  0.46496003631E+03  0.17067522501E+03 0.  0.
         24    2    5    5    0    0  0.88068573226E+02  0.68633470309E+01 -0.13077095045E+03  0.17727738308E+03  0.80765400679E+02 0.  0.
          5    1    5    5  501    0  0.26844990844E+02 -0.11435886556E+02 -0.28616041993E+03  0.28768265323E+03  0.47000000000E+01 0. -1.
        -13    1    6    6    0    0  0.87201346235E+02 -0.26685089037E+01 -0.60049005987E+02  0.10591071166E+03  0.00000000000E+00 0.  1.
         14    1    6    6    0    0  0.86722699129E+00  0.95318559346E+01 -0.70721944463E+02  0.71366671415E+02  0.00000000000E+00 0. -1.
         -5    1    3    3    0  503  0.72163662139E+00 -0.30158300208E+02 -0.20932303218E+01  0.30602539830E+02  0.47000000000E+01 0.  1.
         11    1    4    4    0    0 -0.23815364239E+02  0.20145008271E+02 -0.19031519805E+03  0.19285452429E+03  0.00000000000E+00 0. -1.
        -12    1    4    4    0    0 -0.91819836453E+02  0.14585831462E+02 -0.13157284252E+03  0.16110568498E+03  0.00000000000E+00 0.  1.
</event>
<event>
12    1  0.8451514E-002  0.1736815E+03  0.7818608E-02  0.1174733E+00
         21   -1    0    0  501  502  0.00000000000E+00  0.00000000000E+00  0.18377737214E+03  0.18377737214E+03  0.00000000000E+00 0. -1.
         21   -1    0    0  502  503 -0.00000000000E+00 -0.00000000000E+00 -0.18025723489E+03  0.18025723489E+03  0.00000000000E+00 0. -1.
         -6    2    1    2    0  503  0.34588158611E+02  0.86972593770E+01 -0.56700732289E+02  0.18020909179E+03  0.16729722259E+03 0.  0.
        -24    2    3    3    0    0  0.53987503368E+02 -0.27337345266E+02  0.13816697990E+02  0.98541317964E+02  0.76534366377E+02 0.  0.
          6    2    1    2  501    0 -0.34588158611E+02 -0.86972593770E+01  0.60220869540E+02  0.18382551524E+03  0.16998024559E+03 0.  0.
         24    2    5    5    0    0 -0.68693114925E+02  0.19475278584E+02  0.81484169469E+02  0.13451975631E+03  0.79736217925E+02 0.  0.
          5    1    5    5  501    0  0.34104956314E+02 -0.28172537961E+02 -0.21263299930E+02  0.49305758936E+02  0.47000000000E+01 0. -1.
        -13    1    6    6    0    0  0.13916858828E+01 -0.18138862009E+02 -0.30517896947E+01  0.18446368882E+02  0.00000000000E+00 0.  1.
         14    1    6    6    0    0 -0.70084800808E+02  0.37614140593E+02  0.84535959164E+02  0.11607338743E+03  0.00000000000E+00 0. -1.
         -5    1    3    3    0  503 -0.19399344756E+02  0.36034604643E+02 -0.70517430279E+02  0.81667773827E+02  0.47000000000E+01 0.  1.
         13    1    4    4    0    0  0.14718018856E+02 -0.49816815574E+02  0.11680238290E+02  0.53242493927E+02  0.00000000000E+00 0. -1.
        -14    1    4    4    0    0  0.39269484511E+02  0.22479470308E+02  0.21364597000E+01  0.45298824037E+02  0.00000000000E+00 0.  1.
</event>
<event>
12    1  0.8451514E-002  0.1788484E+03  0.7818608E-02  0.1168985E+00
         21   -1    0    0  503  502  0.00000000000E+00  0.00000000000E+00  0.11304018546E+03  0.11304018546E+03  0.00000000000E+00 0. -1.
         21   -1    0    0  501  503 -0.00000000000E+00 -0.00000000000E+00 -0.32754249247E+03  0.32754249247E+03  0.00000000000E+00 0. -1.
          6    2    1    2  501    0 -0.35638295041E+02 -0.30752404844E+02 -0.18881849651E+03  0.25989952818E+03  0.17227751347E+03 0.  0.
         24    2    3    3    0    0 -0.47949045071E+02  0.40121891861E+02 -0.72527803933E+02  0.12307725046E+03  0.77323024437E+02 0.  0.
         -6    2    1    2    0  502  0.35638295041E+02  0.30752404844E+02 -0.25683810501E+02  0.18068314976E+03  0.17254258607E+03 0.  0.
        -24    2    5    5    0    0  0.89514695942E+01  0.71719262300E+02 -0.56522796440E+02  0.12268657128E+03  0.81445606765E+02 0.  0.
          5    1    3    3  501    0  0.12310750030E+02 -0.70874296705E+02 -0.11629069257E+03  0.13682227772E+03  0.47000000000E+01 0. -1.
        -13    1    4    4    0    0  0.15464920027E+02  0.81382829190E+01  0.47598471968E+01  0.18112193287E+02  0.00000000000E+00 0.  1.
         14    1    4    4    0    0 -0.63413965098E+02  0.31983608942E+02 -0.77287651130E+02  0.10496505717E+03  0.00000000000E+00 0. -1.
         -5    1    5    5    0  502  0.26686825446E+02 -0.40966857457E+02  0.30838985938E+02  0.57996578485E+02  0.47000000000E+01 0.  1.
         11    1    6    6    0    0  0.85504381235E+00  0.49569460722E+02  0.11327652131E+02  0.50854481012E+02  0.00000000000E+00 0. -1.
        -12    1    6    6    0    0  0.80964257818E+01  0.22149801578E+02 -0.67850448571E+02  0.71832090264E+02  0.00000000000E+00 0.  1.
</event>
<event>
12    1  0.8451514E-002  0.2275455E+03  0.7818608E-02  0.1128525E+00
         21   -1    0    0  501  502  0.00000000000E+00  0.00000000000E+00  0.17881256460E+03  0.17881256460E+03  0.00000000000E+00 0. -1.
         21   -1    0    0  502  503 -0.00000000000E+00 -0.00000000000E+00 -0.35026146546E+03  0.35026146546E+03  0.00000000000E+00 0. -1.
         -6    2    1    2    0  503  0.38872869727E+02 -0.14360601023E+03  0.25212399304E+02  0.22893804292E+03  0.17217193802E+03 0.  0.
        -24    2    3    3    0    0  0.77072233796E+02 -0.10000643156E+03 -0.25226057860E+02  0.15195594995E+03  0.80702175660E+02 0.  0.
          6    2    1    2  501    0 -0.38872869727E+02  0.14360601023E+03 -0.19666130016E+03  0.30013598714E+03  0.17109107991E+03 0.  0.
         24    2    5    5    0    0  0.38685223784E+01  0.15498874404E+03 -0.12026967969E+03  0.21173823318E+03  0.79572654190E+02 0.  0.
          5    1    5    5  501    0 -0.42741392106E+02 -0.11382733803E+02 -0.76391620471E+02  0.88397753966E+02  0.47000000000E+01 0. -1.
        -13    1    6    6    0    0 -0.21231283852E+02  0.56371293902E+01 -0.86747476502E+01  0.23617702864E+02  0.00000000000E+00 0.  1.
         14    1    6    6    0    0  0.25099806230E+02  0.14935161465E+03 -0.11159493204E+03  0.18812053032E+03  0.00000000000E+00 0. -1.
         -5    1    3    3    0  503 -0.38199364069E+02 -0.43599578676E+02  0.50438457164E+02  0.76982092963E+02  0.47000000000E+01 0.  1.
         11    1    4    4    0    0  0.17482231880E+02 -0.63007781471E+02 -0.44645057867E+02  0.79175691657E+02  0.00000000000E+00 0. -1.
        -12    1    4    4    0    0  0.59590001916E+02 -0.36998650085E+02  0.19419000007E+02  0.72780258297E+02  0.00000000000E+00 0.  1.
</event>
<event>
12    1  0.8451514E-002  0.1839279E+03  0.7818608E-02  0.1164244E+00
         21   -1    0    0  501  502  0.00000000000E+00  0.00000000000E+00  0.77011012224E+02  0.77011012224E+02  0.00000000000E+00 0.  1.
         21   -1    0    0  502  503 -0.00000000000E+00 -0.00000000000E+00 -0.45836219424E+03  0.45836219424E+03  0.00000000000E+00 0. -1.
         -6    2    1    2    0  503 -0.56000132389E+02 -0.31645987927E+02 -0.13378227246E+03  0.22743609751E+03  0.17231366355E+03 0.  0.
        -24    2    3    3    0    0 -0.40859283482E+02 -0.60448789317E+02 -0.21289299070E+02  0.11023709693E+03  0.79846390701E+02 0.  0.
          6    2    1    2  501    0  0.56000132389E+02  0.31645987927E+02 -0.24756890955E+03  0.30793710896E+03  0.17145674299E+03 0.  0.
         24    2    5    5    0    0  0.79365913004E+02 -0.16148837980E+02 -0.22060679437E+03  0.24810943357E+03  0.79568839310E+02 0.  0.
          5    1    5    5  501    0 -0.23365780615E+02  0.47794825908E+02 -0.26962115185E+02  0.59827675390E+02  0.47000000000E+01 0. -1.
        -11    1    6    6    0    0  0.43608141415E+02  0.56573745240E+01 -0.30677291874E+02  0.53616901448E+02  0.00000000000E+00 0.  1.
         12    1    6    6    0    0  0.35757771589E+02 -0.21806212504E+02 -0.18992950249E+03  0.19449253212E+03  0.00000000000E+00 0. -1.
         -5    1    3    3    0  503 -0.15140848906E+02  0.28802801390E+02 -0.11249297339E+03  0.11719900058E+03  0.47000000000E+01 0.  1.
         13    1    4    4    0    0  0.40031892292E+00 -0.66057429889E+02 -0.80685616655E+01  0.66549575402E+02  0.00000000000E+00 0. -1.
        -14    1    4    4    0    0 -0.41259602405E+02  0.56086405719E+01 -0.13220737405E+02  0.43687521528E+02  0.00000000000E+00 0.  1.
</event>
<event>
12    1  0.8451514E-002  0.2257405E+03  0.7818608E-02  0.1129691E+00
         21   -1    0    0  501  502  0.00000000000E+00  0.00000000000E+00  0.70725296472E+03  0.70725296472E+03  0.00000000000E+00 0.  1.
         21   -1    0    0  502  503 -0.00000000000E+00 -0.00000000000E+00 -0.89511393905E+02  0.89511393905E+02  0.00000000000E+00 0.  1.
         -6    2    1    2    0  503  0.95537154576E+02  0.11089475484E+03  0.13272888092E+03  0.26179138830E+03  0.17173462262E+03 0.  0.
        -24    2    3    3    0    0  0.10871199632E+03  0.36733739216E+02  0.48771946311E+02  0.14890077948E+03  0.81394555348E+02 0.  0.
          6    2    1    2  501    0 -0.95537154576E+02 -0.11089475484E+03  0.48501268989E+03  0.53497297032E+03  0.17185393524E+03 0.  0.
         24    2    5    5    0    0  0.42095866789E+01 -0.79324586655E+02  0.32493811677E+03  0.34368249259E+03  0.78884506160E+02 0.  0.
          5    1    5    5  501    0 -0.99746741255E+02 -0.31570168183E+02  0.16007457312E+03  0.19129047773E+03  0.47000000000E+01 0. -1.
        -13    1    6    6    0    0 -0.26426331909E+02 -0.74341129190E+02  0.26000623981E+03  0.27171345062E+03  0.00000000000E+00 0.  1.
         14    1    6    6    0    0  0.30635918588E+02 -0.49834574651E+01  0.64931876958E+02  0.71969041965E+02  0.00000000000E+00 0. -1.
         -5    1    3    3    0  503 -0.13174841746E+02  0.74161015621E+02  0.83956934607E+02  0.11289060883E+03  0.47000000000E+01 0.  1.
         13    1    4    4    0    0  0.12559781655E+02 -0.22529956995E+02  0.19168652888E+02  0.32136962068E+02  0.00000000000E+00 0. -1.
        -14    1    4    4    0    0  0.96152214667E+02  0.59263696211E+02  0.29603293423E+02  0.11676381741E+03  0.00000000000E+00 0.  1.
</event>
<event>
12    1  0.8451514E-002  0.2275514E+03  0.7818608E-02  0.1128551E+00
         21   -1    0    0  503  502  0.00000000000E+00  0.00000000000E+00  0.12455526848E+03  0.12455526848E+03  0.00000000000E+00 0. -1.
         21   -1    0    0  501  503 -0.00000000000E+00 -0.00000000000E+00 -0.48028239410E+03  0.48028239410E+03  0.00000000000E+00 0.  1.
          6    2    1    2  501    0  0.70720948587E+02 -0.13052111298E+03 -0.65781909350E+02  0.23686896986E+03  0.17245995414E+03 0.  0.
         24    2    3    3    0    0 -0.23828015119E+02 -0.74372426606E+02 -0.54959662935E+02  0.12627334365E+03  0.82615740768E+02 0.  0.
         -6    2    1    2    0  502 -0.70720948587E+02  0.13052111298E+03 -0.28994521627E+03  0.36796869272E+03  0.17115933185E+03 0.  0.
        -24    2    5    5    0    0 -0.58186900071E+00  0.10086550244E+03 -0.24468588673E+03  0.27925881372E+03  0.89107315739E+02 0.  0.
          5    1    3    3  501    0  0.94548963706E+02 -0.56148686371E+02 -0.10822246415E+02  0.11059562621E+03  0.47000000000E+01 0. -1.
        -13    1    4    4    0    0  0.23428333239E+02 -0.10283807310E+02 -0.36431980719E+02  0.44518902842E+02  0.00000000000E+00 0.  1.
         14    1    4    4    0    0 -0.47256348358E+02 -0.64088619296E+02 -0.18527682216E+02  0.81754440807E+02  0.00000000000E+00 0. -1.
         -5    1    5    5    0  502 -0.70139079587E+02  0.29655610534E+02 -0.45259329540E+02  0.88709878998E+02  0.47000000000E+01 0.  1.
         11    1    6    6    0    0  0.31041508058E+02  0.45748197254E+02 -0.50275677723E+02  0.74726946579E+02  0.00000000000E+00 0. -1.
        -12    1    6    6    0    0 -0.31623377059E+02  0.55117305189E+02 -0.19441020901E+03  0.20453186714E+03  0.00000000000E+00 0.  1.
</event>
<event>
12    1  0.8451514E-002  0.2256827E+03  0.7818608E-02  0.1129766E+00
         21   -1    0    0  503  502  0.00000000000E+00  0.00000000000E+00  0.29229994650E+03  0.29229994650E+03  0.00000000000E+00 0.  1.
         21   -1    0    0  501  503 -0.00000000000E+00 -0.00000000000E+00 -0.17908188810E+03  0.17908188810E+03  0.00000000000E+00 0.  1.
          6    2    1    2  501    0 -0.90049026578E+02 -0.11432073299E+03  0.96147976125E+02  0.24505447240E+03  0.17213135668E+03 0.  0.
         24    2    3    3    0    0 -0.11545863457E+03 -0.58972280734E+02  0.28737841975E+02  0.15408571111E+03  0.78154440788E+02 0.  0.
         -6    2    1    2    0  502  0.90049026578E+02  0.11432073299E+03  0.17070082271E+02  0.22632736220E+03  0.17249530426E+03 0.  0.
        -24    2    5    5    0    0  0.11810734768E+03  0.10903654885E+03  0.45724385315E+02  0.18560450537E+03  0.80746507286E+02 0.  0.
          5    1    3    3  501    0  0.25409607990E+02 -0.55348452257E+02  0.67410134150E+02  0.90968761295E+02  0.47000000000E+01 0. -1.
        -13    1    4    4    0    0 -0.36398403622E+02 -0.82164295691E+01  0.45297106652E+02  0.58687148270E+02  0.00000000000E+00 0.  1.
         14    1    4    4    0    0 -0.79060230946E+02 -0.50755851165E+02 -0.16559264677E+02  0.95398562838E+02  0.00000000000E+00 0. -1.
         -5    1    5    5    0  502 -0.28058321104E+02  0.52841841419E+01 -0.28654303044E+02  0.40722856827E+02  0.47000000000E+01 0.  1.
         13    1    6    6    0    0  0.48464498894E+01 -0.16918171261E+00 -0.15907246319E+02  0.16630008552E+02  0.00000000000E+00 0. -1.
        -14    1    6    6    0    0  0.11326089779E+03  0.10920573056E+03  0.61631631634E+02  0.16897449682E+03  0.00000000000E+00 0.  1.
</event>
<event>
12    1  0.8451514E-002  0.3194932E+03  0.7818608E-02  0.1076311E+00
         21   -1    0    0  501  502  0.00000000000E+00  0.00000000000E+00  0.37316196579E+03  0.37316196579E+03  0.00000000000E+00 0.  1.
         21   -1    0    0  502  503 -0.00000000000E+00 -0.00000000000E+00 -0.42112801443E+03  0.42112801443E+03  0.00000000000E+00 0. -1.
         -6    2    1    2    0  503 -0.17414505399E+03  0.19868237074E+03 -0.26149182244E+03  0.41001253996E+03  0.17300614282E+03 0.  0.
        -24    2    3    3    0    0 -0.18071746652E+03  0.14569506113E+03 -0.15368896755E+03  0.28961986116E+03  0.79834276428E+02 0.  0.
          6    2    1    2  501    0  0.17414505399E+03 -0.19868237074E+03  0.21352577379E+03  0.38427744026E+03  0.17965163720E+03 0.  0.
         24    2    5    5    0    0  0.17666968359E+03 -0.21855804836E+03  0.17392733854E+03  0.33965073984E+03  0.78307779850E+02 0.  0.
          5    1    5    5  501    0 -0.25246295923E+01  0.19875677623E+02  0.39598435256E+02  0.44626700419E+02  0.47000000000E+01 0. -1.
        -13    1    6    6    0    0  0.70160242723E+02 -0.14441160426E+03  0.79508803110E+02  0.17916143803E+03  0.00000000000E+00 0.  1.
         14    1    6    6    0    0  0.10650944086E+03 -0.74146444099E+02  0.94418535427E+02  0.16048930182E+03  0.00000000000E+00 0. -1.
         -5    1    3    3    0  503  0.65724125264E+01  0.52987309612E+02 -0.10780285489E+03  0.12039267880E+03  0.47000000000E+01 0.  1.
         13    1    4    4    0    0 -0.14054514442E+02  0.50596212939E+02 -0.44574323938E+02  0.68879434482E+02  0.00000000000E+00 0. -1.
        -14    1    4    4    0    0 -0.16666295208E+03  0.95098848186E+02 -0.10911464361E+03  0.22074042668E+03  0.00000000000E+00 0.  1.
</event>
<event>
12    1  0.8451514E-002  0.1814773E+03  0.7818608E-02  0.1166480E+00
         21   -1    0    0  501  502  0.00000000000E+00  0.00000000000E+00  0.82432283712E+02  0.82432283712E+02  0.00000000000E+00 0. -1.
         21   -1    0    0  502  503 -0.00000000000E+00 -0.00000000000E+00 -0.43028791033E+03  0.43028791033E+03  0.00000000000E+00 0. -1.
         -6    2    1    2    0  503  0.56921709178E+02 -0.12360391760E+02 -0.24366580755E+03  0.30382074951E+03  0.17187542525E+03 0.  0.
        -24    2    3    3    0    0  0.90291073363E+02  0.52089308723E+01 -0.11344213612E+03  0.16816497129E+03  0.85033689984E+02 0.  0.
          6    2    1    2  501    0 -0.56921709178E+02  0.12360391760E+02 -0.10418981907E+03  0.20889944453E+03  0.17143686671E+03 0.  0.
         24    2    5    5    0    0  0.27289034608E+02  0.33401522015E+02 -0.74426749549E+02  0.11701849526E+03  0.79332427804E+02 0.  0.
          5    1    5    5  501    0 -0.84210743787E+02 -0.21041130255E+02 -0.29763069520E+02  0.91880949270E+02  0.47000000000E+01 0. -1.
        -11    1    6    6    0    0  0.28272477060E+01 -0.18764582924E+02  0.43028526721E+01  0.19458094537E+02  0.00000000000E+00 0.  1.
         12    1    6    6    0    0  0.24461786902E+02  0.52166104939E+02 -0.78729602221E+02  0.97560400721E+02  0.00000000000E+00 0. -1.
         -5    1    3    3    0  503 -0.33369364185E+02 -0.17569322632E+02 -0.13022367143E+03  0.13565577822E+03  0.47000000000E+01 0.  1.
         13    1    4    4    0    0  0.38003990301E+02  0.31758076951E+02 -0.94237134535E+02  0.10645898861E+03  0.00000000000E+00 0. -1.
        -14    1    4    4    0    0  0.52287083063E+02 -0.26549146079E+02 -0.19205001580E+02  0.61705982679E+02  0.00000000000E+00 0.  1.
</event>
<event>
12    1  0.8451514E-002  0.2560886E+03  0.7818608E-02  0.1109623E+00
         21   -1    0    0  503  502  0.00000000000E+00  0.00000000000E+00  0.29184014623E+03  0.29184014623E+03  0.00000000000E+00 0.  1.
         21   -1    0    0  501  503 -0.00000000000E+00 -0.00000000000E+00 -0.33470582557E+03  0.33470582557E+03  0.00000000000E+00 0.  1.
          6    2    1    2  501    0  0.18788003674E+03  0.20193245216E+02 -0.20153153371E+03  0.32587776169E+03  0.17284293773E+03 0.  0.
         24    2    3    3    0    0  0.14573236467E+03 -0.15507025081E+02 -0.20747091346E+03  0.27012561561E+03  0.91898195495E+02 0.  0.
         -6    2    1    2    0  502 -0.18788003674E+03 -0.20193245216E+02  0.15866585437E+03  0.30066821011E+03  0.17181339839E+03 0.  0.
        -24    2    5    5    0    0 -0.18244592981E+03 -0.15691884790E+02  0.18533349718E+03  0.27268527000E+03  0.80473590348E+02 0.  0.
          5    1    3    3  501    0  0.42147672077E+02  0.35700270297E+02  0.59393797531E+01  0.55752146081E+02  0.47000000000E+01 0. -1.
        -11    1    4    4    0    0  0.99344092191E+02 -0.12748339422E+02 -0.62904691426E+02  0.11827412657E+03  0.00000000000E+00 0.  1.
         12    1    4    4    0    0  0.46388272474E+02 -0.27586856585E+01 -0.14456622204E+03  0.15185148904E+03  0.00000000000E+00 0. -1.
         -5    1    5    5    0  502 -0.54341069280E+01 -0.45013604259E+01 -0.26667642812E+02  0.27982940105E+02  0.47000000000E+01 0.  1.
         13    1    6    6    0    0 -0.69042258410E+02 -0.19504597992E+02  0.24414726890E+02  0.75784838050E+02  0.00000000000E+00 0. -1.
        -14    1    6    6    0    0 -0.11340367140E+03  0.38127132023E+01  0.16091877029E+03  0.19690043195E+03  0.00000000000E+00 0.  1.
</event>
<event>
12    1  0.8451514E-002  0.2204460E+03  0.7818608E-02  0.1134087E+00
         21   -1    0    0  501  502  0.00000000000E+00  0.00000000000E+00  0.74397601305E+03  0.74397601305E+03  0.00000000000E+00 0.  1.
         21   -1    0    0  502  503 -0.00000000000E+00 -0.00000000000E+00 -0.94424304153E+02  0.94424304153E+02  0.00000000000E+00 0. -1.
         -6    2    1    2    0  503  0.26007738708E+02 -0.13175261444E+03  0.87240497246E+02  0.23442154458E+03  0.17119404873E+03 0.  0.
        -24    2    3    3    0    0  0.31882898938E+02 -0.53133844139E+02 -0.17736363524E+02  0.10305313191E+03  0.80409233101E+02 0.  0.
          6    2    1    2  501    0 -0.26007738708E+02  0.13175261444E+03  0.56231121165E+03  0.60397877262E+03  0.17481791997E+03 0.  0.
         24    2    5    5    0    0 -0.22029236886E+02  0.11956428262E+03  0.23419030360E+03  0.27557383324E+03  0.79466560952E+02 0.  0.
          5    1    5    5  501    0 -0.39785018221E+01  0.12188331818E+02  0.32812090805E+03  0.32840493938E+03  0.47000000000E+01 0. -1.
        -11    1    6    6    0    0 -0.29444202336E+02  0.94521146297E+02  0.22824044382E+03  0.24878687333E+03  0.00000000000E+00 0.  1.
         12    1    6    6    0    0  0.74149654505E+01  0.25043136324E+02  0.59498597808E+01  0.26786959905E+02  0.00000000000E+00 0. -1.
         -5    1    3    3    0  503 -0.58751602304E+01 -0.78618770299E+02  0.10497686077E+03  0.13136841267E+03  0.47000000000E+01 0.  1.
         13    1    4    4    0    0  0.11254899193E+02 -0.53515633448E+02 -0.43620577129E+02  0.69952487649E+02  0.00000000000E+00 0. -1.
        -14    1    4    4    0    0  0.20627999745E+02  0.38178930844E+00  0.25884213606E+02  0.33100644262E+02  0.00000000000E+00 0.  1.
</event>
<event>
12    1  0.8451514E-002  0.1969273E+03  0.7818608E-02  0.1152417E+00
         21   -1    0    0  503  502  0.00000000000E+00  0.00000000000E+00  0.49662942602E+03  0.49662942602E+03  0.00000000000E+00 0. -1.
         21   -1    0    0  501  503 -0.00000000000E+00 -0.00000000000E+00 -0.85902949064E+02  0.85902949064E+02  0.00000000000E+00 0. -1.
          6    2    1    2  501    0 -0.92426893199E+02 -0.23247337666E+02  0.11676525127E+03  0.22870534169E+03  0.17201406954E+03 0.  0.
         24    2    3    3    0    0 -0.37739014659E+02  0.45857271961E+02  0.29298439344E+02  0.10445259798E+03  0.80776383050E+02 0.  0.
         -6    2    1    2    0  502  0.92426893199E+02  0.23247337666E+02  0.29396122569E+03  0.35382703339E+03  0.17232874994E+03 0.  0.
        -24    2    5    5    0    0  0.77620523153E+02  0.81236838540E+02  0.19687715968E+03  0.23968056311E+03  0.77857477334E+02 0.  0.
          5    1    3    3  501    0 -0.54687878540E+02 -0.69104609626E+02  0.87466811922E+02  0.12425274371E+03  0.47000000000E+01 0. -1.
        -11    1    4    4    0    0  0.13630975340E+02  0.34765884128E+02  0.35512709994E+02  0.51532734830E+02  0.00000000000E+00 0.  1.
         12    1    4    4    0    0 -0.51369989999E+02  0.11091387833E+02 -0.62142706504E+01  0.52919863155E+02  0.00000000000E+00 0. -1.
         -5    1    5    5    0  502  0.14806370046E+02 -0.57989500874E+02  0.97084066005E+02  0.11414647028E+03  0.47000000000E+01 0.  1.
         11    1    6    6    0    0  0.40908440566E+02 -0.37575060780E+01  0.85425512743E+02  0.94789965655E+02  0.00000000000E+00 0. -1.
        -12    1    6    6    0    0  0.36712082587E+02  0.84994344618E+02  0.11145164694E+03  0.14489059745E+03  0.00000000000E+00 0.  1.
</event>
<event>
12    1  0.8451514E-002  0.2321896E+03  0.7818608E-02  0.1125265E+00
         21   -1    0    0  503  502  0.00000000000E+00  0.00000000000E+00  0.38902704088E+03  0.38902704088E+03  0.00000000000E+00 0.  1.
         21   -1    0    0  501  503 -0.00000000000E+00 -0.00000000000E+00 -0.30014597153E+03  0.30014597153E+03  0.00000000000E+00 0.  1.
          6    2    1    2  501    0 -0.76575835820E+02 -0.13523884806E+03 -0.20875620749E+03  0.31223576582E+03  0.17250685387E+03 0.  0.
         24    2    3    3    0    0 -0.11529400949E+03 -0.12641887260E+03 -0.17783621175E+03  0.26168850994E+03  0.87067319077E+02 0.  0.
         -6    2    1    2    0  502  0.76575835820E+02  0.13523884806E+03  0.29763727685E+03  0.37693724659E+03  0.17129020592E+03 0.  0.
        -24    2    5    5    0    0 -0.22971770579E+02  0.66379993890E+02  0.16736359728E+03  0.19904798518E+03  0.81703860850E+02 0.  0.
          5    1    3    3  501    0  0.38718173675E+02 -0.88199754612E+01 -0.30919995745E+02  0.50547255877E+02  0.47000000000E+01 0. -1.
        -11    1    4    4    0    0 -0.58786246237E+02 -0.88331953193E+02 -0.51045744981E+02  0.11774559347E+03  0.00000000000E+00 0.  1.
         12    1    4    4    0    0 -0.56507763258E+02 -0.38086919405E+02 -0.12679046677E+03  0.14394291647E+03  0.00000000000E+00 0. -1.
         -5    1    5    5    0  502  0.99547606399E+02  0.68858854170E+02  0.13027367956E+03  0.17788926141E+03  0.47000000000E+01 0.  1.
         11    1    6    6    0    0 -0.38919040338E+02  0.76943273617E+02  0.11831580386E+03  0.14640214649E+03  0.00000000000E+00 0. -1.
        -12    1    6    6    0    0  0.15947269759E+02 -0.10563279727E+02  0.49047793426E+02  0.52645838689E+02  0.00000000000E+00 0.  1.
</event>
<event>
12    1  0.8451514E-002  0.1739609E+03  0.7818608E-02  0.1174547E+00
         21   -1    0    0  501  502  0.00000000000E+00  0.00000000000E+00  0.24048644525E+03  0.24048644525E+03  0.00000000000E+00 0.  1.
         21   -1    0    0  502  503 -0.00000000000E+00 -0.00000000000E+00 -0.17072059426E+03  0.17072059426E+03  0.00000000000E+00 0.  1.
         -6    2    1    2    0  503  0.11675384635E+02  0.10389585030E+02 -0.72827528056E+02  0.18859016222E+03  0.17325744532E+03 0.  0.
        -24    2    3    3    0    0  0.38728514650E+02 -0.23915413119E+02  0.12683509570E+02  0.92449992164E+02  0.79462474191E+02 0.  0.
          6    2    1    2  501    0 -0.11675384635E+02 -0.10389585030E+02  0.14259337905E+03  0.22261687730E+03  0.17023849220E+03 0.  0.
         24    2    5    5    0    0  0.43791817394E+02 -0.26583627838E+01  0.13817835443E+03  0.16624343727E+03  0.81356208357E+02 0.  0.
          5    1    5    5  501    0 -0.55467202029E+02 -0.77312222464E+01  0.44150246149E+01  0.56373440029E+02  0.47000000000E+01 0. -1.
        -11    1    6    6    0    0 -0.19377025467E+02 -0.84260922910E+01  0.70004804312E+02  0.73124146313E+02  0.00000000000E+00 0.  1.
         12    1    6    6    0    0  0.63168842862E+02  0.57677295072E+01  0.68173550118E+02  0.93119290955E+02  0.00000000000E+00 0. -1.
         -5    1    3    3    0  503 -0.27053130015E+02  0.34304998149E+02 -0.85511037625E+02  0.96140170051E+02  0.47000000000E+01 0.  1.
         13    1    4    4    0    0 -0.89863626899E+01  0.20516643001E+02 -0.84077103547E+01  0.23924400678E+02  0.00000000000E+00 0. -1.
        -14    1    4    4    0    0  0.47714877340E+02 -0.44432056120E+02  0.21091219924E+02  0.68525591486E+02  0.00000000000E+00 0.  1.
</event>
<event>
12    1  0.8451514E-002  0.1777241E+03  0.7818608E-02  0.1170197E+00
         21   -1    0    0  503  502  0.00000000000E+00  0.00000000000E+00  0.71919257434E+03  0.71919257434E+03  0.00000000000E+00 0. -1.
         21   -1    0    0  501  503 -0.00000000000E+00 -0.00000000000E+00 -0.12510003094E+03  0.12510003094E+03  0.00000000000E+00 0. -1.
          6    2    1    2  501    0 -0.29109516375E+02 -0.29516937509E+02 -0.43176317743E+02  0.18289356446E+03  0.17282143375E+03 0.  0.
         24    2    3    3    0    0 -0.16366026741E+02  0.50258786800E+02 -0.15222984604E+02  0.97277902628E+02  0.80233774668E+02 0.  0.
         -6    2    1    2    0  502  0.29109516375E+02  0.29516937509E+02  0.63726886115E+03  0.66139904082E+03  0.17210019251E+03 0.  0.
        -24    2    5    5    0    0  0.62733833984E+02  0.11825753893E+02  0.59580241555E+03  0.60496209527E+03  0.83205985087E+02 0.  0.
          5    1    3    3  501    0 -0.12743489634E+02 -0.79775724309E+02 -0.27953333139E+02  0.85615661831E+02  0.47000000000E+01 0. -1.
        -11    1    4    4    0    0 -0.43513213490E+02  0.50101075333E+02 -0.42777004102E+00  0.66360383400E+02  0.00000000000E+00 0.  1.
         12    1    4    4    0    0  0.27147186749E+02  0.15771146686E+00 -0.14795214563E+02  0.30917519228E+02  0.00000000000E+00 0. -1.
         -5    1    5    5    0  502 -0.33624317609E+02  0.17691183616E+02  0.41466445596E+02  0.56436945548E+02  0.47000000000E+01 0.  1.
         11    1    6    6    0    0  0.62905556102E+02 -0.25106987706E+02  0.36690674526E+03  0.37310592267E+03  0.00000000000E+00 0. -1.
        -12    1    6    6    0    0 -0.17172211830E+00  0.36932741599E+02  0.22889567029E+03  0.23185617259E+03  0.00000000000E+00 0.  1.
</event>
<event>
12    1  0.8451514E-002  0.1821864E+03  0.7818608E-02  0.1166191E+00
         21   -1    0    0  501  502  0.00000000000E+00  0.00000000000E+00  0.14073926600E+04  0.14073926600E+04  0.00000000000E+00 0. -1.
         21   -1    0    0  502  503 -0.00000000000E+00 -0.00000000000E+00 -0.40298229441E+02  0.40298229441E+02  0.00000000000E+00 0. -1.
         -6    2    1    2    0  503 -0.56796328874E+02 -0.12980956624E+00  0.21595213953E+03  0.28253708691E+03  0.17310701629E+03 0.  0.
        -24    2    3    3    0    0 -0.45836292162E+01  0.61740235931E+02  0.13259378649E+03  0.16624102698E+03  0.78880291862E+02 0.  0.
          6    2    1    2  501    0  0.56796328874E+02  0.12980956624E+00  0.11511422911E+04  0.11651538026E+04  0.17096481956E+03 0.  0.
         24    2    5    5    0    0 -0.31155896589E+02 -0.16192658593E+02  0.54082328571E+03  0.54829612430E+03  0.83101874085E+02 0.  0.
          5    1    5    5  501    0  0.87952225463E+02  0.16322468159E+02  0.61031900535E+03  0.61685767826E+03  0.47000000000E+01 0. -1.
        -13    1    6    6    0    0 -0.49197817189E+01  0.14831676725E+02  0.17754792149E+02  0.23651966744E+02  0.00000000000E+00 0.  1.
         14    1    6    6    0    0 -0.26236114870E+02 -0.31024335318E+02  0.52306849356E+03  0.52464415756E+03  0.00000000000E+00 0. -1.
         -5    1    3    3    0  503 -0.52212699658E+02 -0.61870045497E+02  0.83358353036E+02  0.11629605993E+03  0.47000000000E+01 0.  1.
         13    1    4    4    0    0 -0.11619687637E+02  0.27706498511E+02  0.92042196229E+00  0.30058515884E+02  0.00000000000E+00 0. -1.
        -14    1    4    4    0    0  0.70360584204E+01  0.34033737420E+02  0.13167336453E+03  0.13618251110E+03  0.00000000000E+00 0.  1.
</event>
<event>
12    1  0.8451514E-002  0.2172654E+03  0.7818608E-02  0.1136241E+00
         21   -1    0    0  503  502  0.00000000000E+00  0.00000000000E+00  0.69722751983E+03  0.69722751983E+03  0.00000000000E+00 0.  1.
         21   -1    0    0  501  503 -0.00000000000E+00 -0.00000000000E+00 -0.18675750349E+03  0.18675750349E+03  0.00000000000E+00 0. -1.
          6    2    1    2  501    0 -0.44031401091E+02 -0.12993645933E+03 -0.98732601789E+02  0.23719906191E+03  0.16641220079E+03 0.  0.
         24    2    3    3    0    0  0.73809648525E+01 -0.12817779755E+03 -0.35548517487E+02  0.15558630083E+03  0.80370227592E+02 0.  0.
         -6    2    1    2    0  502  0.44031401091E+02  0.12993645933E+03  0.60920261813E+03  0.64678596141E+03  0.16846958831E+03 0.  0.
        -24    2    5    5    0    0  0.50058855642E+00  0.92256346988E+01  0.13956765519E+03  0.15991316155E+03  0.77509521587E+02 0.  0.
          5    1    3    3  501    0 -0.51412365944E+02 -0.17586617831E+01 -0.63184084302E+02  0.81612761087E+02  0.47000000000E+01 0. -1.
        -11    1    4    4    0    0 -0.65540951066E+01 -0.10458512356E+03  0.69497320366E+01  0.10502048852E+03  0.00000000000E+00 0.  1.
         12    1    4    4    0    0  0.13935059959E+02 -0.23592673984E+02 -0.42498249524E+02  0.50565812308E+02  0.00000000000E+00 0. -1.
         -5    1    5    5    0  502  0.43530812535E+02  0.12071082463E+03  0.46963496294E+03  0.48687279986E+03  0.47000000000E+01 0.  1.
         13    1    6    6    0    0  0.21032949164E+02  0.25328647506E+02  0.22268822588E+02  0.39747022460E+02  0.00000000000E+00 0. -1.
        -14    1    6    6    0    0 -0.20532360607E+02 -0.16103012807E+02  0.11729883260E+03  0.12016613909E+03  0.00000000000E+00 0.  1.
</event>
<event>
12    1  0.8451514E-002  0.1977611E+03  0.7818608E-02  0.1154444E+00
         21   -1    0    0  503  502  0.00000000000E+00  0.00000000000E+00  0.20224629402E+03  0.20224629402E+03  0.00000000000E+00 0.  1.
         21   -1    0    0  501  503 -0.00000000000E+00 -0.00000000000E+00 -0.18438027430E+03  0.18438027430E+03  0.00000000000E+00 0.  1.
          6    2    1    2  501    0  0.66709420734E+02  0.76822720452E+01  0.34535737816E+02  0.20075405040E+03  0.18601157880E+03 0.  0.
         24    2    3    3    0    0  0.93098473584E+02  0.60665678572E+02  0.13647817635E+02  0.13780948203E+03  0.80358820739E+02 0.  0.
         -6    2    1    2    0  502 -0.66709420734E+02 -0.76822720452E+01 -0.16669718100E+02  0.18587251793E+03  0.17251535961E+03 0.  0.
        -24    2    5    5    0    0 -0.95904833752E+02 -0.47433978849E+01  0.32834286061E+02  0.12813392121E+03  0.78230265648E+02 0.  0.
          5    1    3    3  501    0 -0.26389052850E+02 -0.52983406527E+02  0.20887920182E+02  0.62944568368E+02  0.47000000000E+01 0. -1.
        -13    1    4    4    0    0  0.63991830600E+02  0.49206250385E+02 -0.28248984724E+02  0.85523181643E+02  0.00000000000E+00 0.  1.
         14    1    4    4    0    0  0.29106642984E+02  0.11459428188E+02  0.41896802358E+02  0.52286300386E+02  0.00000000000E+00 0. -1.
         -5    1    5    5    0  502  0.29195413018E+02 -0.29388741603E+01 -0.49504004160E+02  0.57738596714E+02  0.47000000000E+01 0.  1.
         11    1    6    6    0    0  0.10504433050E+02  0.51801160006E+01 -0.74967890571E+01  0.13906062047E+02  0.00000000000E+00 0. -1.
        -12    1    6    6    0    0 -0.10640926680E+03 -0.99235138855E+01  0.40331075118E+02  0.11422785916E+03  0.00000000000E+00 0.  1.
</event>
<event>
12    1  0.8451514E-002  0.1947449E+03  0.7818608E-02  0.1154413E+00
         21   -1    0    0  503  502  0.00000000000E+00  0.00000000000E+00  0.40371583111E+03  0.40371583111E+03  0.00000000000E+00 0.  1.
         21   -1    0    0  501  503 -0.00000000000E+00 -0.00000000000E+00 -0.20658802419E+03  0.20658802419E+03  0.00000000000E+00 0.  1.
          6    2    1    2  501    0 -0.86050317577E+02 -0.27007193621E+02 -0.12704091463E+03  0.23251871691E+03  0.17260218441E+03 0.  0.
         24    2    3    3    0    0 -0.27198364434E+02  0.40010688332E+02 -0.10318123533E+03  0.14007239094E+03  0.81445080694E+02 0.  0.
         -6    2    1    2    0  502  0.86050317577E+02  0.27007193621E+02  0.32416872155E+03  0.37778513839E+03  0.17176205954E+03 0.  0.
        -24    2    5    5    0    0  0.72644492489E+02 -0.47686861262E+02  0.17265287266E+03  0.20826210030E+03  0.77542433254E+02 0.  0.
          5    1    3    3  501    0 -0.58851953143E+02 -0.67017881953E+02 -0.23859679297E+02  0.92446325975E+02  0.47000000000E+01 0. -1.
        -11    1    4    4    0    0 -0.14225214712E+02 -0.24702267998E+02 -0.35647066833E+02  0.45642876242E+02  0.00000000000E+00 0.  1.
         12    1    4    4    0    0 -0.12973149722E+02  0.64712956329E+02 -0.67534168501E+02  0.94429514696E+02  0.00000000000E+00 0. -1.
         -5    1    5    5    0  502  0.13405825088E+02  0.74694054884E+02  0.15151584889E+03  0.16952303810E+03  0.47000000000E+01 0.  1.
         13    1    6    6    0    0  0.81491970727E+02 -0.49149809795E+02  0.17481275335E+03  0.19903804619E+03  0.00000000000E+00 0. -1.
        -14    1    6    6    0    0 -0.88474782380E+01  0.14629485332E+01 -0.21598806897E+01  0.92240541074E+01  0.00000000000E+00 0.  1.
</event>
<event>
12    1  0.8451514E-002  0.2056777E+03  0.7818608E-02  0.1145352E+00
         21   -1    0    0  501  502  0.00000000000E+00  0.00000000000E+00  0.99878706783E+02  0.99878706783E+02  0.00000000000E+00 0. -1.
         21   -1    0    0  502  503 -0.00000000000E+00 -0.00000000000E+00 -0.45009451975E+03  0.45009451975E+03  0.00000000000E+00 0. -1.
         -6    2    1    2    0  503 -0.10629773457E+03 -0.32942791663E+02 -0.24641228999E+03  0.32097089327E+03  0.17297069628E+03 0.  0.
        -24    2    3    3    0    0 -0.73075961915E+02 -0.61987351932E+02 -0.24660202302E+03  0.27659298595E+03  0.80675858281E+02 0.  0.
          6    2    1    2  501    0  0.10629773457E+03  0.32942791663E+02 -0.10380352298E+03  0.22900233327E+03  0.17112118911E+03 0.  0.
         24    2    5    5    0    0  0.86106427240E+02  0.27103735246E+02  0.44911025623E+01  0.11858675741E+03  0.76770565673E+02 0.  0.
          5    1    5    5  501    0  0.20191307329E+02  0.58390564169E+01 -0.10829462554E+03  0.11041557586E+03  0.47000000000E+01 0. -1.
        -13    1    6    6    0    0 -0.13297967247E+02  0.36627981196E+01 -0.75904553199E+01  0.15743793537E+02  0.00000000000E+00 0.  1.
         14    1    6    6    0    0  0.99404394487E+02  0.23440937127E+02  0.12081557882E+02  0.10284296387E+03  0.00000000000E+00 0. -1.
         -5    1    3    3    0  503 -0.33221772654E+02  0.29044560269E+02  0.18973302886E+00  0.44377907320E+02  0.47000000000E+01 0.  1.
         11    1    4    4    0    0 -0.70653989873E+02 -0.33310573896E+02 -0.23101585714E+03  0.24386452564E+03  0.00000000000E+00 0. -1.
        -12    1    4    4    0    0 -0.24219720424E+01 -0.28676778035E+02 -0.15586165882E+02  0.32728460305E+02  0.00000000000E+00 0.  1.
</event>
<event>
12    1  0.8451514E-002  0.1768245E+03  0.7818608E-02  0.1174361E+00
         21   -1    0    0  501  502  0.00000000000E+00  0.00000000000E+00  0.76887661317E+02  0.76887661317E+02  0.00000000000E+00 0. -1.
         21   -1    0    0  502  503 -0.00000000000E+00 -0.00000000000E+00 -0.37755607115E+03  0.37755607115E+03  0.00000000000E+00 0. -1.
         -6    2    1    2    0  503  0.30184457204E+02  0.25005562005E+02 -0.13258989815E+03  0.21048208215E+03  0.15870175244E+03 0.  0.
        -24    2    3    3    0    0  0.45065017967E+02 -0.12914022608E+02 -0.25703370746E+02  0.96000006149E+02  0.79735249975E+02 0.  0.
          6    2    1    2  501    0 -0.30184457204E+02 -0.25005562005E+02 -0.16807851168E+03  0.24396165031E+03  0.17242540748E+03 0.  0.
         24    2    5    5    0    0 -0.71223281546E+02 -0.59604796181E+02 -0.11894650491E+03  0.17104158312E+03  0.80507543533E+02 0.  0.
          5    1    5    5  501    0  0.41038824342E+02  0.34599234176E+02 -0.49132006769E+02  0.72920067184E+02  0.47000000000E+01 0. -1.
        -11    1    6    6    0    0 -0.23822272757E+02  0.95461729543E+01 -0.17862227985E+00  0.25664411221E+02  0.00000000000E+00 0.  1.
         12    1    6    6    0    0 -0.47401008789E+02 -0.69150969135E+02 -0.11876788263E+03  0.14537717190E+03  0.00000000000E+00 0. -1.
         -5    1    3    3    0  503 -0.14880560762E+02  0.37919584613E+02 -0.10688652741E+03  0.11448207601E+03  0.47000000000E+01 0.  1.
         11    1    4    4    0    0  0.34708737977E+02  0.22964478661E+02 -0.38330205887E+02  0.56579753052E+02  0.00000000000E+00 0. -1.
        -12    1    4    4    0    0  0.10356279990E+02 -0.35878501269E+02  0.12626835140E+02  0.39420253097E+02  0.00000000000E+00 0.  1.
</event>
<event>
12    1  0.8451514E-002  0.2014035E+03  0.7818608E-02  0.1148570E+00
         21   -1    0    0  501  502  0.00000000000E+00  0.00000000000E+00  0.15381707564E+03  0.15381707564E+03  0.00000000000E+00 0.  1.
         21   -1    0    0  502  503 -0.00000000000E+00 -0.00000000000E+00 -0.26378174545E+03  0.26378174545E+03  0.00000000000E+00 0.  1.
         -6    2    1    2    0  503  0.10342963844E+03 -0.19215306582E+02 -0.50348259233E+02  0.20760136254E+03  0.17174533591E+03 0.  0.
        -24    2    3    3    0    0  0.94979827128E+02 -0.46489710369E+01 -0.97275686304E+02  0.15752291554E+03  0.79423732486E+02 0.  0.
          6    2    1    2  501    0 -0.10342963844E+03  0.19215306582E+02 -0.59616410572E+02  0.20999745855E+03  0.17169128711E+03 0.  0.
         24    2    5    5    0    0 -0.13626026103E+03 -0.32157932518E+01 -0.28630837809E+02  0.15936940566E+03  0.77470526804E+02 0.  0.
          5    1    5    5  501    0  0.32830622593E+02  0.22431099834E+02 -0.30985572763E+02  0.50628052886E+02  0.47000000000E+01 0. -1.
        -11    1    6    6    0    0 -0.40280292638E+02 -0.70879807606E+01  0.26385641844E+02  0.48671794109E+02  0.00000000000E+00 0.  1.
         12    1    6    6    0    0 -0.95979968396E+02  0.38721875087E+01 -0.55016479654E+02  0.11069761155E+03  0.00000000000E+00 0. -1.
         -5    1    3    3    0  503  0.84498113122E+01 -0.14566335545E+02  0.46927427071E+02  0.50078447000E+02  0.47000000000E+01 0.  1.
         13    1    4    4    0    0 -0.12783125564E+02  0.84446727883E+01 -0.11051618484E+02  0.18890713825E+02  0.00000000000E+00 0. -1.
        -14    1    4    4    0    0  0.10776295269E+03 -0.13093643825E+02 -0.86224067820E+02  0.13863220172E+03  0.00000000000E+00 0.  1.
</event>
<event>
12    1  0.8451514E-002  0.2391672E+03  0.7818608E-02  0.1121200E+00
         21   -1    0    0  501  502  0.00000000000E+00  0.00000000000E+00  0.24900070570E+03  0.24900070570E+03  0.00000000000E+00 0. -1.
         21   -1    0    0  502  503 -0.00000000000E+00 -0.00000000000E+00 -0.22642363556E+03  0.22642363556E+03  0.00000000000E+00 0.  1.
         -6    2    1    2    0  503  0.86041329637E+02 -0.14063417931E+03  0.30819835390E+02  0.24114479613E+03  0.17326242423E+03 0.  0.
        -24    2    3    3    0    0  0.10586989855E+03 -0.12378885882E+03 -0.25181840049E+02  0.17921568650E+03  0.70370592091E+02 0.  0.
          6    2    1    2  501    0 -0.86041329637E+02  0.14063417931E+03 -0.82427652449E+01  0.23427954513E+03  0.16624644144E+03 0.  0.
         24    2    5    5    0    0 -0.12567484612E+01  0.25577890150E+02  0.10472872821E+02  0.90061862481E+02  0.85706768269E+02 0.  0.
          5    1    5    5  501    0 -0.84784581176E+02  0.11505628916E+03 -0.18715638066E+02  0.14421768265E+03  0.47000000000E+01 0. -1.
        -11    1    6    6    0    0 -0.20920302559E+02 -0.26490452758E+02  0.26784859949E+01  0.33861149327E+02  0.00000000000E+00 0.  1.
         12    1    6    6    0    0  0.19663554098E+02  0.52068342909E+02  0.77943868259E+01  0.56200713154E+02  0.00000000000E+00 0. -1.
         -5    1    3    3    0  503 -0.19828568912E+02 -0.16845320493E+02  0.56001675439E+02  0.61929109630E+02  0.47000000000E+01 0.  1.
         13    1    4    4    0    0  0.51590452314E+02 -0.30227611427E+02  0.18457972312E+02  0.62577791623E+02  0.00000000000E+00 0. -1.
        -14    1    4    4    0    0  0.54279446235E+02 -0.93561247395E+02 -0.43639812362E+02  0.11663789487E+03  0.00000000000E+00 0.  1.
</event>
<event>
12    1  0.8451514E-002  0.1777010E+03  0.7818608E-02  0.1171355E+00
         21   -1    0    0  503  502  0.00000000000E+00  0.00000000000E+00  0.11102395961E+03  0.11102395961E+03  0.00000000000E+00 0.  1.
         21   -1    0    0  501  503 -0.00000000000E+00 -0.00000000000E+00 -0.45700799270E+03  0.45700799270E+03  0.00000000000E+00 0.  1.
          6    2    1    2  501    0 -0.16978796287E+02 -0.61049684528E+01 -0.35010740206E+03  0.39028315358E+03  0.17152316703E+03 0.  0.
         24    2    3    3    0    0  0.41782991160E+02  0.19157358354E+02 -0.12724148190E+03  0.15837273728E+03  0.82332900276E+02 0.  0.
         -6    2    1    2    0  502  0.16978796287E+02  0.61049684528E+01  0.41233689702E+01  0.17774879873E+03  0.17678258714E+03 0.  0.
        -24    2    5    5    0    0 -0.30986511411E+02  0.52468475842E+02 -0.26797754271E+02  0.10407077336E+03  0.79996883615E+02 0.  0.
          5    1    3    3  501    0 -0.58761787446E+02 -0.25262326807E+02 -0.22286592016E+03  0.23191041630E+03  0.47000000000E+01 0. -1.
        -13    1    4    4    0    0  0.34067416937E+02  0.31429602634E+02 -0.13442686478E+03  0.14219349772E+03  0.00000000000E+00 0.  1.
         14    1    4    4    0    0  0.77155742224E+01 -0.12272244280E+02  0.71853828899E+01  0.16179239553E+02  0.00000000000E+00 0. -1.
         -5    1    5    5    0  502  0.47965307697E+02 -0.46363507390E+02  0.30921123241E+02  0.73678025370E+02  0.47000000000E+01 0.  1.
         11    1    6    6    0    0 -0.32854011183E+02  0.19161210076E+02  0.22765776912E+02  0.44326274609E+02  0.00000000000E+00 0. -1.
        -12    1    6    6    0    0  0.18674997719E+01  0.33307265766E+02 -0.49563531182E+02  0.59744498755E+02  0.00000000000E+00 0.  1.
</event>
<event>
12    1  0.8451514E-002  0.1859485E+03  0.7818608E-02  0.1162268E+00
         21   -1    0    0  503  502  0.00000000000E+00  0.00000000000E+00  0.15873543384E+03  0.15873543384E+03  0.00000000000E+00 0. -1.
         21   -1    0    0  501  503 -0.00000000000E+00 -0.00000000000E+00 -0.24732961757E+03  0.24732961757E+03  0.00000000000E+00 0. -1.
          6    2    1    2  501    0  0.29571167278E+02 -0.64313770620E+02  0.26476110631E+02  0.18739175659E+03  0.17147586121E+03 0.  0.
         24    2    3    3    0    0 -0.26834505072E+02 -0.98679622268E+01  0.27055794673E+02  0.10885277291E+03  0.10148617050E+03 0.  0.
         -6    2    1    2    0  502 -0.29571167278E+02  0.64313770620E+02 -0.11507029437E+03  0.21867329482E+03  0.17194802178E+03 0.  0.
        -24    2    5    5    0    0 -0.60073807927E+02  0.63074350222E+02 -0.13689375907E+03  0.18085397619E+03  0.79881308073E+02 0.  0.
          5    1    3    3  501    0  0.56405672349E+02 -0.54445808393E+02 -0.57968404244E+00  0.78538983685E+02  0.47000000000E+01 0. -1.
        -13    1    4    4    0    0  0.35651502245E+02 -0.39913307252E+01  0.28895316004E+02  0.46064081672E+02  0.00000000000E+00 0.  1.
         14    1    4    4    0    0 -0.62486007316E+02 -0.58766315016E+01 -0.18395213313E+01  0.62788691234E+02  0.00000000000E+00 0. -1.
         -5    1    5    5    0  502  0.30502640649E+02  0.12394203977E+01  0.21823464700E+02  0.37819318621E+02  0.47000000000E+01 0.  1.
         13    1    6    6    0    0 -0.59328915439E+02  0.62215998881E+02 -0.62102531516E+02  0.10605411423E+03  0.00000000000E+00 0. -1.
        -14    1    6    6    0    0 -0.74489248800E+00  0.85835134084E+00 -0.74791227550E+02  0.74799861967E+02  0.00000000000E+00 0.  1.
</event>
<event>
12    1  0.8451514E-002  0.1937444E+03  0.7818608E-02  0.1156667E+00
         21   -1    0    0  501  502  0.00000000000E+00  0.00000000000E+00  0.15264691476E+03  0.15264691476E+03  0.00000000000E+00 0. -1.
         21   -1    0    0  502  503 -0.00000000000E+00 -0.00000000000E+00 -0.35390339309E+03  0.35390339309E+03  0.00000000000E+00 0. -1.
         -6    2    1    2    0  503  0.88468869963E+02  0.56833706076E+00 -0.24723398791E+03  0.31410432564E+03  0.17236536383E+03 0.  0.
        -24    2    3    3    0    0  0.11002882600E+03 -0.94830728694E+01 -0.25516840633E+03  0.28859143593E+03  0.77316428303E+02 0.  0.
          6    2    1    2  501    0 -0.88468869963E+02 -0.56833706076E+00  0.45977509588E+02  0.19244598221E+03  0.16460395111E+03 0.  0.
         24    2    5    5    0    0  0.52804096066E+01  0.61775100376E+00  0.58071918531E+02  0.97795578343E+02  0.78507089359E+02 0.  0.
          5    1    5    5  501    0 -0.93749279570E+02 -0.11860880645E+01 -0.12094408943E+02  0.94650403869E+02  0.47000000000E+01 0. -1.
        -13    1    6    6    0    0  0.41857695327E+01  0.38101322594E+02  0.16276084793E+02  0.41643035267E+02  0.00000000000E+00 0.  1.
         14    1    6    6    0    0  0.10946400739E+01 -0.37483571591E+02  0.41795833738E+02  0.56152543076E+02  0.00000000000E+00 0. -1.
         -5    1    3    3    0  503 -0.21559956033E+02  0.10051409930E+02  0.79344184138E+01  0.25512889709E+02  0.47000000000E+01 0.  1.
         13    1    4    4    0    0  0.22113993025E+02  0.26386046069E+02 -0.36378303288E+02  0.50086256246E+02  0.00000000000E+00 0. -1.
        -14    1    4    4    0    0  0.87914832972E+02 -0.35869118938E+02 -0.21879010304E+03  0.23850517969E+03  0.00000000000E+00 0.  1.
</event>
<event>
12    1  0.8451514E-002  0.1901203E+03  0.7818608E-02  0.1158716E+00
         21   -1    0    0  503  502  0.00000000000E+00  0.00000000000E+00  0.18423915520E+04  0.18423915520E+04  0.00000000000E+00 0.  1.
         21   -1    0    0  501  503 -0.00000000000E+00 -0.00000000000E+00 -0.17601441518E+03  0.17601441518E+03  0.00000000000E+00 0.  1.
          6    2    1    2  501    0 -0.35340067742E+02 -0.68779645696E+02 -0.11900107403E+03  0.22293357941E+03  0.17192604561E+03 0.  0.
         24    2    3    3    0    0  0.15834498136E+02 -0.85911868905E+02 -0.36201134872E+02  0.12398779026E+03  0.80192701777E+02 0.  0.
         -6    2    1    2    0  502  0.35340067742E+02  0.68779645696E+02  0.17853782109E+04  0.17954723878E+04  0.17368413679E+03 0.  0.
        -24    2    5    5    0    0  0.44171266156E+01 -0.21819083118E+02  0.48582797907E+03  0.49239247737E+03  0.76980147584E+02 0.  0.
          5    1    3    3  501    0 -0.51174565878E+02  0.17132223208E+02 -0.82799939162E+02  0.98945789148E+02  0.47000000000E+01 0. -1.
        -13    1    4    4    0    0  0.22165527812E+02 -0.93913596904E+01 -0.40468604052E+02  0.47087324982E+02  0.00000000000E+00 0.  1.
         14    1    4    4    0    0 -0.63310296764E+01 -0.76520509214E+02  0.42674691804E+01  0.76900465281E+02  0.00000000000E+00 0. -1.
         -5    1    5    5    0  502  0.30922941127E+02  0.90598728814E+02  0.12995502318E+04  0.13030799104E+04  0.47000000000E+01 0.  1.
         11    1    6    6    0    0  0.37849900722E+02  0.37466169697E+01  0.22636290445E+03  0.22953609005E+03  0.00000000000E+00 0. -1.
        -12    1    6    6    0    0 -0.33432774107E+02 -0.25565700088E+02  0.25946507462E+03  0.26285638732E+03  0.00000000000E+00 0.  1.
</event>
<event>
12    1  0.8451514E-002  0.2480258E+03  0.7818608E-02  0.1114713E+00
         21   -1    0    0  501  502  0.00000000000E+00  0.00000000000E+00  0.62529023397E+02  0.62529023397E+02  0.00000000000E+00 0. -1.
         21   -1    0    0  502  503 -0.00000000000E+00 -0.00000000000E+00 -0.99171607935E+03  0.99171607935E+03  0.00000000000E+00 0. -1.
         -6    2    1    2    0  503 -0.36567767429E+02  0.17462465384E+03 -0.40818252477E+03  0.47762929972E+03  0.17229568503E+03 0.  0.
        -24    2    3    3    0    0 -0.21782853601E+02  0.18190029558E+03 -0.25679026519E+03  0.32527039811E+03  0.79356041643E+02 0.  0.
          6    2    1    2  501    0  0.36567767429E+02 -0.17462465384E+03 -0.52100453118E+03  0.57661580302E+03  0.17090667465E+03 0.  0.
         24    2    5    5    0    0  0.54094888531E+02 -0.50868977008E+02 -0.15216069622E+03  0.18714111564E+03  0.79718315979E+02 0.  0.
          5    1    5    5  501    0 -0.17527121102E+02 -0.12375567683E+03 -0.36884383496E+03  0.38947468738E+03  0.47000000000E+01 0. -1.
        -11    1    6    6    0    0  0.32424555947E+02 -0.65672494361E+02 -0.14045679930E+03  0.15840562116E+03  0.00000000000E+00 0.  1.
         12    1    6    6    0    0  0.21670332584E+02  0.14803517353E+02 -0.11703896922E+02  0.28735494488E+02  0.00000000000E+00 0. -1.
         -5    1    3    3    0  503 -0.14784913828E+02 -0.72756417421E+01 -0.15139225957E+03  0.15235890161E+03  0.47000000000E+01 0.  1.
         11    1    4    4    0    0 -0.50299112477E+02  0.12565736841E+03 -0.19146120891E+03  0.23447210809E+03  0.00000000000E+00 0. -1.
        -12    1    4    4    0    0  0.28516258875E+02  0.56242927171E+02 -0.65329056283E+02  0.90798290027E+02  0.00000000000E+00 0.  1.
</event>
<event>
12    1  0.8451514E-002  0.1900653E+03  0.7818608E-02  0.1160125E+00
         21   -1    0    0  503  502  0.00000000000E+00  0.00000000000E+00  0.39206995203E+03  0.39206995203E+03  0.00000000000E+00 0. -1.
         21   -1    0    0  501  503 -0.00000000000E+00 -0.00000000000E+00 -0.89438506967E+02  0.89438506967E+02  0.00000000000E+00 0. -1.
          6    2    1    2  501    0 -0.33806075385E+01 -0.55789691245E+02  0.13030098499E+03  0.23044127341E+03  0.18166154146E+03 0.  0.
         24    2    3    3    0    0  0.24550814034E+02 -0.28478803911E+02 -0.71685341788E+01  0.87451736806E+02  0.78629724953E+02 0.  0.
         -6    2    1    2    0  502  0.33806075385E+01  0.55789691245E+02  0.17233046008E+03  0.25106718559E+03  0.17381894619E+03 0.  0.
        -24    2    5    5    0    0 -0.32490117001E+00  0.95858243062E+02  0.16606346802E+03  0.21007224896E+03  0.85815884592E+02 0.  0.
          5    1    3    3  501    0 -0.27931421573E+02 -0.27310887333E+02  0.13746951917E+03  0.14298953660E+03  0.47000000000E+01 0. -1.
        -11    1    4    4    0    0  0.23944649862E+02 -0.91465605490E+01 -0.41074962782E+02  0.48416509523E+02  0.00000000000E+00 0.  1.
         12    1    4    4    0    0  0.60616417238E+00 -0.19332243362E+02  0.33906428603E+02  0.39035227283E+02  0.00000000000E+00 0. -1.
         -5    1    5    5    0  502  0.37055087085E+01 -0.40068551818E+02  0.62669920516E+01  0.40994936626E+02  0.47000000000E+01 0.  1.
         11    1    6    6    0    0  0.54757520768E+01  0.25526359003E+02 -0.35651697573E+01  0.26349370015E+02  0.00000000000E+00 0. -1.
        -12    1    6    6    0    0 -0.58006532468E+01  0.70331884059E+02  0.16962863778E+03  0.18372287895E+03  0.00000000000E+00 0.  1.
</event>
<event>
12    1  0.8451514E-002  0.2333478E+03  0.7818608E-02  0.1124655E+00
         21   -1    0    0  503  502  0.00000000000E+00  0.00000000000E+00  0.21118318705E+03  0.21118318705E+03  0.00000000000E+00 0.  1.
         21   -1    0    0  501  503 -0.00000000000E+00 -0.00000000000E+00 -0.31732111404E+03  0.31732111404E+03  0.00000000000E+00 0.  1.
          6    2    1    2  501    0  0.46198754422E+02 -0.15005821907E+03 -0.16941206149E+03  0.28672996296E+03  0.16988770132E+03 0.  0.
         24    2    3    3    0    0  0.87987418143E+02 -0.85072040877E+02 -0.11252940692E+03  0.19067153198E+03  0.93347350226E+02 0.  0.
         -6    2    1    2    0  502 -0.46198754422E+02  0.15005821907E+03  0.63274134490E+02  0.24177433813E+03  0.17262508642E+03 0.  0.
        -24    2    5    5    0    0 -0.46896951809E+02  0.12983779833E+03 -0.15180779731E+02  0.16061636588E+03  0.80684465367E+02 0.  0.
          5    1    3    3  501    0 -0.41788663721E+02 -0.64986178193E+02 -0.56882654570E+02  0.96058430982E+02  0.47000000000E+01 0. -1.
        -13    1    4    4    0    0  0.19155969046E+02 -0.78462352214E+02 -0.38844648154E+02  0.89622533747E+02  0.00000000000E+00 0.  1.
         14    1    4    4    0    0  0.68831449097E+02 -0.66096886639E+01 -0.73684758764E+02  0.10104899823E+03  0.00000000000E+00 0. -1.
         -5    1    5    5    0  502  0.69819738689E+00  0.20220420744E+02  0.78454914221E+02  0.81157972252E+02  0.47000000000E+01 0.  1.
         13    1    6    6    0    0 -0.17832271181E+02  0.32407776037E+02 -0.41499943228E+02  0.55592257834E+02  0.00000000000E+00 0. -1.
        -14    1    6    6    0    0 -0.29064680628E+02  0.97430022290E+02  0.26319163497E+02  0.10502410805E+03  0.00000000000E+00 0.  1.
</event>
<event>
12    1  0.8451514E-002  0.1829459E+03  0.7818608E-02  0.1165207E+00
         21   -1    0    0  501  502  0.00000000000E+00  0.00000000000E+00  0.23496946458E+02  0.23496946458E+02  0.00000000000E+00 0. -1.
         21   -1    0    0  502  503 -0.00000000000E+00 -0.00000000000E+00 -0.14173331351E+04  0.14173331351E+04  0.00000000000E+00 0. -1.
         -6    2    1    2    0  503 -0.62096142656E+02  0.67694010395E+01 -0.70538389790E+03  0.72848483208E+03  0.17094429336E+03 0.  0.
        -24    2    3    3    0    0 -0.77570358407E+02  0.42389394497E+01 -0.70332782569E+03  0.71198719522E+03  0.78870822606E+02 0.  0.
          6    2    1    2  501    0  0.62096142656E+02 -0.67694010395E+01 -0.68845229070E+03  0.71234524943E+03  0.17195185983E+03 0.  0.
         24    2    5    5    0    0  0.28094923846E+02  0.61860393344E+02 -0.44956474789E+03  0.46143594377E+03  0.78731408278E+02 0.  0.
          5    1    5    5  501    0  0.34001218811E+02 -0.68629794384E+02 -0.23888754281E+03  0.25090930566E+03  0.47000000000E+01 0. -1.
        -13    1    6    6    0    0 -0.22833119656E+02  0.30152784990E+02 -0.25625357855E+03  0.25902980198E+03  0.00000000000E+00 0.  1.
         14    1    6    6    0    0  0.50928043501E+02  0.31707608354E+02 -0.19331116934E+03  0.20240614179E+03  0.00000000000E+00 0. -1.
         -5    1    3    3    0  503  0.15474215750E+02  0.25304615898E+01 -0.20560722067E+01  0.16497636857E+02  0.47000000000E+01 0.  1.
         13    1    4    4    0    0  0.61306344673E+01  0.12966084486E+02 -0.28230333996E+02  0.31664740381E+02  0.00000000000E+00 0. -1.
        -14    1    4    4    0    0 -0.83700992874E+02 -0.87271450365E+01 -0.67509749169E+03  0.68032245484E+03  0.00000000000E+00 0.  1.
</event>
<event>
12    1  0.8451514E-002  0.1743721E+03  0.7818608E-02  0.1173398E+00
         21   -1    0    0  501  502  0.00000000000E+00  0.00000000000E+00  0.12006708064E+04  0.12006708064E+04  0.00000000000E+00 0. -1.
         21   -1    0    0  502  503 -0.00000000000E+00 -0.00000000000E+00 -0.26327254579E+02  0.26327254579E+02  0.00000000000E+00 0. -1.
         -6    2    1    2    0  503 -0.26551111458E+02  0.34676138047E+01  0.46598650130E+03  0.49749456056E+03  0.17216396987E+03 0.  0.
        -24    2    3    3    0    0  0.25684288632E+02  0.32080362429E+01  0.41680232196E+03  0.42559339297E+03  0.82070618185E+02 0.  0.
          6    2    1    2  501    0  0.26551111458E+02 -0.34676138047E+01  0.70835705049E+03  0.72950350039E+03  0.17230397628E+03 0.  0.
         24    2    5    5    0    0  0.62629261394E+02  0.16213586902E+02  0.65484088160E+03  0.66186436308E+03  0.71151599515E+02 0.  0.
          5    1    5    5  501    0 -0.36078149936E+02 -0.19681200706E+02  0.53516168887E+02  0.67639137313E+02  0.47000000000E+01 0. -1.
        -11    1    6    6    0    0 -0.10134471567E+02  0.39369843792E+01  0.25749959967E+03  0.25772902668E+03  0.00000000000E+00 0.  1.
         12    1    6    6    0    0  0.72763732961E+02  0.12276602523E+02  0.39734128193E+03  0.40413533641E+03  0.00000000000E+00 0. -1.
         -5    1    3    3    0  503 -0.52235400089E+02  0.25957756179E+00  0.49184179345E+02  0.71901167591E+02  0.47000000000E+01 0.  1.
         11    1    4    4    0    0 -0.27744371383E+02  0.14522484362E+02  0.14095299996E+03  0.14438975342E+03  0.00000000000E+00 0. -1.
        -12    1    4    4    0    0  0.53428660015E+02 -0.11314448119E+02  0.27584932200E+03  0.28120363955E+03  0.00000000000E+00 0.  1.
</event>
<event>
12    1  0.8451514E-002  0.1950026E+03  0.7818608E-02  0.1154368E+00
         21   -1    0    0  503  502  0.00000000000E+00  0.00000000000E+00  0.25504702706E+03  0.25504702706E+03  0.00000000000E+00 0. -1.
         21   -1    0    0  501  503 -0.00000000000E+00 -0.00000000000E+00 -0.31680780158E+03  0.31680780158E+03  0.00000000000E+00 0. -1.
          6    2    1    2  501    0  0.60585511871E+02 -0.62888211329E+02 -0.23959979498E+03  0.30793681304E+03  0.17260210803E+03 0.  0.
         24    2    3    3    0    0  0.45740505165E+02  0.32192207129E+02 -0.13981305693E+03  0.16922796945E+03  0.77213229070E+02 0.  0.
         -6    2    1    2    0  502 -0.60585511871E+02  0.62888211329E+02  0.17783902045E+03  0.26391801560E+03  0.17435730668E+03 0.  0.
        -24    2    5    5    0    0 -0.10479625265E+03  0.55426702098E+02  0.94911005624E+02  0.16952834793E+03  0.75348443166E+02 0.  0.
          5    1    3    3  501    0  0.14845006706E+02 -0.95080418458E+02 -0.99786738052E+02  0.13870884359E+03  0.47000000000E+01 0. -1.
        -13    1    4    4    0    0  0.28213534001E+02  0.21433317403E+02 -0.86629026322E+01  0.36475148769E+02  0.00000000000E+00 0.  1.
         14    1    4    4    0    0  0.17526971163E+02  0.10758889726E+02 -0.13115015430E+03  0.13275282068E+03  0.00000000000E+00 0. -1.
         -5    1    5    5    0  502  0.44210740780E+02  0.74615092316E+01  0.82928014829E+02  0.94389667675E+02  0.47000000000E+01 0.  1.
         13    1    6    6    0    0 -0.80470049301E+01  0.42018929798E+02  0.27835848702E+02  0.51040956325E+02  0.00000000000E+00 0. -1.
        -14    1    6    6    0    0 -0.96749247721E+02  0.13407772300E+02  0.67075156923E+02  0.11848739160E+03  0.00000000000E+00 0.  1.
</event>
<event>
12    1  0.8451514E-002  0.1977287E+03  0.7818608E-02  0.1151683E+00
         21   -1    0    0  501  502  0.00000000000E+00  0.00000000000E+00  0.44666304889E+02  0.44666304889E+02  0.00000000000E+00 0.  1.
         21   -1    0    0  502  503 -0.00000000000E+00 -0.00000000000E+00 -0.16881269713E+04  0.16881269713E+04  0.00000000000E+00 0. -1.
         -6    2    1    2    0  503  0.30963136020E+02  0.93614709824E+02 -0.14229566116E+04  0.14366198658E+04  0.17131459521E+03 0.  0.
        -24    2    3    3    0    0  0.79586486343E+02  0.33767852923E+02 -0.96598351988E+03  0.97316288499E+03  0.80296720591E+02 0.  0.
          6    2    1    2  501    0 -0.30963136020E+02 -0.93614709824E+02 -0.22050405476E+03  0.29617341037E+03  0.17138909288E+03 0.  0.
         24    2    5    5    0    0 -0.70508488198E+02 -0.37989952088E+02 -0.76860358621E+02  0.13707108483E+03  0.80413209122E+02 0.  0.
          5    1    5    5  501    0  0.39545352179E+02 -0.55624757736E+02 -0.14364369614E+03  0.15910232554E+03  0.47000000000E+01 0. -1.
        -13    1    6    6    0    0 -0.19497770286E+02 -0.41502180312E+02 -0.72460918822E+02  0.85750677976E+02  0.00000000000E+00 0.  1.
         14    1    6    6    0    0 -0.51010717912E+02  0.35122282242E+01 -0.43994397988E+01  0.51320406853E+02  0.00000000000E+00 0. -1.
         -5    1    3    3    0  503 -0.48623350324E+02  0.59846856901E+02 -0.45697309174E+03  0.46345698080E+03  0.47000000000E+01 0.  1.
         13    1    4    4    0    0  0.86648016460E+02  0.28943912967E+02 -0.58556841886E+03  0.59265167006E+03  0.00000000000E+00 0. -1.
        -14    1    4    4    0    0 -0.70615301167E+01  0.48239399559E+01 -0.38041510102E+03  0.38051121493E+03  0.00000000000E+00 0.  1.
</event>
<event>
12    1  0.8451514E-002  0.3574064E+03  0.7818608E-02  0.1059709E+00
         21   -1    0    0  501  502  0.00000000000E+00  0.00000000000E+00  0.81694352896E+03  0.81694352896E+03  0.00000000000E+00 0. -1.
         21   -1    0    0  502  503 -0.00000000000E+00 -0.00000000000E+00 -0.25980069909E+03  0.25980069909E+03  0.00000000000E+00 0.  1.
         -6    2    1    2    0  503 -0.11130972553E+02 -0.31270832125E+03 -0.62020622773E+02  0.36182976426E+03  0.17077420159E+03 0.  0.
        -24    2    3    3    0    0  0.36878703987E+02 -0.13107581501E+03  0.14889127060E+02  0.15877190063E+03  0.80286500958E+02 0.  0.
          6    2    1    2  501    0  0.11130972553E+02  0.31270832125E+03  0.61916345264E+03  0.71491446378E+03  0.17271049971E+03 0.  0.
         24    2    5    5    0    0 -0.29555988938E+02  0.12633587711E+03  0.37659891718E+03  0.40628886433E+03  0.80059893422E+02 0.  0.
          5    1    5    5  501    0  0.40686961490E+02  0.18637244414E+03  0.24256453546E+03  0.30862559945E+03  0.47000000000E+01 0. -1.
        -11    1    6    6    0    0  0.12449523029E+02  0.51959671491E+02  0.70284805028E+02  0.88287892165E+02  0.00000000000E+00 0.  1.
         12    1    6    6    0    0 -0.42005511967E+02  0.74376205616E+02  0.30631411215E+03  0.31800097217E+03  0.00000000000E+00 0. -1.
         -5    1    3    3    0  503 -0.48009676540E+02 -0.18163250624E+03 -0.76909749833E+02  0.20305786364E+03  0.47000000000E+01 0.  1.
         13    1    4    4    0    0 -0.12721138360E+02  0.93328513946E+00 -0.91768411191E+01  0.15713459048E+02  0.00000000000E+00 0. -1.
        -14    1    4    4    0    0  0.49599842347E+02 -0.13200910015E+03  0.24065968179E+02  0.14305844158E+03  0.00000000000E+00 0.  1.
</event>
<event>
12    1  0.8451514E-002  0.1816788E+03  0.7818608E-02  0.1167668E+00
         21   -1    0    0  503  502  0.00000000000E+00  0.00000000000E+00  0.44242412038E+02  0.44242412038E+02  0.00000000000E+00 0.  1.
         21   -1    0    0  501  503 -0.00000000000E+00 -0.00000000000E+00 -0.82030143806E+03  0.82030143806E+03  0.00000000000E+00 0.  1.
          6    2    1    2  501    0 -0.22321267924E+02 -0.29892291757E+02 -0.53237688039E+03  0.56058964466E+03  0.17159201270E+03 0.  0.
         24    2    3    3    0    0 -0.69430752612E+02 -0.47649379821E+02 -0.44229905572E+03  0.45729045676E+03  0.79968833600E+02 0.  0.
         -6    2    1    2    0  502  0.22321267924E+02  0.29892291757E+02 -0.24368214563E+03  0.30395420543E+03  0.17780715057E+03 0.  0.
        -24    2    5    5    0    0 -0.49937689688E+02  0.24993918587E+02 -0.19320625415E+03  0.21555026528E+03  0.77555086227E+02 0.  0.
          5    1    3    3  501    0  0.47109484688E+02  0.17757088064E+02 -0.90077824671E+02  0.10329918790E+03  0.47000000000E+01 0. -1.
        -13    1    4    4    0    0 -0.16390006646E+02 -0.27487539550E+02 -0.32923046093E+03  0.33078224492E+03  0.00000000000E+00 0.  1.
         14    1    4    4    0    0 -0.53040745966E+02 -0.20161840271E+02 -0.11306859479E+03  0.12650821184E+03  0.00000000000E+00 0. -1.
         -5    1    5    5    0  502  0.72258957612E+02  0.48983731699E+01 -0.50475891478E+02  0.88403940157E+02  0.47000000000E+01 0.  1.
         13    1    6    6    0    0  0.43628027588E+01  0.38675094691E+02 -0.91807180771E+02  0.99716374976E+02  0.00000000000E+00 0. -1.
        -14    1    6    6    0    0 -0.54300492447E+02 -0.13681176105E+02 -0.10139907338E+03  0.11583389030E+03  0.00000000000E+00 0.  1.
</event>
<event>
12    1  0.8451514E-002  0.2367898E+03  0.7818608E-02  0.1122774E+00
         21   -1    0    0  503  502  0.00000000000E+00  0.00000000000E+00  0.33863693465E+02  0.33863693465E+02  0.00000000000E+00 0. -1.
         21   -1    0    0  501  503 -0.00000000000E+00 -0.00000000000E+00 -0.16234401459E+04  0.16234401459E+04  0.00000000000E+00 0. -1.
          6    2    1    2  501    0  0.51822995054E+02 -0.15111820187E+03 -0.78084597535E+03  0.81595947681E+03  0.17477727777E+03 0.  0.
         24    2    3    3    0    0 -0.13544931867E+02 -0.14163948358E+02 -0.22280112079E+03  0.23762948180E+03  0.80270471438E+02 0.  0.
         -6    2    1    2    0  502 -0.51822995054E+02  0.15111820187E+03 -0.80873047713E+03  0.84134436260E+03  0.16820528554E+03 0.  0.
        -24    2    5    5    0    0  0.31564710025E+02  0.81356465310E+02 -0.33479379060E+03  0.35507459993E+03  0.79849132271E+02 0.  0.
          5    1    3    3  501    0  0.65367926921E+02 -0.13695425351E+03 -0.55804485456E+03  0.57832999501E+03  0.47000000000E+01 0. -1.
        -11    1    4    4    0    0  0.75034818494E+01 -0.94777394271E+01 -0.21399620303E+03  0.21433736187E+03  0.00000000000E+00 0.  1.
         12    1    4    4    0    0 -0.21048413716E+02 -0.46862089306E+01 -0.88049177633E+01  0.23292119932E+02  0.00000000000E+00 0. -1.
         -5    1    5    5    0  502 -0.83387705080E+02  0.69761736557E+02 -0.47393668653E+03  0.48626976267E+03  0.47000000000E+01 0.  1.
         11    1    6    6    0    0 -0.16280206047E+02 -0.70460967043E+01 -0.52875788038E+02  0.55772229186E+02  0.00000000000E+00 0. -1.
        -12    1    6    6    0    0  0.47844916072E+02  0.88402562014E+02 -0.28191800256E+03  0.29930237074E+03  0.00000000000E+00 0.  1.
</event>
<event>
12    1  0.8451514E-002  0.2021597E+03  0.7818608E-02  0.1147980E+00
         21   -1    0    0  503  502  0.00000000000E+00  0.00000000000E+00  0.10328422927E+04  0.10328422927E+04  0.00000000000E+00 0. -1.
         21   -1    0    0  501  503 -0.00000000000E+00 -0.00000000000E+00 -0.50524583078E+02  0.50524583078E+02  0.00000000000E+00 0. -1.
          6    2    1    2  501    0  0.37366484861E+02  0.98680269761E+02  0.23860766302E+03  0.31273335580E+03  0.17243690193E+03 0.  0.
         24    2    3    3    0    0  0.53969376571E+02  0.76216624430E+02  0.25179140617E+03  0.28148959709E+03  0.84355282003E+02 0.  0.
         -6    2    1    2    0  502 -0.37366484861E+02 -0.98680269761E+02  0.74371004665E+03  0.77063352003E+03  0.17215498503E+03 0.  0.
        -24    2    5    5    0    0  0.42703120473E+02 -0.69308364449E+02  0.36071603241E+03  0.37823021287E+03  0.79465917303E+02 0.  0.
          5    1    3    3  501    0 -0.16602891710E+02  0.22463645331E+02 -0.13183743153E+02  0.31243758708E+02  0.47000000000E+01 0. -1.
        -13    1    4    4    0    0  0.54212679120E+02  0.68806779016E+01  0.87455198027E+02  0.10312502106E+03  0.00000000000E+00 0.  1.
         14    1    4    4    0    0 -0.24330254862E+00  0.69335946528E+02  0.16433620815E+03  0.17836457604E+03  0.00000000000E+00 0. -1.
         -5    1    5    5    0  502 -0.80069605334E+02 -0.29371905312E+02  0.38299401425E+03  0.39240330716E+03  0.47000000000E+01 0.  1.
         11    1    6    6    0    0 -0.58029019404E+01 -0.62962566414E+02  0.23421677200E+03  0.24260143183E+03  0.00000000000E+00 0. -1.
        -12    1    6    6    0    0  0.48506022413E+02 -0.63457980348E+01  0.12649926041E+03  0.13562878104E+03  0.00000000000E+00 0.  1.
</event>
<event>
12    1  0.8451514E-002  0.2091312E+03  0.7818608E-02  0.1142641E+00
         21   -1    0    0  501  502  0.00000000000E+00  0.00000000000E+00  0.68029488293E+03  0.68029488293E+03  0.00000000000E+00 0.  1.
         21   -1    0    0  502  503 -0.00000000000E+00 -0.00000000000E+00 -0.64694618340E+02  0.64694618340E+02  0.00000000000E+00 0.  1.
         -6    2    1    2    0  503 -0.10107801866E+03  0.56606317927E+02  0.26020260934E+03  0.33262634649E+03  0.17179594693E+03 0.  0.
        -24    2    3    3    0    0 -0.18449419773E+02  0.51445567340E+02  0.55380488242E+02  0.11165505877E+03  0.80080123521E+02 0.  0.
          6    2    1    2  501    0  0.10107801866E+03 -0.56606317927E+02  0.35539765524E+03  0.41236315478E+03  0.17411156476E+03 0.  0.
         24    2    5    5    0    0  0.11988215932E+03 -0.84348556629E+02  0.33080847337E+03  0.37053080630E+03  0.79827446614E+02 0.  0.
          5    1    5    5  501    0 -0.18804140666E+02  0.27742238702E+02  0.24589181877E+02  0.41832348485E+02  0.47000000000E+01 0. -1.
        -11    1    6    6    0    0  0.55322640011E+02  0.56940780652E+01  0.12440084600E+03  0.13626660453E+03  0.00000000000E+00 0.  1.
         12    1    6    6    0    0  0.64559519314E+02 -0.90042634695E+02  0.20640762736E+03  0.23426420177E+03  0.00000000000E+00 0. -1.
         -5    1    3    3    0  503 -0.82628598885E+02  0.51607505872E+01  0.20482212110E+03  0.22097128771E+03  0.47000000000E+01 0.  1.
         11    1    4    4    0    0  0.50001554510E+01 -0.20496922609E+02  0.92693426672E+01  0.23044437603E+02  0.00000000000E+00 0. -1.
        -12    1    4    4    0    0 -0.23449575224E+02  0.71942489949E+02  0.46111145574E+02  0.88610621172E+02  0.00000000000E+00 0.  1.
</event>
<event>
12    1  0.8451514E-002  0.1886135E+03  0.7818608E-02  0.1160538E+00
         21   -1    0    0  503  502  0.00000000000E+00  0.00000000000E+00  0.12928186351E+03  0.12928186351E+03  0.00000000000E+00 0. -1.
         21   -1    0    0  501  503 -0.00000000000E+00 -0.00000000000E+00 -0.53916439348E+03  0.53916439348E+03  0.00000000000E+00 0.  1.
          6    2    1    2  501    0 -0.44327516859E+02  0.52801432558E+02 -0.44010631119E+03  0.47742653962E+03  0.17172540742E+03 0.  0.
         24    2    3    3    0    0 -0.34995111186E+02  0.95594211139E+02 -0.22989878800E+03  0.26265315091E+03  0.75962582548E+02 0.  0.
         -6    2    1    2    0  502  0.44327516859E+02 -0.52801432558E+02  0.30223781216E+02  0.19101971737E+03  0.17556234061E+03 0.  0.
        -24    2    5    5    0    0 -0.10264168704E+02  0.93539071844E+01  0.62825807049E+02  0.10197747751E+03  0.79116844908E+02 0.  0.
          5    1    3    3  501    0 -0.93324056729E+01 -0.42792778581E+02 -0.21020752319E+03  0.21477338871E+03  0.47000000000E+01 0. -1.
        -13    1    4    4    0    0 -0.28380678631E+01  0.42640893506E+02 -0.17412790266E+03  0.17929536222E+03  0.00000000000E+00 0.  1.
         14    1    4    4    0    0 -0.32157043323E+02  0.52953317633E+02 -0.55770885343E+02  0.83357788692E+02  0.00000000000E+00 0. -1.
         -5    1    5    5    0  502  0.54591685563E+02 -0.62155339742E+02 -0.32602025833E+02  0.89042239861E+02  0.47000000000E+01 0.  1.
         11    1    6    6    0    0  0.27973270320E+01  0.42514224926E+02  0.22581231666E+02  0.48220290160E+02  0.00000000000E+00 0. -1.
        -12    1    6    6    0    0 -0.13061495736E+02 -0.33160317741E+02  0.40244575383E+02  0.53757187346E+02  0.00000000000E+00 0.  1.
</event>
<event>
12    1  0.8451514E-002  0.1910449E+03  0.7818608E-02  0.1157800E+00
         21   -1    0    0  501  502  0.00000000000E+00  0.00000000000E+00  0.16511730071E+03  0.16511730071E+03  0.00000000000E+00 0.  1.
         21   -1    0    0  502  503 -0.00000000000E+00 -0.00000000000E+00 -0.40240867162E+03  0.40240867162E+03  0.00000000000E+00 0.  1.
         -6    2    1    2    0  503 -0.79124153914E+02  0.13347419231E+02 -0.31010653349E+03  0.36423096814E+03  0.17337632682E+03 0.  0.
        -24    2    3    3    0    0 -0.21160035452E+01  0.59179988354E+02 -0.15552568523E+03  0.18549035086E+03  0.81924861933E+02 0.  0.
          6    2    1    2  501    0  0.79124153914E+02 -0.13347419231E+02  0.72815162590E+02  0.20329500419E+03  0.17201170162E+03 0.  0.
         24    2    5    5    0    0  0.70680784825E+02 -0.52653978409E+02  0.99438423986E+02  0.15484725787E+03  0.79507599138E+02 0.  0.
          5    1    5    5  501    0  0.84433690888E+01  0.39306559178E+02 -0.26623261396E+02  0.48447746319E+02  0.47000000000E+01 0. -1.
        -13    1    6    6    0    0  0.51349089976E+02 -0.47908290567E+02  0.20096726666E+02  0.73046641053E+02  0.00000000000E+00 0.  1.
         14    1    6    6    0    0  0.19331694849E+02 -0.47456878419E+01  0.79341697320E+02  0.81800616822E+02  0.00000000000E+00 0. -1.
         -5    1    3    3    0  503 -0.77008150369E+02 -0.45832569122E+02 -0.15458084826E+03  0.17874061728E+03  0.47000000000E+01 0.  1.
         13    1    4    4    0    0 -0.13780741443E+01 -0.12826118314E+02 -0.80393075317E+02  0.81421464973E+02  0.00000000000E+00 0. -1.
        -14    1    4    4    0    0 -0.73792940098E+00  0.72006106667E+02 -0.75132609914E+02  0.10406888589E+03  0.00000000000E+00 0.  1.
</event>
<event>
12    1  0.8451514E-002  0.2035175E+03  0.7818608E-02  0.1146904E+00
         21   -1    0    0  503  502  0.00000000000E+00  0.00000000000E+00  0.38757686283E+03  0.38757686283E+03  0.00000000000E+00 0. -1.
         21   -1    0    0  501  503 -0.00000000000E+00 -0.00000000000E+00 -0.11867305063E+03  0.11867305063E+03  0.00000000000E+00 0. -1.
          6    2    1    2  501    0  0.10625806179E+03  0.18557582533E+02  0.53910466166E+02  0.21053675726E+03  0.17258107726E+03 0.  0.
         24    2    3    3    0    0  0.56987103193E+02  0.81990838633E+00 -0.37631757373E+02  0.10497009047E+03  0.79714293263E+02 0.  0.
         -6    2    1    2    0  502 -0.10625806179E+03 -0.18557582533E+02  0.21499334604E+03  0.29571315621E+03  0.17201445389E+03 0.  0.
        -24    2    5    5    0    0 -0.13063919890E+03 -0.58498816505E+01  0.11156741199E+03  0.18859201291E+03  0.77581173671E+02 0.  0.
          5    1    3    3  501    0  0.49270958602E+02  0.17737674146E+02  0.91542223539E+02  0.10556666678E+03  0.47000000000E+01 0. -1.
        -13    1    4    4    0    0  0.52217935074E+01 -0.26033645607E+02  0.11288402570E+02  0.28852137938E+02  0.00000000000E+00 0.  1.
         14    1    4    4    0    0  0.51765309686E+02  0.26853553994E+02 -0.48920159943E+02  0.76117952533E+02  0.00000000000E+00 0. -1.
         -5    1    5    5    0  502  0.24381137108E+02 -0.12707700882E+02  0.10342593405E+03  0.10712114330E+03  0.47000000000E+01 0.  1.
         11    1    6    6    0    0 -0.10313686608E+03 -0.37654725115E+02  0.85030640299E+02  0.13887152789E+03  0.00000000000E+00 0. -1.
        -12    1    6    6    0    0 -0.27502332819E+02  0.31804843465E+02  0.26536771692E+02  0.49720485015E+02  0.00000000000E+00 0.  1.
</event>
<event>
12    1  0.8451514E-002  0.1809066E+03  0.7818608E-02  0.1167000E+00
         21   -1    0    0  501  502  0.00000000000E+00  0.00000000000E+00  0.52736536718E+03  0.52736536718E+03  0.00000000000E+00 0. -1.
         21   -1    0    0  502  503 -0.00000000000E+00 -0.00000000000E+00 -0.63059783853E+02  0.63059783853E+02  0.00000000000E+00 0.  1.
         -6    2    1    2    0  503 -0.17660032465E+02 -0.50264820707E+02  0.27139918938E+03  0.32616672854E+03  0.17288373510E+03 0.  0.
        -24    2    3    3    0    0  0.54582133198E+01 -0.69371591450E+02  0.27540787537E+03  0.29554514237E+03  0.81579553617E+02 0.  0.
          6    2    1    2  501    0  0.17660032465E+02  0.50264820707E+02  0.19290639395E+03  0.26425842249E+03  0.17257232711E+03 0.  0.
         24    2    5    5    0    0  0.30828536256E+02  0.82999928956E+02  0.74185393421E+02  0.14031584397E+03  0.79659755326E+02 0.  0.
          5    1    5    5  501    0 -0.13168503791E+02 -0.32735108249E+02  0.11872100052E+03  0.12394257852E+03  0.47000000000E+01 0. -1.
        -11    1    6    6    0    0 -0.10604910904E+01  0.54071218605E+02 -0.52817105000E+00  0.54084196282E+02  0.00000000000E+00 0.  1.
         12    1    6    6    0    0  0.31889027346E+02  0.28928710350E+02  0.74713564471E+02  0.86231647692E+02  0.00000000000E+00 0. -1.
         -5    1    3    3    0  503 -0.23118245785E+02  0.19106770743E+02 -0.40086859892E+01  0.30621586173E+02  0.47000000000E+01 0.  1.
         13    1    4    4    0    0 -0.23929900153E+02 -0.50924068874E+02  0.23784018233E+03  0.24440510069E+03  0.00000000000E+00 0. -1.
        -14    1    4    4    0    0  0.29388113472E+02 -0.18447522576E+02  0.37567693044E+02  0.51140041683E+02  0.00000000000E+00 0.  1.
</event>
<event>
12    1  0.8451514E-002  0.2690049E+03  0.7818608E-02  0.1103904E+00
         21   -1    0    0  501  502  0.00000000000E+00  0.00000000000E+00  0.90250734391E+03  0.90250734391E+03  0.00000000000E+00 0.  1.
         21   -1    0    0  502  503 -0.00000000000E+00 -0.00000000000E+00 -0.26353250889E+03  0.26353250889E+03  0.00000000000E+00 0. -1.
         -6    2    1    2    0  503 -0.18879685438E+03  0.82967975070E+01 -0.16971149834E+03  0.31806541278E+03  0.19144326853E+03 0.  0.
        -24    2    3    3    0    0 -0.14893725811E+03  0.53172813623E+02 -0.18505245328E+03  0.25593587765E+03  0.79051300071E+02 0.  0.
          6    2    1    2  501    0  0.18879685438E+03 -0.82967975070E+01  0.80868633336E+03  0.84797444001E+03  0.17138837792E+03 0.  0.
         24    2    5    5    0    0  0.18411524464E+03 -0.82459218744E+01  0.81464558460E+03  0.83905688802E+03  0.80016337661E+02 0.  0.
          5    1    5    5  501    0  0.46816097397E+01 -0.50875632616E-01 -0.59592512456E+01  0.89175519899E+01  0.47000000000E+01 0. -1.
        -13    1    6    6    0    0  0.36752603085E+02  0.24715946868E+02  0.11351215470E+03  0.12184679367E+03  0.00000000000E+00 0.  1.
         14    1    6    6    0    0  0.14736264155E+03 -0.32961868742E+02  0.70113342990E+03  0.71721009435E+03  0.00000000000E+00 0. -1.
         -5    1    3    3    0  503 -0.39859596273E+02 -0.44876016116E+02  0.15340954938E+02  0.62129535133E+02  0.47000000000E+01 0.  1.
         11    1    4    4    0    0 -0.54831184700E+02 -0.90691890246E+01 -0.10085897012E+03  0.11515746115E+03  0.00000000000E+00 0. -1.
        -12    1    4    4    0    0 -0.94106073406E+02  0.62242002647E+02 -0.84193483161E+02  0.14077841650E+03  0.00000000000E+00 0.  1.
</event>
<event>
12    1  0.8451514E-002  0.2200127E+03  0.7818608E-02  0.1133942E+00
         21   -1    0    0  501  502  0.00000000000E+00  0.00000000000E+00  0.20118907941E+03  0.20118907941E+03  0.00000000000E+00 0.  1.
         21   -1    0    0  502  503 -0.00000000000E+00 -0.00000000000E+00 -0.26228285994E+03  0.26228285994E+03  0.00000000000E+00 0.  1.
         -6    2    1    2    0  503  0.13249997361E+03  0.37099076478E+02  0.36674480043E+02  0.22304843617E+03  0.17167703081E+03 0.  0.
        -24    2    3    3    0    0  0.70652289881E+02  0.45350984930E+02  0.85017361079E+02  0.14397660729E+03  0.80329657421E+02 0.  0.
          6    2    1    2  501    0 -0.13249997361E+03 -0.37099076478E+02 -0.97768260571E+02  0.24042350318E+03  0.17120818796E+03 0.  0.
         24    2    5    5    0    0 -0.83085251947E+02 -0.30605152586E+02  0.12472665948E+02  0.11934857744E+03  0.79048599507E+02 0.  0.
          5    1    5    5  501    0 -0.49414721661E+02 -0.64939238918E+01 -0.11024092652E+03  0.12107492574E+03  0.47000000000E+01 0. -1.
        -13    1    6    6    0    0 -0.76689504997E+02 -0.44477169973E+02 -0.13044775650E+02  0.89608398028E+02  0.00000000000E+00 0.  1.
         14    1    6    6    0    0 -0.63957469507E+01  0.13872017387E+02  0.25517441598E+02  0.29740179407E+02  0.00000000000E+00 0. -1.
         -5    1    3    3    0  503  0.61847683727E+02 -0.82519084519E+01 -0.48342881036E+02  0.79071828880E+02  0.47000000000E+01 0.  1.
         13    1    4    4    0    0 -0.47087681104E+01 -0.22622707645E+01  0.46627860955E+02  0.46919588482E+02  0.00000000000E+00 0. -1.
        -14    1    4    4    0    0  0.75361057991E+02  0.47613255694E+02  0.38389500124E+02  0.97057018804E+02  0.00000000000E+00 0.  1.
</event>
<event>
12    1  0.8451514E-002  0.1863451E+03  0.7818608E-02  0.1161833E+00
         21   -1    0    0  501  502  0.00000000000E+00  0.00000000000E+00  0.24705096215E+03  0.24705096215E+03  0.00000000000E+00 0.  1.
         21   -1    0    0  502  503 -0.00000000000E+00 -0.00000000000E+00 -0.15026582917E+03  0.15026582917E+03  0.00000000000E+00 0.  1.
         -6    2    1    2    0  503 -0.69491684767E+02  0.20406212657E+02 -0.23685499456E+01  0.18636010407E+03  0.17169441049E+03 0.  0.
        -24    2    3    3    0    0 -0.10103896264E+03 -0.25876489370E+02 -0.22832840914E+01  0.13015141686E+03  0.77818463437E+02 0.  0.
          6    2    1    2  501    0  0.69491684767E+02 -0.20406212657E+02  0.99153682916E+02  0.21095668725E+03  0.17153939283E+03 0.  0.
         24    2    5    5    0    0  0.45569377739E+02 -0.79482201893E+02  0.69589466565E+02  0.14054090659E+03  0.80715946145E+02 0.  0.
          5    1    5    5  501    0  0.23922307028E+02  0.59075989236E+02  0.29564216351E+02  0.70415780662E+02  0.47000000000E+01 0. -1.
        -11    1    6    6    0    0 -0.13599267119E+02 -0.53126742903E+02  0.17949864785E+02  0.57702586801E+02  0.00000000000E+00 0.  1.
         12    1    6    6    0    0  0.59168644858E+02 -0.26355458990E+02  0.51639601780E+02  0.82838319786E+02  0.00000000000E+00 0. -1.
         -5    1    3    3    0  503  0.31547277869E+02  0.46282702027E+02 -0.85265854272E-01  0.56208687213E+02  0.47000000000E+01 0.  1.
         13    1    4    4    0    0 -0.40869619116E+02  0.22893552816E+02 -0.19611451646E+02  0.50784343679E+02  0.00000000000E+00 0. -1.
        -14    1    4    4    0    0 -0.60169343520E+02 -0.48770042186E+02  0.17328167555E+02  0.79367073181E+02  0.00000000000E+00 0.  1.
</event>
<event>
12    1  0.8451514E-002  0.1863789E+03  0.7818608E-02  0.1164795E+00
         21   -1    0    0  503  502  0.00000000000E+00  0.00000000000E+00  0.27390771839E+04  0.27390771839E+04  0.00000000000E+00 0.  1.
         21   -1    0    0  501  503 -0.00000000000E+00 -0.00000000000E+00 -0.13950958408E+02  0.13950958408E+02  0.00000000000E+00 0.  1.
          6    2    1    2  501    0 -0.99186023033E+01  0.16390836398E+02  0.78675653254E+03  0.80571867723E+03  0.17271278803E+03 0.  0.
         24    2    3    3    0    0 -0.40558638234E+02  0.62589827012E+02  0.38152564361E+03  0.39668650015E+03  0.78967544564E+02 0.  0.
         -6    2    1    2    0  502  0.99186023033E+01 -0.16390836398E+02  0.19383696929E+04  0.19473094651E+04  0.18539160728E+03 0.  0.
        -24    2    5    5    0    0 -0.67824314702E+01  0.35134545100E+02  0.46303717906E+03  0.47097552385E+03  0.78320350120E+02 0.  0.
          5    1    3    3  501    0  0.30640035930E+02 -0.46198990614E+02  0.40523088894E+03  0.40903217708E+03  0.47000000000E+01 0. -1.
        -13    1    4    4    0    0 -0.55345899516E+02  0.33449073937E+02  0.32520339411E+03  0.33157089239E+03  0.00000000000E+00 0.  1.
         14    1    4    4    0    0  0.14787261283E+02  0.29140753075E+02  0.56322249499E+02  0.65115607765E+02  0.00000000000E+00 0. -1.
         -5    1    5    5    0  502  0.16701033774E+02 -0.51525381498E+02  0.14753325139E+04  0.14763339412E+04  0.47000000000E+01 0.  1.
         11    1    6    6    0    0  0.10221164837E+02  0.27335671675E+02  0.52934753910E+02  0.60446665153E+02  0.00000000000E+00 0. -1.
        -12    1    6    6    0    0 -0.17003596307E+02  0.77988734257E+01  0.41010242515E+03  0.41052885870E+03  0.00000000000E+00 0.  1.
</event>
<event>
12    1  0.8451514E-002  0.1872456E+03  0.7818608E-02  0.1161173E+00
         21   -1    0    0  501  502  0.00000000000E+00  0.00000000000E+00  0.64784722096E+02  0.64784722096E+02  0.00000000000E+00 0. -1.
         21   -1    0    0  502  503 -0.00000000000E+00 -0.00000000000E+00 -0.53909172647E+03  0.53909172647E+03  0.00000000000E+00 0. -1.
         -6    2    1    2    0  503  0.66447194417E+02 -0.33920758875E+02 -0.24652108672E+03  0.30956993510E+03  0.17174123265E+03 0.  0.
        -24    2    3    3    0    0  0.61844350222E+02  0.41494664932E+02 -0.16855841540E+03  0.20090098626E+03  0.80017098208E+02 0.  0.
          6    2    1    2  501    0 -0.66447194417E+02  0.33920758875E+02 -0.22778591765E+03  0.29430651347E+03  0.17077485781E+03 0.  0.
         24    2    5    5    0    0  0.31777667239E+01  0.12245813427E+02 -0.20184330484E+03  0.21676589422E+03  0.78017145801E+02 0.  0.
          5    1    5    5  501    0 -0.69624961141E+02  0.21674945447E+02 -0.25942612812E+02  0.77540619249E+02  0.47000000000E+01 0. -1.
        -13    1    6    6    0    0 -0.25892191804E+02  0.78561860665E+01 -0.17460073031E+03  0.17668486149E+03  0.00000000000E+00 0.  1.
         14    1    6    6    0    0  0.29069958528E+02  0.43896273608E+01 -0.27242574531E+02  0.40081032724E+02  0.00000000000E+00 0. -1.
         -5    1    3    3    0  503  0.46028441953E+01 -0.75415423807E+02 -0.77962671321E+02  0.10866894884E+03  0.47000000000E+01 0.  1.
         13    1    4    4    0    0  0.68716052372E+02  0.25897395479E+01 -0.93298211163E+02  0.11590150478E+03  0.00000000000E+00 0. -1.
        -14    1    4    4    0    0 -0.68717021502E+01  0.38904925384E+02 -0.75260204240E+02  0.84999481480E+02  0.00000000000E+00 0.  1.
</event>
<event>
12    1  0.8451514E-002  0.1756722E+03  0.7818608E-02  0.1172837E+00
         21   -1    0    0  503  502  0.00000000000E+00  0.00000000000E+00  0.53679158776E+03  0.53679158776E+03  0.00000000000E+00 0. -1.
         21   -1    0    0  501  503 -0.00000000000E+00 -0.00000000000E+00 -0.11915144060E+03  0.11915144060E+03  0.00000000000E+00 0. -1.
          6    2    1    2  501    0 -0.20575903022E+02  0.29386464985E+02 -0.29902422879E+02  0.17515714081E+03  0.16881628172E+03 0.  0.
         24    2    3    3    0    0  0.24542770941E+02  0.68282399536E+02 -0.32250281822E+01  0.10971738338E+03  0.82235452923E+02 0.  0.
         -6    2    1    2    0  502  0.20575903022E+02 -0.29386464985E+02  0.44754257004E+03  0.48078588755E+03  0.17197030431E+03 0.  0.
        -24    2    5    5    0    0  0.37379373655E+02 -0.69658920589E+02  0.40216159132E+03  0.41765308677E+03  0.80315456557E+02 0.  0.
          5    1    3    3  501    0 -0.45118673963E+02 -0.38895934551E+02 -0.26677394697E+02  0.65439757430E+02  0.47000000000E+01 0. -1.
        -11    1    4    4    0    0  0.16603376476E+02  0.22238926043E+02 -0.41085228667E+02  0.49580620777E+02  0.00000000000E+00 0.  1.
         12    1    4    4    0    0  0.79393944645E+01  0.46043473493E+02  0.37860200485E+02  0.60136762604E+02  0.00000000000E+00 0. -1.
         -5    1    5    5    0  502 -0.16803470634E+02  0.40272455604E+02  0.45380978719E+02  0.63132800787E+02  0.47000000000E+01 0.  1.
         11    1    6    6    0    0 -0.26804624427E+01 -0.64401087637E+02  0.16627548642E+03  0.17833177606E+03  0.00000000000E+00 0. -1.
        -12    1    6    6    0    0  0.40059836098E+02 -0.52578329520E+01  0.23588610490E+03  0.23932131071E+03  0.00000000000E+00 0.  1.
</event>
<event>
12    1  0.8451514E-002  0.2520099E+03  0.7818608E-02  0.1112576E+00
         21   -1    0    0  501  502  0.00000000000E+00  0.00000000000E+00  0.59634556184E+03  0.59634556184E+03  0.00000000000E+00 0.  1.
         21   -1    0    0  502  503 -0.00000000000E+00 -0.00000000000E+00 -0.13053306160E+03  0.13053306160E+03  0.00000000000E+00 0. -1.
         -6    2    1    2    0  503  0.21496200014E+01  0.18380476734E+03  0.73651064303E+02  0.26255182907E+03  0.17239538947E+03 0.  0.
        -24    2    3    3    0    0  0.77488022820E+01  0.19862463369E+03  0.21535112299E+02  0.20787878512E+03  0.56903771379E+02 0.  0.
          6    2    1    2  501    0 -0.21496200014E+01 -0.18380476734E+03  0.39216143593E+03  0.46432679437E+03  0.16739165683E+03 0.  0.
         24    2    5    5    0    0 -0.16383145427E+02 -0.92461684070E+02  0.33465809076E+03  0.35535488601E+03  0.73915403158E+02 0.  0.
          5    1    5    5  501    0  0.14233525426E+02 -0.91343083266E+02  0.57503345177E+02  0.10897190837E+03  0.47000000000E+01 0. -1.
        -11    1    6    6    0    0  0.28292390014E+02 -0.32370195641E+02  0.15149683327E+03  0.15747882203E+03  0.00000000000E+00 0.  1.
         12    1    6    6    0    0 -0.44675535442E+02 -0.60091488429E+02  0.18316125749E+03  0.19787606398E+03  0.00000000000E+00 0. -1.
         -5    1    3    3    0  503 -0.55991822806E+01 -0.14819866353E+02  0.52115952004E+02  0.54673043945E+02  0.47000000000E+01 0.  1.
         13    1    4    4    0    0  0.21525957531E+02  0.98003551926E+02 -0.11698986836E+02  0.10101945026E+03  0.00000000000E+00 0. -1.
        -14    1    4    4    0    0 -0.13777155249E+02  0.10062108176E+03  0.33234099135E+02  0.10685933486E+03  0.00000000000E+00 0.  1.
</event>
<event>
12    1  0.8451514E-002  0.2319894E+03  0.7818608E-02  0.1125553E+00
         21   -1    0    0  501  502  0.00000000000E+00  0.00000000000E+00  0.14274076041E+04  0.14274076041E+04  0.00000000000E+00 0.  1.
         21   -1    0    0  502  503 -0.00000000000E+00 -0.00000000000E+00 -0.47804118037E+02  0.47804118037E+02  0.00000000000E+00 0.  1.
         -6    2    1    2    0  503 -0.15107882033E+03 -0.25886018762E+02  0.34399167093E+03  0.41393375014E+03  0.17180216507E+03 0.  0.
        -24    2    3    3    0    0 -0.33166718930E+02  0.34694704389E+02  0.10014212325E+03  0.13634055934E+03  0.79098353441E+02 0.  0.
          6    2    1    2  501    0  0.15107882033E+03  0.25886018762E+02  0.10356118151E+04  0.10612779720E+04  0.17413846867E+03 0.  0.
         24    2    5    5    0    0  0.98001409095E+02 -0.52425698479E+02  0.59386178403E+03  0.60948696210E+03  0.80310699107E+02 0.  0.
          5    1    5    5  501    0  0.53077411231E+02  0.78311717241E+02  0.44175003110E+03  0.45179100989E+03  0.47000000000E+01 0. -1.
        -11    1    6    6    0    0  0.81378976029E+02  0.52356185384E+00  0.37074643374E+03  0.37957308912E+03  0.00000000000E+00 0.  1.
         12    1    6    6    0    0  0.16622433066E+02 -0.52949260333E+02  0.22311535029E+03  0.22991387297E+03  0.00000000000E+00 0. -1.
         -5    1    3    3    0  503 -0.11791210140E+03 -0.60580723151E+02  0.24384954768E+03  0.27759319080E+03  0.47000000000E+01 0.  1.
         13    1    4    4    0    0 -0.56524346485E+02  0.39114553743E+02  0.75342641645E+02  0.10198756645E+03  0.00000000000E+00 0. -1.
        -14    1    4    4    0    0  0.23357627555E+02 -0.44198493534E+01  0.24799481601E+02  0.34352992897E+02  0.00000000000E+00 0.  1.
</event>
<event>
12    1  0.8451514E-002  0.2854261E+03  0.7818608E-02  0.1093862E+00
         21   -1    0    0  501  502  0.00000000000E+00  0.00000000000E+00  0.11345239129E+04  0.11345239129E+04  0.00000000000E+00 0. -1.
         21   -1    0    0  502  503 -0.00000000000E+00 -0.00000000000E+00 -0.75940485159E+02  0.75940485159E+02  0.00000000000E+00 0.  1.
         -6    2    1    2    0  503 -0.22695490384E+03 -0.16351597869E+02  0.69468508018E+03  0.74798188366E+03  0.15847281954E+03 0.  0.
        -24    2    3    3    0    0 -0.17557247978E+03 -0.60385086977E+02  0.58701650453E+03  0.62072735978E+03  0.79006482068E+02 0.  0.
          6    2    1    2  501    0  0.22695490384E+03  0.16351597869E+02  0.36389834759E+03  0.46248251442E+03  0.17231414812E+03 0.  0.
         24    2    5    5    0    0  0.15190550483E+03 -0.49032008733E+02  0.27996201593E+03  0.33219503967E+03  0.80594005638E+02 0.  0.
          5    1    5    5  501    0  0.75049399008E+02  0.65383606601E+02  0.83936331659E+02  0.13028747475E+03  0.47000000000E+01 0. -1.
        -13    1    6    6    0    0  0.14313107856E+03 -0.17856977947E+02  0.24668247117E+03  0.28575797259E+03  0.00000000000E+00 0.  1.
         14    1    6    6    0    0  0.87744262634E+01 -0.31175030785E+02  0.33279544755E+02  0.46437067089E+02  0.00000000000E+00 0. -1.
         -5    1    3    3    0  503 -0.51382424057E+02  0.44033489108E+02  0.10766857565E+03  0.12725452388E+03  0.47000000000E+01 0.  1.
         13    1    4    4    0    0 -0.12689347907E+03 -0.14589436195E+02  0.45732754515E+03  0.47482974868E+03  0.00000000000E+00 0. -1.
        -14    1    4    4    0    0 -0.48679000709E+02 -0.45795650781E+02  0.12968895937E+03  0.14589761110E+03  0.00000000000E+00 0.  1.
</event>
<event>
12    1  0.8451514E-002  0.2100940E+03  0.7818608E-02  0.1141906E+00
         21   -1    0    0  503  502  0.00000000000E+00  0.00000000000E+00  0.13157740288E+03  0.13157740288E+03  0.00000000000E+00 0.  1.
         21   -1    0    0  501  503 -0.00000000000E+00 -0.00000000000E+00 -0.33279486485E+03  0.33279486485E+03  0.00000000000E+00 0.  1.
          6    2    1    2  501    0  0.11527945749E+03 -0.18558629145E+02 -0.11138593519E+03  0.23779471654E+03  0.17465888073E+03 0.  0.
         24    2    3    3    0    0  0.14217893399E+03 -0.41369004843E+02 -0.11311566680E+03  0.20217201245E+03  0.78435481190E+02 0.  0.
         -6    2    1    2    0  502 -0.11527945749E+03  0.18558629145E+02 -0.89831526778E+02  0.22657755119E+03  0.17214501871E+03 0.  0.
        -24    2    5    5    0    0 -0.14848153963E+03  0.26813598348E+02 -0.87099160531E+02  0.19193540057E+03  0.80543140992E+02 0.  0.
          5    1    3    3  501    0 -0.26899476496E+02  0.22810375697E+02  0.17297316053E+01  0.35622704089E+02  0.47000000000E+01 0. -1.
        -13    1    4    4    0    0  0.68842477453E+02 -0.51969938582E+02 -0.31227083766E+02  0.91734900548E+02  0.00000000000E+00 0.  1.
         14    1    4    4    0    0  0.73336456536E+02  0.10600933739E+02 -0.81888583033E+02  0.11043711190E+03  0.00000000000E+00 0. -1.
         -5    1    5    5    0  502  0.33202082132E+02 -0.82549692026E+01 -0.27323662470E+01  0.34642150622E+02  0.47000000000E+01 0.  1.
         13    1    6    6    0    0 -0.11358759544E+03  0.34415112071E+01 -0.96283686493E+02  0.14894473513E+03  0.00000000000E+00 0. -1.
        -14    1    6    6    0    0 -0.34893944187E+02  0.23372087141E+02  0.91845259618E+01  0.42990665445E+02  0.00000000000E+00 0.  1.
</event>
<event>
12    1  0.8451514E-002  0.1864380E+03  0.7818608E-02  0.1161780E+00
         21   -1    0    0  501  502  0.00000000000E+00  0.00000000000E+00  0.18974236827E+04  0.18974236827E+04  0.00000000000E+00 0. -1.
         21   -1    0    0  502  503 -0.00000000000E+00 -0.00000000000E+00 -0.10063011072E+03  0.10063011072E+03  0.00000000000E+00 0.  1.
         -6    2    1    2    0  503  0.62196934346E+02 -0.35970227493E+02 -0.54133427681E+01  0.18622905362E+03  0.17172547925E+03 0.  0.
        -24    2    3    3    0    0  0.76857321598E+02 -0.25331766999E+02  0.51315516070E+02  0.12649332544E+03  0.82574408191E+02 0.  0.
          6    2    1    2  501    0 -0.62196934346E+02  0.35970227493E+02  0.18022069148E+04  0.18118247398E+04  0.17203722939E+03 0.  0.
         24    2    5    5    0    0 -0.39577903652E+02 -0.27147471929E+02  0.41334116499E+03  0.42133359443E+03  0.66088451530E+02 0.  0.
          5    1    5    5  501    0 -0.22619030694E+02  0.63117699422E+02  0.13888657498E+04  0.13904911454E+04  0.47000000000E+01 0. -1.
        -11    1    6    6    0    0 -0.30073803185E+02 -0.10335581606E+01  0.62221892797E+02  0.69116320965E+02  0.00000000000E+00 0.  1.
         12    1    6    6    0    0 -0.95041004670E+01 -0.26113913768E+02  0.35111927219E+03  0.35221727346E+03  0.00000000000E+00 0. -1.
         -5    1    3    3    0  503 -0.14660387252E+02 -0.10638460494E+02 -0.56728858838E+02  0.59735728180E+02  0.47000000000E+01 0.  1.
         11    1    4    4    0    0  0.58146177723E+02 -0.52912235611E+02  0.20841405449E+02  0.81332938237E+02  0.00000000000E+00 0. -1.
        -12    1    4    4    0    0  0.18711143875E+02  0.27580468612E+02  0.30474110621E+02  0.45160387201E+02  0.00000000000E+00 0.  1.
</event>
<event>
12    1  0.8451514E-002  0.1779678E+03  0.7818608E-02  0.1169860E+00
         21   -1    0    0  501  502  0.00000000000E+00  0.00000000000E+00  0.49692136433E+03  0.49692136433E+03  0.00000000000E+00 0. -1.
         21   -1    0    0  502  503 -0.00000000000E+00 -0.00000000000E+00 -0.70230929592E+02  0.70230929592E+02  0.00000000000E+00 0.  1.
         -6    2    1    2    0  503 -0.15324777118E+02  0.42752165897E+02  0.12655553305E+03  0.21837777435E+03  0.17207542794E+03 0.  0.
        -24    2    3    3    0    0  0.25317100555E+02 -0.33945727014E+02  0.76825217434E+02  0.11823026669E+03  0.79265465151E+02 0.  0.
          6    2    1    2  501    0  0.15324777118E+02 -0.42752165897E+02  0.30013490168E+03  0.34877451957E+03  0.17175596005E+03 0.  0.
         24    2    5    5    0    0  0.74569114859E+02 -0.44388810596E+02  0.19207738091E+03  0.22544128011E+03  0.79994569339E+02 0.  0.
          5    1    5    5  501    0 -0.59244337741E+02  0.16366446991E+01  0.10805752077E+03  0.12333323946E+03  0.47000000000E+01 0. -1.
        -13    1    6    6    0    0 -0.90780144967E+01 -0.29254516994E+02  0.32658877016E+02  0.44775432546E+02  0.00000000000E+00 0.  1.
         14    1    6    6    0    0  0.83647129356E+02 -0.15134293602E+02  0.15941850390E+03  0.18066584757E+03  0.00000000000E+00 0. -1.
         -5    1    3    3    0  503 -0.40641877673E+02  0.76697892911E+02  0.49730315617E+02  0.10014750765E+03  0.47000000000E+01 0.  1.
         11    1    4    4    0    0 -0.36221719047E+01 -0.47491418075E+02  0.17304897681E+02  0.50675579955E+02  0.00000000000E+00 0. -1.
        -12    1    4    4    0    0  0.28939272460E+02  0.13545691061E+02  0.59520319752E+02  0.67554686737E+02  0.00000000000E+00 0.  1.
</event>
<event>
12    1  0.8451514E-002  0.1866000E+03  0.7818608E-02  0.1161849E+00
         21   -1    0    0  501  502  0.00000000000E+00  0.00000000000E+00  0.21925509627E+03  0.21925509627E+03  0.00000000000E+00 0. -1.
         21   -1    0    0  502  503 -0.00000000000E+00 -0.00000000000E+00 -0.16753219955E+03  0.16753219955E+03  0.00000000000E+00 0. -1.
         -6    2    1    2    0  503 -0.15675597063E+02  0.65752296645E+02 -0.20918639400E+02  0.18654656211E+03  0.17260631941E+03 0.  0.
        -24    2    3    3    0    0 -0.66843872115E+02  0.78323986450E+02 -0.65202161303E+00  0.12989794736E+03  0.79185235384E+02 0.  0.
          6    2    1    2  501    0  0.15675597063E+02 -0.65752296645E+02  0.72641536116E+02  0.20024073371E+03  0.17392662191E+03 0.  0.
         24    2    5    5    0    0  0.72285458737E+02 -0.58060171186E+02  0.24202938236E+02  0.12519252922E+03  0.80568083820E+02 0.  0.
          5    1    5    5  501    0 -0.56609861673E+02 -0.76921254590E+01  0.48438597880E+02  0.75048204491E+02  0.47000000000E+01 0. -1.
        -13    1    6    6    0    0  0.30637500709E+02 -0.18032538678E+02 -0.29594353131E+02  0.46256401050E+02  0.00000000000E+00 0.  1.
         14    1    6    6    0    0  0.41647958028E+02 -0.40027632508E+02  0.53797291367E+02  0.78936128170E+02  0.00000000000E+00 0. -1.
         -5    1    3    3    0  503  0.51168275052E+02 -0.12571689805E+02 -0.20266617787E+02  0.56648614748E+02  0.47000000000E+01 0.  1.
         11    1    4    4    0    0 -0.54693824856E+02  0.32807579596E+02 -0.33908004958E+02  0.72232295800E+02  0.00000000000E+00 0. -1.
        -12    1    4    4    0    0 -0.12150047259E+02  0.45516406854E+02  0.33255983345E+02  0.57665651557E+02  0.00000000000E+00 0.  1.
</event>
<event>
12    1  0.8451514E-002  0.1979667E+03  0.7818608E-02  0.1151777E+00
         21   -1    0    0  503  502  0.00000000000E+00  0.00000000000E+00  0.90598553331E+02  0.90598553331E+02  0.00000000000E+00 0.  1.
         21   -1    0    0  501  503 -0.00000000000E+00 -0.00000000000E+00 -0.44264596242E+03  0.44264596242E+03  0.00000000000E+00 0.  1.
          6    2    1    2  501    0 -0.62319350576E+02  0.75044794571E+02 -0.22149555713E+03  0.29610618083E+03  0.17059650010E+03 0.  0.
         24    2    3    3    0    0 -0.48955083803E+02  0.70111798001E+02 -0.24309452070E+03  0.26980896978E+03  0.79935409717E+02 0.  0.
         -6    2    1    2    0  502  0.62319350576E+02 -0.75044794571E+02 -0.13055185196E+03  0.23713833492E+03  0.17226543818E+03 0.  0.
        -24    2    5    5    0    0  0.51271302209E+02 -0.51894326871E+02 -0.16311677117E+03  0.19541822597E+03  0.79116587485E+02 0.  0.
          5    1    3    3  501    0 -0.13364266773E+02  0.49329965701E+01  0.21598963575E+02  0.26297211051E+02  0.47000000000E+01 0. -1.
        -11    1    4    4    0    0 -0.32132298255E+02  0.44915350513E+02 -0.50461238299E+02  0.74807819601E+02  0.00000000000E+00 0.  1.
         12    1    4    4    0    0 -0.16822785548E+02  0.25196447488E+02 -0.19263328240E+03  0.19500115017E+03  0.00000000000E+00 0. -1.
         -5    1    5    5    0  502  0.11048048367E+02 -0.23150467700E+02  0.32564919209E+02  0.41720108947E+02  0.47000000000E+01 0.  1.
         11    1    6    6    0    0  0.32861312612E+01  0.69888920791E+01 -0.88852107469E+02  0.89187108221E+02  0.00000000000E+00 0. -1.
        -12    1    6    6    0    0  0.47985170948E+02 -0.58883218950E+02 -0.74264663697E+02  0.10623111775E+03  0.00000000000E+00 0.  1.
</event>
<event>
12    1  0.8451514E-002  0.1880121E+03  0.7818608E-02  0.1162001E+00
         21   -1    0    0  503  502  0.00000000000E+00  0.00000000000E+00  0.44544773426E+03  0.44544773426E+03  0.00000000000E+00 0.  1.
         21   -1    0    0  501  503 -0.00000000000E+00 -0.00000000000E+00 -0.12226217310E+03  0.12226217310E+03  0.00000000000E+00 0. -1.
          6    2    1    2  501    0  0.23437871819E+02  0.46064298264E+02 -0.10486549038E+02  0.18830428598E+03  0.18076858963E+03 0.  0.
         24    2    3    3    0    0  0.71095703527E+02 -0.66375462683E+01 -0.31416614196E+02  0.11408224769E+03  0.83241212808E+02 0.  0.
         -6    2    1    2    0  502 -0.23437871819E+02 -0.46064298264E+02  0.33367211020E+03  0.37940562138E+03  0.17303264144E+03 0.  0.
        -24    2    5    5    0    0 -0.61073354990E+02  0.11046072252E+02  0.13232622779E+03  0.16670799945E+03  0.80183265824E+02 0.  0.
          5    1    3    3  501    0 -0.47657831708E+02  0.52701844533E+02  0.20930065158E+02  0.74222038289E+02  0.47000000000E+01 0. -1.
        -11    1    4    4    0    0  0.26223821799E+02  0.35839830586E+02  0.76406689978E+00  0.44415831461E+02  0.00000000000E+00 0.  1.
         12    1    4    4    0    0  0.44871881728E+02 -0.42477376854E+02 -0.32180681095E+02  0.69666416227E+02  0.00000000000E+00 0. -1.
         -5    1    5    5    0  502  0.37635483170E+02 -0.57110370516E+02  0.20134588241E+03  0.21269762193E+03  0.47000000000E+01 0.  1.
         13    1    6    6    0    0 -0.37175953595E+02  0.91766980339E+01  0.67719442733E+01  0.38886019875E+02  0.00000000000E+00 0. -1.
        -14    1    6    6    0    0 -0.23897401395E+02  0.18693742179E+01  0.12555428352E+03  0.12782197958E+03  0.00000000000E+00 0.  1.
</event>
<event>
12    1  0.8451514E-002  0.1920661E+03  0.7818608E-02  0.1156636E+00
         21   -1    0    0  501  502  0.00000000000E+00  0.00000000000E+00  0.13993828865E+03  0.13993828865E+03  0.00000000000E+00 0.  1.
         21   -1    0    0  502  503 -0.00000000000E+00 -0.00000000000E+00 -0.32421125019E+03  0.32421125019E+03  0.00000000000E+00 0.  1.
         -6    2    1    2    0  503  0.76641677685E+02 -0.41692039842E+02 -0.19257650285E+03  0.27190401150E+03  0.17097926505E+03 0.  0.
        -24    2    3    3    0    0  0.97544870399E+02  0.18600609751E+02 -0.13638254133E+03  0.18674534564E+03  0.80078974227E+02 0.  0.
          6    2    1    2  501    0 -0.76641677685E+02  0.41692039842E+02  0.83035413032E+01  0.19224552734E+03  0.17110587669E+03 0.  0.
         24    2    5    5    0    0 -0.10886375630E+03  0.40483382831E+02  0.40721518696E+02  0.14628099253E+03  0.79054822568E+02 0.  0.
          5    1    5    5  501    0  0.32222078610E+02  0.12086570105E+01 -0.32417977393E+02  0.45964534807E+02  0.47000000000E+01 0. -1.
        -13    1    6    6    0    0 -0.18574471398E+02 -0.12198718784E+02 -0.15967821180E+02  0.27364046501E+02  0.00000000000E+00 0.  1.
         14    1    6    6    0    0 -0.90289284898E+02  0.52682101616E+02  0.56689339876E+02  0.11891694603E+03  0.00000000000E+00 0. -1.
         -5    1    3    3    0  503 -0.20903192713E+02 -0.60292649592E+02 -0.56193961516E+02  0.85158665862E+02  0.47000000000E+01 0.  1.
         11    1    4    4    0    0  0.21179695324E+02 -0.23786289461E+02 -0.10508913761E+02  0.33538102641E+02  0.00000000000E+00 0. -1.
        -12    1    4    4    0    0  0.76365175075E+02  0.42386899211E+02 -0.12587362757E+03  0.15320724300E+03  0.00000000000E+00 0.  1.
</event>
<event>
12    1  0.8451514E-002  0.2099613E+03  0.7818608E-02  0.1141806E+00
         21   -1    0    0  503  502  0.00000000000E+00  0.00000000000E+00  0.85931504041E+03  0.85931504041E+03  0.00000000000E+00 0.  1.
         21   -1    0    0  501  503 -0.00000000000E+00 -0.00000000000E+00 -0.19831483173E+03  0.19831483173E+03  0.00000000000E+00 0.  1.
          6    2    1    2  501    0  0.18846519733E+02  0.12040960862E+03 -0.12499142397E+03  0.24434937440E+03  0.17096811268E+03 0.  0.
         24    2    3    3    0    0 -0.55018750726E+02  0.78505082358E+02 -0.72013395989E+02  0.14414543761E+03  0.80011668481E+02 0.  0.
         -6    2    1    2    0  502 -0.18846519733E+02 -0.12040960862E+03  0.78599163265E+03  0.81328049774E+03  0.16967220234E+03 0.  0.
        -24    2    5    5    0    0  0.12782279057E+02 -0.53149963024E+01  0.21932413877E+03  0.23415936247E+03  0.80844872062E+02 0.  0.
          5    1    3    3  501    0  0.73865270459E+02  0.41904526258E+02 -0.52978027980E+02  0.10020393680E+03  0.47000000000E+01 0. -1.
        -13    1    4    4    0    0  0.80199698525E+01  0.15038971919E+02 -0.48856067000E+02  0.51743655413E+02  0.00000000000E+00 0.  1.
         14    1    4    4    0    0 -0.63038720578E+02  0.63466110440E+02 -0.23157328989E+02  0.92401782193E+02  0.00000000000E+00 0. -1.
         -5    1    5    5    0  502 -0.31628798790E+02 -0.11509461231E+03  0.56666749388E+03  0.57912113527E+03  0.47000000000E+01 0.  1.
         13    1    6    6    0    0  0.23690670493E+02 -0.35300565014E+02  0.73720297705E+02  0.85100294079E+02  0.00000000000E+00 0. -1.
        -14    1    6    6    0    0 -0.10908391437E+02  0.29985568712E+02  0.14560384107E+03  0.14905906839E+03  0.00000000000E+00 0.  1.
</event>
<event>
12    1  0.8451514E-002  0.1767524E+03  0.7818608E-02  0.1172231E+00
         21   -1    0    0  503  502  0.00000000000E+00  0.00000000000E+00  0.24912693639E+03  0.24912693639E+03  0.00000000000E+00 0.  1.
         21   -1    0    0  501  503 -0.00000000000E+00 -0.00000000000E+00 -0.12254262271E+03  0.12254262271E+03  0.00000000000E+00 0.  1.
          6    2    1    2  501    0  0.22307977589E+02 -0.19974665995E+02  0.50831840214E+02  0.18391654256E+03  0.17419754735E+03 0.  0.
         24    2    3    3    0    0  0.39444600408E+02  0.44036697164E+02 -0.14140966707E+01  0.99401180784E+02  0.79896732558E+02 0.  0.
         -6    2    1    2    0  502 -0.22307977589E+02  0.19974665995E+02  0.75752473468E+02  0.18775301654E+03  0.16916301262E+03 0.  0.
        -24    2    5    5    0    0 -0.23986606730E+02 -0.31318109362E+01 -0.23146883370E+02  0.86067718416E+02  0.79288765922E+02 0.  0.
          5    1    3    3  501    0 -0.17136622819E+02 -0.64011363159E+02  0.52245936884E+02  0.84515361775E+02  0.47000000000E+01 0. -1.
        -11    1    4    4    0    0 -0.24053088642E+02  0.11989388119E+02  0.70174300552E+01  0.27776623720E+02  0.00000000000E+00 0.  1.
         12    1    4    4    0    0  0.63497689050E+02  0.32047309045E+02 -0.84315267258E+01  0.71624557065E+02  0.00000000000E+00 0. -1.
         -5    1    5    5    0  502  0.16786291416E+01  0.23106476931E+02  0.98899356838E+02  0.10168529813E+03  0.47000000000E+01 0.  1.
         13    1    6    6    0    0 -0.21306217028E+02  0.25219028504E+01  0.27587864066E+02  0.34948606864E+02  0.00000000000E+00 0. -1.
        -14    1    6    6    0    0 -0.26803897028E+01 -0.56537137866E+01 -0.50734747435E+02  0.51119111552E+02  0.00000000000E+00 0.  1.
</event>
<event>
12    1  0.8451514E-002  0.1793084E+03  0.7818608E-02  0.1168653E+00
         21   -1    0    0  503  502  0.00000000000E+00  0.00000000000E+00  0.98520513415E+02  0.98520513415E+02  0.00000000000E+00 0. -1.
         21   -1    0    0  501  503 -0.00000000000E+00 -0.00000000000E+00 -0.34853982243E+03  0.34853982243E+03  0.00000000000E+00 0. -1.
          6    2    1    2  501    0  0.32934025396E+02 -0.36012388322E+02 -0.18284924903E+03  0.25558360951E+03  0.17177773848E+03 0.  0.
         24    2    3    3    0    0  0.46704166330E+02 -0.46728281192E+02 -0.39161504913E+02  0.11076404954E+03  0.79813781936E+02 0.  0.
         -6    2    1    2    0  502 -0.32934025396E+02  0.36012388322E+02 -0.67170059982E+02  0.19147672633E+03  0.17253978564E+03 0.  0.
        -24    2    5    5    0    0 -0.62031262331E+02 -0.24006375061E+02 -0.68437644250E+02  0.12459924189E+03  0.80106656277E+02 0.  0.
          5    1    3    3  501    0 -0.13770140933E+02  0.10715892871E+02 -0.14368774412E+03  0.14481955998E+03  0.47000000000E+01 0. -1.
        -11    1    4    4    0    0  0.18150010418E+02 -0.15693835528E+02  0.24570332221E+02  0.34342693215E+02  0.00000000000E+00 0.  1.
         12    1    4    4    0    0  0.28554155911E+02 -0.31034445664E+02 -0.63731837135E+02  0.76421356322E+02  0.00000000000E+00 0. -1.
         -5    1    5    5    0  502  0.29097236934E+02  0.60018763383E+02  0.12675842680E+01  0.66877484440E+02  0.47000000000E+01 0.  1.
         11    1    6    6    0    0 -0.56145520506E+02  0.87781401970E+01 -0.10529432597E+02  0.57794845523E+02  0.00000000000E+00 0. -1.
        -12    1    6    6    0    0 -0.58857418251E+01 -0.32784515258E+02 -0.57908211653E+02  0.66804396370E+02  0.00000000000E+00 0.  1.
</event>
<event>
12    1  0.8451514E-002  0.2076750E+03  0.7818608E-02  0.1143481E+00
         21   -1    0    0  503  502  0.00000000000E+00  0.00000000000E+00  0.30857467995E+03  0.30857467995E+03  0.00000000000E+00 0. -1.
         21   -1    0    0  501  503 -0.00000000000E+00 -0.00000000000E+00 -0.22633340607E+03  0.22633340607E+03  0.00000000000E+00 0. -1.
          6    2    1    2  501    0 -0.11436394026E+03  0.18758572514E+02 -0.12449378607E+03  0.24187515989E+03  0.17197062343E+03 0.  0.
         24    2    3    3    0    0 -0.11164330547E+03  0.45634868105E+02 -0.14683270540E+03  0.20650773935E+03  0.80863058278E+02 0.  0.
         -6    2    1    2    0  502  0.11436394026E+03 -0.18758572514E+02  0.20673505995E+03  0.29303292613E+03  0.17233083274E+03 0.  0.
        -24    2    5    5    0    0  0.83799462689E+02  0.51715830722E+02  0.15370583765E+03  0.19957161211E+03  0.80662672534E+02 0.  0.
          5    1    3    3  501    0 -0.27206347968E+01 -0.26876295591E+02  0.22338919330E+02  0.35367420534E+02  0.47000000000E+01 0. -1.
        -13    1    4    4    0    0 -0.24412230286E+02  0.36239534218E+02 -0.95094968214E+02  0.10465330290E+03  0.00000000000E+00 0.  1.
         14    1    4    4    0    0 -0.87231075180E+02  0.93953338869E+01 -0.51737737189E+02  0.10185443645E+03  0.00000000000E+00 0. -1.
         -5    1    5    5    0  502  0.30564477573E+02 -0.70474403235E+02  0.53029222301E+02  0.93461314021E+02  0.47000000000E+01 0.  1.
         13    1    6    6    0    0  0.43247089984E+02  0.53574720671E+00  0.14169632334E+02  0.45512375214E+02  0.00000000000E+00 0. -1.
        -14    1    6    6    0    0  0.40552372706E+02  0.51180083515E+02  0.13953620531E+03  0.15405923690E+03  0.00000000000E+00 0.  1.
</event>
<event>
12    1  0.8451514E-002  0.1796270E+03  0.7818608E-02  0.1168518E+00
         21   -1    0    0  501  502  0.00000000000E+00  0.00000000000E+00  0.33793688622E+02  0.33793688622E+02  0.00000000000E+00 0.  1.
         21   -1    0    0  502  503 -0.00000000000E+00 -0.00000000000E+00 -0.95034158747E+03  0.95034158747E+03  0.00000000000E+00 0.  1.
         -6    2    1    2    0  503 -0.12372408743E+02  0.43838610526E+02 -0.43136112252E+03  0.46726681580E+03  0.17375545705E+03 0.  0.
        -24    2    3    3    0    0 -0.49365429856E+02 -0.94932046258E+01 -0.13908958907E+03  0.16783818427E+03  0.79351595510E+02 0.  0.
          6    2    1    2  501    0  0.12372408743E+02 -0.43838610526E+02 -0.48518677634E+03  0.51686846030E+03  0.17225532518E+03 0.  0.
         24    2    5    5    0    0  0.32234301867E+02 -0.91850708458E+02 -0.32869496575E+03  0.35190957716E+03  0.79525889673E+02 0.  0.
          5    1    5    5  501    0 -0.19861893124E+02  0.48012097932E+02 -0.15649181058E+03  0.16495888314E+03  0.47000000000E+01 0. -1.
        -13    1    6    6    0    0 -0.63300567021E+01 -0.22753060377E+02 -0.14079858287E+02  0.27495704823E+02  0.00000000000E+00 0.  1.
         14    1    6    6    0    0  0.38564358569E+02 -0.69097648081E+02 -0.31461510746E+03  0.32441387234E+03  0.00000000000E+00 0. -1.
         -5    1    3    3    0  503  0.36993021113E+02  0.53331815151E+02 -0.29227153344E+03  0.29942863153E+03  0.47000000000E+01 0.  1.
         11    1    4    4    0    0  0.99738719491E+01 -0.24194614567E+02 -0.16740269028E+02  0.31065963736E+02  0.00000000000E+00 0. -1.
        -12    1    4    4    0    0 -0.59339301805E+02  0.14701409941E+02 -0.12234932005E+03  0.13677222053E+03  0.00000000000E+00 0.  1.
</event>
<event>
12    1  0.8451514E-002  0.2052815E+03  0.7818608E-02  0.1145926E+00
         21   -1    0    0  501  502  0.00000000000E+00  0.00000000000E+00  0.15366270869E+04  0.15366270869E+04  0.00000000000E+00 0.  1.
         21   -1    0    0  502  503 -0.00000000000E+00 -0.00000000000E+00 -0.39549406467E+02  0.39549406467E+02  0.00000000000E+00 0.  1.
         -6    2    1    2    0  503  0.67969601409E+02 -0.80124196519E+02  0.30907675137E+03  0.37103764006E+03  0.17635401476E+03 0.  0.
        -24    2    3    3    0    0  0.82499698532E+02 -0.70711628096E+02  0.32194261011E+03  0.34896185043E+03  0.79504680648E+02 0.  0.
          6    2    1    2  501    0 -0.67969601409E+02  0.80124196519E+02  0.11880009291E+04  0.12051388533E+04  0.17312912728E+03 0.  0.
         24    2    5    5    0    0 -0.15547280826E+01  0.10466237933E+03  0.79766747158E+03  0.80840801780E+03  0.79331564930E+02 0.  0.
          5    1    5    5  501    0 -0.66414873327E+02 -0.24538182809E+02  0.39033345751E+03  0.39673083554E+03  0.47000000000E+01 0. -1.
        -11    1    6    6    0    0  0.37962319969E+02  0.58525865383E+02  0.47138021550E+03  0.47651413644E+03  0.00000000000E+00 0.  1.
         12    1    6    6    0    0 -0.39517048051E+02  0.46136513944E+02  0.32628725608E+03  0.33189388136E+03  0.00000000000E+00 0. -1.
         -5    1    3    3    0  503 -0.14530097123E+02 -0.94125684222E+01 -0.12865858741E+02  0.22075789631E+02  0.47000000000E+01 0.  1.
         11    1    4    4    0    0  0.49811796715E+02  0.45622405901E+01  0.90543047648E+02  0.10344115529E+03  0.00000000000E+00 0. -1.
        -12    1    4    4    0    0  0.32687901817E+02 -0.75273868687E+02  0.23139956246E+03  0.24552069513E+03  0.00000000000E+00 0.  1.
</event>
<event>
12    1  0.8451514E-002  0.1877876E+03  0.7818608E-02  0.1160508E+00
         21   -1    0    0  501  502  0.00000000000E+00  0.00000000000E+00  0.94139217673E+03  0.94139217673E+03  0.00000000000E+00 0.  1.
         21   -1    0    0  502  503 -0.00000000000E+00 -0.00000000000E+00 -0.58037111183E+02  0.58037111183E+02  0.00000000000E+00 0. -1.
         -6    2    1    2    0  503  0.47655145879E+02  0.62040295443E+02  0.14377914094E+03  0.23638490612E+03  0.17054433818E+03 0.  0.
        -24    2    3    3    0    0 -0.23116293681E+02 -0.97606554673E+01  0.84967988270E+02  0.11957388401E+03  0.80303930649E+02 0.  0.
          6    2    1    2  501    0 -0.47655145879E+02 -0.62040295443E+02  0.73957592461E+03  0.76304438179E+03  0.17071663403E+03 0.  0.
         24    2    5    5    0    0 -0.47142932025E+02 -0.25618177428E+01  0.64726201114E+03  0.65312668398E+03  0.73466559118E+02 0.  0.
          5    1    5    5  501    0 -0.51221385418E+00 -0.59478477700E+02  0.92313913466E+02  0.10991769781E+03  0.47000000000E+01 0. -1.
        -13    1    6    6    0    0  0.13756109433E+02  0.14986694458E+02  0.25159016825E+03  0.25241126028E+03  0.00000000000E+00 0.  1.
         14    1    6    6    0    0 -0.60899041458E+02 -0.17548512201E+02  0.39567184290E+03  0.40071542370E+03  0.00000000000E+00 0. -1.
         -5    1    3    3    0  503  0.70771439560E+02  0.71800950911E+02  0.58811152668E+02  0.11681102211E+03  0.47000000000E+01 0.  1.
         13    1    4    4    0    0 -0.35143496718E+02  0.17165171378E+02  0.12061520397E+02  0.40929069673E+02  0.00000000000E+00 0. -1.
        -14    1    4    4    0    0  0.12027203038E+02 -0.26925826845E+02  0.72906467873E+02  0.78644814336E+02  0.00000000000E+00 0.  1.
</event>
<event>
12    1  0.8451514E-002  0.2323700E+03  0.7818608E-02  0.1125219E+00
         21   -1    0    0  503  502  0.00000000000E+00  0.00000000000E+00  0.79260048181E+02  0.79260048181E+02  0.00000000000E+00 0. -1.
         21   -1    0    0  501  503 -0.00000000000E+00 -0.00000000000E+00 -0.68337369407E+03  0.68337369407E+03  0.00000000000E+00 0. -1.
          6    2    1    2  501    0  0.14796457074E+03 -0.47089798096E+02 -0.33720962986E+03  0.40875019671E+03  0.17104217481E+03 0.  0.
         24    2    3    3    0    0  0.10556966040E+03 -0.77280030535E+02 -0.31844974393E+03  0.35322721159E+03  0.79006754647E+02 0.  0.
         -6    2    1    2    0  502 -0.14796457074E+03  0.47089798096E+02 -0.26690401603E+03  0.35388354554E+03  0.17287234235E+03 0.  0.
        -24    2    5    5    0    0 -0.47784074656E+02 -0.74991573476E+01 -0.20177103109E+03  0.22242830000E+03  0.80145146473E+02 0.  0.
          5    1    3    3  501    0  0.42394910336E+02  0.30190232439E+02 -0.18759885928E+02  0.55522985125E+02  0.47000000000E+01 0. -1.
        -11    1    4    4    0    0  0.29890095149E+02 -0.49103301731E+02 -0.21174438074E+03  0.21940883028E+03  0.00000000000E+00 0.  1.
         12    1    4    4    0    0  0.75679565253E+02 -0.28176728804E+02 -0.10670536319E+03  0.13381838131E+03  0.00000000000E+00 0. -1.
         -5    1    5    5    0  502 -0.10018049608E+03  0.54588955444E+02 -0.65132984940E+02  0.13145524554E+03  0.47000000000E+01 0.  1.
         13    1    6    6    0    0 -0.64962879888E+02  0.10779933159E+02 -0.11980775269E+03  0.13671240005E+03  0.00000000000E+00 0. -1.
        -14    1    6    6    0    0  0.17178805232E+02 -0.18279090507E+02 -0.81963278394E+02  0.85715899949E+02  0.00000000000E+00 0.  1.
</event>
<event>
12    1  0.8451514E-002  0.2058647E+03  0.7818608E-02  0.1145095E+00
         21   -1    0    0  503  502  0.00000000000E+00  0.00000000000E+00  0.30393581598E+02  0.30393581598E+02  0.00000000000E+00 0. -1.
         21   -1    0    0  501  503 -0.00000000000E+00 -0.00000000000E+00 -0.22504132423E+04  0.22504132423E+04  0.00000000000E+00 0.  1.
          6    2    1    2  501    0  0.82534522627E+02  0.76547379011E+02 -0.18179800107E+04  0.18295987576E+04  0.17236254187E+03 0.  0.
         24    2    3    3    0    0  0.76450338487E+02  0.22137769276E+01 -0.14637347832E+04  0.14675569466E+04  0.73173225557E+02 0.  0.
         -6    2    1    2    0  502 -0.82534522627E+02 -0.76547379011E+02 -0.40203964991E+03  0.45120806621E+03  0.17111805940E+03 0.  0.
        -24    2    5    5    0    0 -0.25781529037E+02 -0.22361204938E+02 -0.71606506161E+02  0.11155354139E+03  0.78434623388E+02 0.  0.
          5    1    3    3  501    0  0.60841841398E+01  0.74333602083E+02 -0.35424522752E+03  0.36204181101E+03  0.47000000000E+01 0. -1.
        -11    1    4    4    0    0  0.58382932517E+02 -0.23631190791E+01 -0.46611473093E+03  0.46976280561E+03  0.00000000000E+00 0.  1.
         12    1    4    4    0    0  0.18067405971E+02  0.45768960067E+01 -0.99762005229E+03  0.99779414103E+03  0.00000000000E+00 0. -1.
         -5    1    5    5    0  502 -0.56752993590E+02 -0.54186174072E+02 -0.33043314375E+03  0.33965452482E+03  0.47000000000E+01 0.  1.
         13    1    6    6    0    0 -0.32819421658E+02  0.19816892145E+02 -0.51757392800E+02  0.64410025320E+02  0.00000000000E+00 0. -1.
        -14    1    6    6    0    0  0.70378926208E+01 -0.42178097083E+02 -0.19849113360E+02  0.47143516069E+02  0.00000000000E+00 0.  1.
</event>
<event>
12    1  0.8451514E-002  0.1862700E+03  0.7818608E-02  0.1162485E+00
         21   -1    0    0  501  502  0.00000000000E+00  0.00000000000E+00  0.86135258030E+02  0.86135258030E+02  0.00000000000E+00 0. -1.
         21   -1    0    0  502  503 -0.00000000000E+00 -0.00000000000E+00 -0.47718389570E+03  0.47718389570E+03  0.00000000000E+00 0. -1.
         -6    2    1    2    0  503  0.22141913290E+02  0.61928044517E+02 -0.30973084253E+03  0.36007280204E+03  0.17144643749E+03 0.  0.
        -24    2    3    3    0    0 -0.47352128053E+02  0.38568923001E+02 -0.23624938230E+03  0.25616570248E+03  0.77957107679E+02 0.  0.
          6    2    1    2  501    0 -0.22141913290E+02 -0.61928044517E+02 -0.81317795140E+02  0.20324635170E+03  0.17427320118E+03 0.  0.
         24    2    5    5    0    0  0.42329881399E+02 -0.54500459846E+01 -0.66030047562E+02  0.11605585993E+03  0.85366700664E+02 0.  0.
          5    1    5    5  501    0 -0.64471794689E+02 -0.56477998532E+02 -0.15287747578E+02  0.87190491768E+02  0.47000000000E+01 0. -1.
        -11    1    6    6    0    0 -0.42985200000E+01 -0.19831510016E+01 -0.69039870073E+02  0.69201978452E+02  0.00000000000E+00 0.  1.
         12    1    6    6    0    0  0.46628401399E+02 -0.34668949830E+01  0.30098225108E+01  0.46853881476E+02  0.00000000000E+00 0. -1.
         -5    1    3    3    0  503  0.69494041343E+02  0.23359121516E+02 -0.73481460233E+02  0.10390709956E+03  0.47000000000E+01 0.  1.
         11    1    4    4    0    0 -0.16802376468E+02  0.59553078320E+02 -0.14240216900E+03  0.15526514976E+03  0.00000000000E+00 0. -1.
        -12    1    4    4    0    0 -0.30549751585E+02 -0.20984155319E+02 -0.93847213296E+02  0.10090055272E+03  0.00000000000E+00 0.  1.
</event>
<event>
12    1  0.8451514E-002  0.2050763E+03  0.7818608E-02  0.1145835E+00
         21   -1    0    0  501  502  0.00000000000E+00  0.00000000000E+00  0.43446714812E+02  0.43446714812E+02  0.00000000000E+00 0.  1.
         21   -1    0    0  502  503 -0.00000000000E+00 -0.00000000000E+00 -0.96103924359E+03  0.96103924359E+03  0.00000000000E+00 0.  1.
         -6    2    1    2    0  503  0.10847464746E+03  0.66587035012E+01 -0.45067750901E+03  0.49451937881E+03  0.17212818309E+03 0.  0.
        -24    2    3    3    0    0  0.19015898184E+02  0.48652395670E+02 -0.29791717170E+03  0.31251897041E+03  0.78643535517E+02 0.  0.
          6    2    1    2  501    0 -0.10847464746E+03 -0.66587035012E+01 -0.46691501977E+03  0.50996657960E+03  0.17391144053E+03 0.  0.
         24    2    5    5    0    0 -0.21138192789E+02  0.55333128043E+02 -0.22993658506E+03  0.24986753691E+03  0.77809861819E+02 0.  0.
          5    1    5    5  501    0 -0.87336454671E+02 -0.61991831544E+02 -0.23697843471E+03  0.26009904269E+03  0.47000000000E+01 0. -1.
        -11    1    6    6    0    0 -0.33922795137E+02 -0.65894609405E+01 -0.82458313619E+02  0.89406658087E+02  0.00000000000E+00 0.  1.
         12    1    6    6    0    0  0.12784602348E+02  0.61922588984E+02 -0.14747827144E+03  0.16046087882E+03  0.00000000000E+00 0. -1.
         -5    1    3    3    0  503  0.89458749277E+02 -0.41993692169E+02 -0.15276033731E+03  0.18200040840E+03  0.47000000000E+01 0.  1.
         11    1    4    4    0    0 -0.26050361853E+02  0.42957135314E+01 -0.48607064915E+02  0.55314747284E+02  0.00000000000E+00 0. -1.
        -12    1    4    4    0    0  0.45066260037E+02  0.44356682139E+02 -0.24931010679E+03  0.25720422312E+03  0.00000000000E+00 0.  1.
</event>
<event>
12    1  0.8451514E-002  0.1932074E+03  0.7818608E-02  0.1156551E+00
         21   -1    0    0  501  502  0.00000000000E+00  0.00000000000E+00  0.38239746561E+03  0.38239746561E+03  0.00000000000E+00 0.  1.
         21   -1    0    0  502  503 -0.00000000000E+00 -0.00000000000E+00 -0.12538087356E+03  0.12538087356E+03  0.00000000000E+00 0.  1.
         -6    2    1    2    0  503  0.53520262334E+02  0.58090629401E+02  0.25140132268E+03  0.31448933126E+03  0.17164490884E+03 0.  0.
        -24    2    3    3    0    0  0.66733292988E+02 -0.22756948116E+02  0.86970478991E+02  0.13072179516E+03  0.67476754771E+02 0.  0.
          6    2    1    2  501    0 -0.53520262334E+02 -0.58090629401E+02  0.56152693703E+01  0.19328900791E+03  0.17632404720E+03 0.  0.
         24    2    5    5    0    0  0.31612072301E+02 -0.56203524711E+02 -0.19081396357E+02  0.10450223602E+03  0.79990364047E+02 0.  0.
          5    1    5    5  501    0 -0.85132334636E+02 -0.18871046907E+01  0.24696665727E+02  0.88786771890E+02  0.47000000000E+01 0. -1.
        -11    1    6    6    0    0 -0.12201521023E+01 -0.64675896621E+02 -0.26308841242E+02  0.69832768113E+02  0.00000000000E+00 0.  1.
         12    1    6    6    0    0  0.32832224404E+02  0.84723719102E+01  0.72274448855E+01  0.34669467903E+02  0.00000000000E+00 0. -1.
         -5    1    3    3    0  503 -0.13213030653E+02  0.80847577517E+02  0.16443084368E+03  0.18376753610E+03  0.47000000000E+01 0.  1.
         13    1    4    4    0    0  0.47858570410E+02  0.11103174261E+02  0.75888366427E+02  0.90403359447E+02  0.00000000000E+00 0. -1.
        -14    1    4    4    0    0  0.18874722578E+02 -0.33860122377E+02  0.11082112564E+02  0.40318435717E+02  0.00000000000E+00 0.  1.
</event>
<event>
12    1  0.8451514E-002  0.1981198E+03  0.7818608E-02  0.1152023E+00
         21   -1    0    0  501  502  0.00000000000E+00  0.00000000000E+00  0.22499953376E+03  0.22499953376E+03  0.00000000000E+00 0. -1.
         21   -1    0    0  502  503 -0.00000000000E+00 -0.00000000000E+00 -0.20330468980E+03  0.20330468980E+03  0.00000000000E+00 0.  1.
         -6    2    1    2    0  503  0.45696380145E+01 -0.96452911878E+02 -0.73579141672E+02  0.21134181912E+03  0.17299545837E+03 0.  0.
        -24    2    3    3    0    0 -0.34270357448E+02  0.48271556675E+01 -0.16878750839E+02  0.88854180352E+02  0.80077551815E+02 0.  0.
          6    2    1    2  501    0 -0.45696380145E+01  0.96452911878E+02  0.95273985632E+02  0.21696240443E+03  0.16932662755E+03 0.  0.
         24    2    5    5    0    0 -0.21039097910E+01  0.77528202254E+02  0.13406306719E+03  0.17347784053E+03  0.78144779669E+02 0.  0.
          5    1    5    5  501    0 -0.24657282236E+01  0.18924709624E+02 -0.38789081557E+02  0.43484563905E+02  0.47000000000E+01 0. -1.
        -13    1    6    6    0    0 -0.39640299965E+02  0.32739495404E+02  0.68570173329E+02  0.85703539081E+02  0.00000000000E+00 0.  1.
         14    1    6    6    0    0  0.37536390174E+02  0.44788706850E+02  0.65492893860E+02  0.87774301448E+02  0.00000000000E+00 0. -1.
         -5    1    3    3    0  503  0.38839995463E+02 -0.10128006755E+03 -0.56700390833E+02  0.12248763876E+03  0.47000000000E+01 0.  1.
         13    1    4    4    0    0 -0.41264175001E+02  0.12225221286E+02  0.22231970538E+02  0.48440155739E+02  0.00000000000E+00 0. -1.
        -14    1    4    4    0    0  0.69938175526E+01 -0.73980656182E+01 -0.39110721377E+02  0.40414024614E+02  0.00000000000E+00 0.  1.
</event>
<event>
12    1  0.8451514E-002  0.1886196E+03  0.7818608E-02  0.1159737E+00
         21   -1    0    0  501  502  0.00000000000E+00  0.00000000000E+00  0.13640357773E+03  0.13640357773E+03  0.00000000000E+00 0.  1.
         21   -1    0    0  502  503 -0.00000000000E+00 -0.00000000000E+00 -0.31453069888E+03  0.31453069888E+03  0.00000000000E+00 0.  1.
         -6    2    1    2    0  503  0.38111772713E+02  0.66460620352E+02  0.42144259599E+01  0.18866665332E+03  0.17235957592E+03 0.  0.
        -24    2    3    3    0    0 -0.16684919430E+02  0.22360891249E+02 -0.50105102697E+02  0.99671345742E+02  0.81519689964E+02 0.  0.
          6    2    1    2  501    0 -0.38111772713E+02 -0.66460620352E+02 -0.18234154711E+03  0.26226762329E+03  0.17223920909E+03 0.  0.
         24    2    5    5    0    0 -0.29276710741E+02 -0.65701112231E+01 -0.18430585072E+03  0.20151501106E+03  0.75758569941E+02 0.  0.
          5    1    5    5  501    0 -0.88350619724E+01 -0.59890509129E+02  0.19643036128E+01  0.60752612227E+02  0.47000000000E+01 0. -1.
        -11    1    6    6    0    0  0.32900608043E+01 -0.18317396959E+02 -0.55256362951E+01  0.19413505297E+02  0.00000000000E+00 0.  1.
         12    1    6    6    0    0 -0.32566771545E+02  0.11747285736E+02 -0.17878021443E+03  0.18210150577E+03  0.00000000000E+00 0. -1.
         -5    1    3    3    0  503  0.54796692143E+02  0.44099729103E+02  0.54319528656E+02  0.88995307575E+02  0.47000000000E+01 0.  1.
         11    1    4    4    0    0  0.13089758696E+02  0.91220278606E+01  0.18072179982E+02  0.24107195281E+02  0.00000000000E+00 0. -1.
        -12    1    4    4    0    0 -0.29774678126E+02  0.13238863388E+02 -0.68177282679E+02  0.75564150461E+02  0.00000000000E+00 0.  1.
</event>
<event>
12    1  0.8451514E-002  0.2214056E+03  0.7818608E-02  0.1133413E+00
         21   -1    0    0  503  502  0.00000000000E+00  0.00000000000E+00  0.18783762266E+04  0.18783762266E+04  0.00000000000E+00 0. -1.
         21   -1    0    0  501  503 -0.00000000000E+00 -0.00000000000E+00 -0.32867914097E+02  0.32867914097E+02  0.00000000000E+00 0. -1.
          6    2    1    2  501    0 -0.12433043332E+03 -0.61166214537E+02  0.48265984509E+03  0.53101880033E+03  0.17268780442E+03 0.  0.
         24    2    3    3    0    0 -0.79812461152E+01 -0.45340571238E+02  0.13892451522E+03  0.16775078447E+03  0.81980711579E+02 0.  0.
         -6    2    1    2    0  502  0.12433043332E+03  0.61166214537E+02  0.13628484674E+04  0.13802253403E+04  0.16872072367E+03 0.  0.
        -24    2    5    5    0    0  0.30688281607E+02  0.77718865979E+02  0.91226600892E+03  0.91969359906E+03  0.81394424607E+02 0.  0.
          5    1    3    3  501    0 -0.11634918721E+03 -0.15825643299E+02  0.34373532987E+03  0.36326801586E+03  0.47000000000E+01 0. -1.
        -13    1    4    4    0    0 -0.35778060852E+02 -0.53034296062E+02  0.82659633374E+02  0.10452426123E+03  0.00000000000E+00 0.  1.
         14    1    4    4    0    0  0.27796814736E+02  0.76937248235E+01  0.56264881849E+02  0.63226523237E+02  0.00000000000E+00 0. -1.
         -5    1    5    5    0  502  0.93642151718E+02 -0.16552651443E+02  0.45058245845E+03  0.46053174127E+03  0.47000000000E+01 0.  1.
         11    1    6    6    0    0  0.11146121730E+02  0.18332885069E+02  0.63928736464E+03  0.63964729757E+03  0.00000000000E+00 0. -1.
        -12    1    6    6    0    0  0.19542159877E+02  0.59385980910E+02  0.27297864428E+03  0.28004630148E+03  0.00000000000E+00 0.  1.
</event>
<event>
12    1  0.8451514E-002  0.2348183E+03  0.7818608E-02  0.1123393E+00
         21   -1    0    0  501  502  0.00000000000E+00  0.00000000000E+00  0.38509104902E+03  0.38509104902E+03  0.00000000000E+00 0. -1.
         21   -1    0    0  502  503 -0.00000000000E+00 -0.00000000000E+00 -0.14547081123E+03  0.14547081123E+03  0.00000000000E+00 0.  1.
         -6    2    1    2    0  503 -0.37814845162E+02  0.15450029601E+03  0.83945717832E+02  0.24882760567E+03  0.17195345248E+03 0.  0.
        -24    2    3    3    0    0 -0.40454153594E+02  0.16236174199E+03  0.11728799477E+03  0.21414957641E+03  0.64075686158E+02 0.  0.
          6    2    1    2  501    0  0.37814845162E+02 -0.15450029601E+03  0.15567451996E+03  0.28173425458E+03  0.17274064391E+03 0.  0.
         24    2    5    5    0    0 -0.22368876263E+02 -0.66404355708E+02  0.13285906990E+03  0.17252981427E+03  0.84882856185E+02 0.  0.
          5    1    5    5  501    0  0.60183721425E+02 -0.88095940303E+02  0.22815450059E+02  0.10920444031E+03  0.47000000000E+01 0. -1.
        -11    1    6    6    0    0 -0.33234757262E+02 -0.62191303682E+02  0.44448664787E+02  0.83354610821E+02  0.00000000000E+00 0.  1.
         12    1    6    6    0    0  0.10865880999E+02 -0.42130520259E+01  0.88410405115E+02  0.89175203447E+02  0.00000000000E+00 0. -1.
         -5    1    3    3    0  503  0.26393084323E+01 -0.78614459761E+01 -0.33342276940E+02  0.34678029260E+02  0.47000000000E+01 0.  1.
         13    1    4    4    0    0 -0.38510331548E+02  0.37782891475E+02  0.27354060393E+02  0.60488322378E+02  0.00000000000E+00 0. -1.
        -14    1    4    4    0    0 -0.19438220466E+01  0.12457885051E+03  0.89933934379E+02  0.15366125404E+03  0.00000000000E+00 0.  1.
</event>
<event>
12    1  0.8451514E-002  0.2189689E+03  0.7818608E-02  0.1135482E+00
         21   -1    0    0  501  502  0.00000000000E+00  0.00000000000E+00  0.32859727547E+03  0.32859727547E+03  0.00000000000E+00 0. -1.
         21   -1    0    0  502  503 -0.00000000000E+00 -0.00000000000E+00 -0.14969619110E+03  0.14969619110E+03  0.00000000000E+00 0.  1.
         -6    2    1    2    0  503 -0.11829905066E+03  0.61882155924E+02  0.38087516131E+02  0.21795549717E+03  0.16801747901E+03 0.  0.
        -24    2    3    3    0    0 -0.14973063330E+02 -0.12532840149E+02 -0.13114181984E+02  0.80632683376E+02  0.77125761919E+02 0.  0.
          6    2    1    2  501    0  0.11829905066E+03 -0.61882155924E+02  0.14081356824E+03  0.26033796940E+03  0.17356074067E+03 0.  0.
         24    2    5    5    0    0  0.69057347433E+02 -0.40911423504E+02  0.58603883729E+01  0.11508313226E+03  0.82262514985E+02 0.  0.
          5    1    5    5  501    0  0.49241703226E+02 -0.20970732420E+02  0.13495317987E+03  0.14525483714E+03  0.47000000000E+01 0. -1.
        -13    1    6    6    0    0 -0.16023065675E+02 -0.22340194490E+02 -0.24643203988E+01  0.27602460008E+02  0.00000000000E+00 0.  1.
         14    1    6    6    0    0  0.85080413109E+02 -0.18571229014E+02  0.83247087717E+01  0.87480672254E+02  0.00000000000E+00 0. -1.
         -5    1    3    3    0  503 -0.10332598733E+03  0.74414996073E+02  0.51201698114E+02  0.13732281379E+03  0.47000000000E+01 0.  1.
         13    1    4    4    0    0  0.29798909562E+02 -0.89804564114E+01 -0.17156813889E+02  0.35538428092E+02  0.00000000000E+00 0. -1.
        -14    1    4    4    0    0 -0.44771972892E+02 -0.35523837373E+01  0.40426319052E+01  0.45094255284E+02  0.00000000000E+00 0.  1.
</event>
<event>
12    1  0.8451514E-002  0.1759377E+03  0.7818608E-02  0.1172069E+00
         21   -1    0    0  501  502  0.00000000000E+00  0.00000000000E+00  0.57644850595E+02  0.57644850595E+02  0.00000000000E+00 0. -1.
         21   -1    0    0  502  503 -0.00000000000E+00 -0.00000000000E+00 -0.14062104007E+04  0.14062104007E+04  0.00000000000E+00 0. -1.
         -6    2    1    2    0  503 -0.24041791784E+02  0.18689897240E+02 -0.12516521851E+04  0.12639569924E+04  0.17328233067E+03 0.  0.
        -24    2    3    3    0    0 -0.26727611187E+02 -0.47922028131E+02 -0.38775725346E+03  0.39748085010E+03  0.68003327924E+02 0.  0.
          6    2    1    2  501    0  0.24041791784E+02 -0.18689897240E+02 -0.96913364989E+02  0.19989825890E+03  0.17216211426E+03 0.  0.
         24    2    5    5    0    0 -0.49326257511E+01 -0.67527254293E+02 -0.97238688850E+02  0.14291755908E+03  0.79911233354E+02 0.  0.
          5    1    5    5  501    0  0.28974417535E+02  0.48837357052E+02  0.32532386042E+00  0.56980699811E+02  0.47000000000E+01 0. -1.
        -13    1    6    6    0    0 -0.29624634771E+01 -0.74876142190E+02 -0.39554045412E+02  0.84733319111E+02  0.00000000000E+00 0.  1.
         14    1    6    6    0    0 -0.19701622740E+01  0.73488878971E+01 -0.57684643438E+02  0.58184239973E+02  0.00000000000E+00 0. -1.
         -5    1    3    3    0  503  0.26858194037E+01  0.66611925372E+02 -0.86389493163E+03  0.86647614227E+03  0.47000000000E+01 0.  1.
         13    1    4    4    0    0 -0.26942171388E+01 -0.15122046955E+02 -0.30386953230E+03  0.30425750240E+03  0.00000000000E+00 0. -1.
        -14    1    4    4    0    0 -0.24033394049E+02 -0.32799981176E+02 -0.83887721158E+02  0.93223347696E+02  0.00000000000E+00 0.  1.
</event>
<event>
12    1  0.8451514E-002  0.2023299E+03  0.7818608E-02  0.1147991E+00
         21   -1    0    0  501  502  0.00000000000E+00  0.00000000000E+00  0.16231948300E+04  0.16231948300E+04  0.00000000000E+00 0.  1.
         21   -1    0    0  502  503 -0.00000000000E+00 -0.00000000000E+00 -0.12888043854E+03  0.12888043854E+03  0.00000000000E+00 0.  1.
         -6    2    1    2    0  503 -0.95300127229E+02  0.44566178590E+02 -0.39314868967E+02  0.20515700707E+03  0.17168424536E+03 0.  0.
        -24    2    3    3    0    0  0.48266099206E+01  0.55845118484E+02 -0.31586507537E+01  0.98003191960E+02  0.80328544976E+02 0.  0.
          6    2    1    2  501    0  0.95300127229E+02 -0.44566178590E+02  0.15336292604E+04  0.15469182615E+04  0.17282690964E+03 0.  0.
         24    2    5    5    0    0  0.47392441158E+02 -0.84184203558E+02  0.12628945301E+04  0.12690979626E+04  0.79837464728E+02 0.  0.
          5    1    5    5  501    0  0.47907686071E+02  0.39618024968E+02  0.27073473032E+03  0.27782029891E+03  0.47000000000E+01 0. -1.
        -13    1    6    6    0    0  0.33462047927E+02 -0.97289811336E+02  0.93437817737E+03  0.94002531582E+03  0.00000000000E+00 0.  1.
         14    1    6    6    0    0  0.13930393231E+02  0.13105607778E+02  0.32851635274E+03  0.32907264673E+03  0.00000000000E+00 0. -1.
         -5    1    3    3    0  503 -0.10012673715E+03 -0.11278939894E+02 -0.36156218214E+02  0.10715381511E+03  0.47000000000E+01 0.  1.
         13    1    4    4    0    0  0.18325750341E+02  0.82816240704E+01  0.31677112858E+02  0.37521432567E+02  0.00000000000E+00 0. -1.
        -14    1    4    4    0    0 -0.13499140420E+02  0.47563494414E+02 -0.34835763612E+02  0.60481759394E+02  0.00000000000E+00 0.  1.
</event>
<event>
12    1  0.8451514E-002  0.2100944E+03  0.7818608E-02  0.1141618E+00
         21   -1    0    0  501  502  0.00000000000E+00  0.00000000000E+00  0.10347305732E+03  0.10347305732E+03  0.00000000000E+00 0. -1.
         21   -1    0    0  502  503 -0.00000000000E+00 -0.00000000000E+00 -0.42682771661E+03  0.42682771661E+03  0.00000000000E+00 0. -1.
         -6    2    1    2    0  503  0.94955923582E+02  0.72676865702E+02 -0.14598217509E+03  0.25583290122E+03  0.17274583547E+03 0.  0.
        -24    2    3    3    0    0  0.12571839480E+02 -0.23504338043E+02 -0.44538669319E+02  0.93503494985E+02  0.77773423835E+02 0.  0.
          6    2    1    2  501    0 -0.94955923582E+02 -0.72676865702E+02 -0.17737248421E+03  0.27446787271E+03  0.17196819696E+03 0.  0.
         24    2    5    5    0    0 -0.58491820905E+01 -0.22338653902E+01 -0.12615552324E+03  0.14977827907E+03  0.80492942240E+02 0.  0.
          5    1    5    5  501    0 -0.89106741491E+02 -0.70443000311E+02 -0.51216960966E+02  0.12468959364E+03  0.47000000000E+01 0. -1.
        -11    1    6    6    0    0  0.46710330405E+01 -0.20949191961E+02  0.34740417434E+00  0.21466436201E+02  0.00000000000E+00 0.  1.
         12    1    6    6    0    0 -0.10520215131E+02  0.18715326571E+02 -0.12650292742E+03  0.12831184287E+03  0.00000000000E+00 0. -1.
         -5    1    3    3    0  503  0.82384084102E+02  0.96181203744E+02 -0.10144350577E+03  0.16232940624E+03  0.47000000000E+01 0.  1.
         13    1    4    4    0    0  0.10159551898E+02  0.28201616109E+02 -0.21248475255E+02  0.36742963225E+02  0.00000000000E+00 0. -1.
        -14    1    4    4    0    0  0.24122875819E+01 -0.51705954152E+02 -0.23290194065E+02  0.56760531760E+02  0.00000000000E+00 0.  1.
</event>
<event>
12    1  0.8451514E-002  0.1746966E+03  0.7818608E-02  0.1173443E+00
         21   -1    0    0  501  502  0.00000000000E+00  0.00000000000E+00  0.37556021999E+03  0.37556021999E+03  0.00000000000E+00 0. -1.
         21   -1    0    0  502  503 -0.00000000000E+00 -0.00000000000E+00 -0.12789280717E+03  0.12789280717E+03  0.00000000000E+00 0. -1.
         -6    2    1    2    0  503  0.58677043529E+01  0.19128446742E+02 -0.29014293999E+02  0.17708960411E+03  0.17354702879E+03 0.  0.
        -24    2    3    3    0    0  0.30067986367E+02 -0.21191046068E+02 -0.71338820993E+02  0.11364852330E+03  0.80458779692E+02 0.  0.
          6    2    1    2  501    0 -0.58677043529E+01 -0.19128446742E+02  0.27668170681E+03  0.32636342304E+03  0.17193018811E+03 0.  0.
         24    2    5    5    0    0  0.31446396593E+02  0.30259872703E+02  0.82688064201E+02  0.12267942367E+03  0.79425369217E+02 0.  0.
          5    1    5    5  501    0 -0.37314100946E+02 -0.49388319445E+02  0.19399364261E+03  0.20368399937E+03  0.47000000000E+01 0. -1.
        -13    1    6    6    0    0  0.13491871039E+02  0.64723553459E+01 -0.14613506519E+02  0.20915939870E+02  0.00000000000E+00 0.  1.
         14    1    6    6    0    0  0.17954525553E+02  0.23787517357E+02  0.97301570721E+02  0.10176348380E+03  0.00000000000E+00 0. -1.
         -5    1    3    3    0  503 -0.24200282014E+02  0.40319492810E+02  0.42324526994E+02  0.63441080817E+02  0.47000000000E+01 0.  1.
         11    1    4    4    0    0  0.50061123582E+02  0.62489992374E+01 -0.58750078485E+02  0.77438606700E+02  0.00000000000E+00 0. -1.
        -12    1    4    4    0    0 -0.19993137215E+02 -0.27440045305E+02 -0.12588742508E+02  0.36209916598E+02  0.00000000000E+00 0.  1.
</event>
<event>
12    1  0.8451514E-002  0.1974246E+03  0.7818608E-02  0.1152052E+00
         21   -1    0    0  503  502  0.00000000000E+00  0.00000000000E+00  0.58682992117E+03  0.58682992117E+03  0.00000000000E+00 0.  1.
         21   -1    0    0  501  503 -0.00000000000E+00 -0.00000000000E+00 -0.44078593530E+03  0.44078593530E+03  0.00000000000E+00 0.  1.
          6    2    1    2  501    0  0.81462548990E+02  0.48219427043E+02 -0.40063117660E+03  0.44638423754E+03  0.17260442586E+03 0.  0.
         24    2    3    3    0    0  0.27865966071E+02  0.94529109290E+02 -0.26294583415E+03  0.29147612317E+03  0.78138045244E+02 0.  0.
         -6    2    1    2    0  502 -0.81462548990E+02 -0.48219427043E+02  0.54667516248E+03  0.58123161893E+03  0.17324895828E+03 0.  0.
        -24    2    5    5    0    0 -0.24704646728E+02 -0.90552235016E+02  0.30456472873E+03  0.32893600218E+03  0.81419854525E+02 0.  0.
          5    1    3    3  501    0  0.53596582919E+02 -0.46309682247E+02 -0.13768534245E+03  0.15490811437E+03  0.47000000000E+01 0. -1.
        -13    1    4    4    0    0  0.44079559676E+02  0.35115284312E+02 -0.17690832281E+03  0.18566810564E+03  0.00000000000E+00 0.  1.
         14    1    4    4    0    0 -0.16213593605E+02  0.59413824977E+02 -0.86037511342E+02  0.10580801753E+03  0.00000000000E+00 0. -1.
         -5    1    5    5    0  502 -0.56757902263E+02  0.42332807973E+02  0.24211043375E+03  0.25229561675E+03  0.47000000000E+01 0.  1.
         13    1    6    6    0    0 -0.13609433066E+02 -0.37931870283E+02  0.32968687865E+02  0.52067051300E+02  0.00000000000E+00 0. -1.
        -14    1    6    6    0    0 -0.11095213662E+02 -0.52620364733E+02  0.27159604086E+03  0.27686895088E+03  0.00000000000E+00 0.  1.
</event>
<event>
12    1  0.8451514E-002  0.1887376E+03  0.7818608E-02  0.1163588E+00
         21   -1    0    0  503  502  0.00000000000E+00  0.00000000000E+00  0.88325827343E+03  0.88325827343E+03  0.00000000000E+00 0.  1.
         21   -1    0    0  501  503 -0.00000000000E+00 -0.00000000000E+00 -0.12759022524E+03  0.12759022524E+03  0.00000000000E+00 0.  1.
          6    2    1    2  501    0 -0.16081935985E+02  0.10607635212E+02 -0.43233978657E+02  0.19362609244E+03  0.18775179406E+03 0.  0.
         24    2    3    3    0    0 -0.30675065925E+02 -0.56208115960E+02 -0.65650577116E+02  0.12150190833E+03  0.79701966623E+02 0.  0.
         -6    2    1    2    0  502  0.16081935985E+02 -0.10607635212E+02  0.79890202685E+03  0.81722240623E+03  0.17098790060E+03 0.  0.
        -24    2    5    5    0    0  0.36548615292E+02 -0.48749551457E+02  0.72010844620E+03  0.72719902544E+03  0.80931627139E+02 0.  0.
          5    1    3    3  501    0  0.14593129941E+02  0.66815751172E+02  0.22416598460E+02  0.72124184104E+02  0.47000000000E+01 0. -1.
        -11    1    4    4    0    0  0.22421841572E+02 -0.76181617412E+01 -0.37223015267E+02  0.44117210172E+02  0.00000000000E+00 0.  1.
         12    1    4    4    0    0 -0.53096907497E+02 -0.48589954219E+02 -0.28427561850E+02  0.77384698161E+02  0.00000000000E+00 0. -1.
         -5    1    5    5    0  502 -0.20466679307E+02  0.38141916245E+02  0.78793580649E+02  0.90023380786E+02  0.47000000000E+01 0.  1.
         11    1    6    6    0    0  0.13927031942E+02 -0.68744863875E+02  0.45456985462E+03  0.45994953121E+03  0.00000000000E+00 0. -1.
        -12    1    6    6    0    0  0.22621583350E+02  0.19995312418E+02  0.26553859158E+03  0.26724949423E+03  0.00000000000E+00 0.  1.
</event>
<event>
12    1  0.8451514E-002  0.2186601E+03  0.7818608E-02  0.1135977E+00
         21   -1    0    0  501  502  0.00000000000E+00  0.00000000000E+00  0.57919165584E+02  0.57919165584E+02  0.00000000000E+00 0. -1.
         21   -1    0    0  502  503 -0.00000000000E+00 -0.00000000000E+00 -0.84151457502E+03  0.84151457502E+03  0.00000000000E+00 0. -1.
         -6    2    1    2    0  503  0.10924943007E+03  0.77659007668E+02 -0.48173650610E+03  0.52669922275E+03  0.16545588686E+03 0.  0.
        -24    2    3    3    0    0  0.31581988635E+02  0.99737353452E+02 -0.27654589771E+03  0.30614319681E+03  0.79379227317E+02 0.  0.
          6    2    1    2  501    0 -0.10924943007E+03 -0.77659007668E+02 -0.30185890334E+03  0.37273451785E+03  0.17275955497E+03 0.  0.
         24    2    5    5    0    0 -0.12737616334E+03 -0.11475779768E+02 -0.19686056133E+03  0.24721344417E+03  0.77485649395E+02 0.  0.
          5    1    5    5  501    0  0.18126733274E+02 -0.66183227900E+02 -0.10499834200E+03  0.12552107368E+03  0.47000000000E+01 0. -1.
        -13    1    6    6    0    0 -0.89132912269E+02  0.15741690214E+02 -0.78232214601E+02  0.11963593215E+03  0.00000000000E+00 0.  1.
         14    1    6    6    0    0 -0.38243251070E+02 -0.27217469982E+02 -0.11862834673E+03  0.12757751202E+03  0.00000000000E+00 0. -1.
         -5    1    3    3    0  503  0.77667441431E+02 -0.22078345784E+02 -0.20519060838E+03  0.22055602594E+03  0.47000000000E+01 0.  1.
         11    1    4    4    0    0  0.31653357514E+02  0.87975299620E+02 -0.27889413169E+03  0.29414881451E+03  0.00000000000E+00 0. -1.
        -12    1    4    4    0    0 -0.71368879265E-01  0.11762053832E+02  0.23482339793E+01  0.11994382297E+02  0.00000000000E+00 0.  1.
</event>
<event>
12    1  0.8451514E-002  0.2097819E+03  0.7818608E-02  0.1141940E+00
         21   -1    0    0  503  502  0.00000000000E+00  0.00000000000E+00  0.89949661549E+03  0.89949661549E+03  0.00000000000E+00 0.  1.
         21   -1    0    0  501  503 -0.00000000000E+00 -0.00000000000E+00 -0.49968368061E+02  0.49968368061E+02  0.00000000000E+00 0.  1.
          6    2    1    2  501    0 -0.11320922730E+03 -0.39269061774E+02  0.34783313085E+03  0.40567603377E+03  0.17095838412E+03 0.  0.
         24    2    3    3    0    0 -0.31184124069E+02 -0.39943253892E+02  0.75118869623E+02  0.12085375520E+03  0.79967946371E+02 0.  0.
         -6    2    1    2    0  502  0.11320922730E+03  0.39269061774E+02  0.50169511658E+03  0.54378894978E+03  0.17219188003E+03 0.  0.
        -24    2    5    5    0    0  0.49757827897E+02  0.55388346049E+02  0.17920943119E+03  0.21469167132E+03  0.91830186706E+02 0.  0.
          5    1    3    3  501    0 -0.82025103226E+02  0.67419211776E+00  0.27271426122E+03  0.28482227857E+03  0.47000000000E+01 0. -1.
        -11    1    4    4    0    0 -0.38048956452E+02 -0.48965611773E+02  0.85406754864E+02  0.10554462563E+03  0.00000000000E+00 0.  1.
         12    1    4    4    0    0  0.68648323827E+01  0.90223578809E+01 -0.10287885241E+02  0.15309129567E+02  0.00000000000E+00 0. -1.
         -5    1    5    5    0  502  0.63451399398E+02 -0.16119284274E+02  0.32248568539E+03  0.32909727847E+03  0.47000000000E+01 0.  1.
         11    1    6    6    0    0 -0.67707701265E+00 -0.49207989665E+01  0.10951890484E+03  0.10963148824E+03  0.00000000000E+00 0. -1.
        -12    1    6    6    0    0  0.50434904910E+02  0.60309145015E+02  0.69690526347E+02  0.10506018308E+03  0.00000000000E+00 0.  1.
</event>
<event>
12    1  0.8451514E-002  0.2752177E+03  0.7818608E-02  0.1098403E+00
         21   -1    0    0  501  502  0.00000000000E+00  0.00000000000E+00  0.31742838920E+03  0.31742838920E+03  0.00000000000E+00 0. -1.
         21   -1    0    0  502  503 -0.00000000000E+00 -0.00000000000E+00 -0.27124450948E+03  0.27124450948E+03  0.00000000000E+00 0. -1.
         -6    2    1    2    0  503  0.17352184850E+03  0.12642329414E+03 -0.79709034672E+02  0.28602819774E+03  0.17136486946E+03 0.  0.
        -24    2    3    3    0    0  0.82071956266E+02  0.12051229069E+03 -0.96334352033E+02  0.19277309638E+03  0.81376538966E+02 0.  0.
          6    2    1    2  501    0 -0.17352184850E+03 -0.12642329414E+03  0.12589291439E+03  0.30264470094E+03  0.17219787427E+03 0.  0.
         24    2    5    5    0    0 -0.57170368961E+02 -0.10397025439E+02  0.92272465820E+02  0.13485856807E+03  0.79347817926E+02 0.  0.
          5    1    5    5  501    0 -0.11635147954E+03 -0.11602626870E+03  0.33620448575E+02  0.16778613287E+03  0.47000000000E+01 0. -1.
        -13    1    6    6    0    0 -0.43709625330E+02 -0.20662134109E+02  0.10371208113E+03  0.11442749191E+03  0.00000000000E+00 0.  1.
         14    1    6    6    0    0 -0.13460743631E+02  0.10265108670E+02 -0.11439615305E+02  0.20431076170E+02  0.00000000000E+00 0. -1.
         -5    1    3    3    0  503  0.91449892237E+02  0.59110034498E+01  0.16625317361E+02  0.93255101358E+02  0.47000000000E+01 0.  1.
         11    1    4    4    0    0  0.53579709636E+02  0.43614474356E+02 -0.38890468313E+01  0.69196331863E+02  0.00000000000E+00 0. -1.
        -12    1    4    4    0    0  0.28492246631E+02  0.76897816333E+02 -0.92445305202E+02  0.12357676452E+03  0.00000000000E+00 0.  1.
</event>
<event>
12    1  0.8451514E-002  0.2385691E+03  0.7818608E-02  0.1120811E+00
         21   -1    0    0  503  502  0.00000000000E+00  0.00000000000E+00  0.37910496270E+03  0.37910496270E+03  0.00000000000E+00 0. -1.
         21   -1    0    0  501  503 -0.00000000000E+00 -0.00000000000E+00 -0.17311165629E+03  0.17311165629E+03  0.00000000000E+00 0.  1.
          6    2    1    2  501    0 -0.14582972589E+03  0.76467225422E+02  0.18300374556E+01  0.23821370089E+03  0.17213039457E+03 0.  0.
         24    2    3    3    0    0 -0.14368348219E+03  0.31985916394E+02  0.46906900609E+02  0.17467468290E+03  0.81504267500E+02 0.  0.
         -6    2    1    2    0  502  0.14582972589E+03 -0.76467225422E+02  0.20416326895E+03  0.31400291811E+03  0.17263153441E+03 0.  0.
        -24    2    5    5    0    0  0.67177099765E+02  0.25741490636E+02  0.11387126367E+03  0.15649865323E+03  0.79685486139E+02 0.  0.
          5    1    3    3  501    0 -0.21462437077E+01  0.44481309029E+02 -0.45076863153E+02  0.63539017987E+02  0.47000000000E+01 0. -1.
        -13    1    4    4    0    0 -0.81231677995E+02  0.17219250147E+01 -0.13869888181E+02  0.82425265143E+02  0.00000000000E+00 0.  1.
         14    1    4    4    0    0 -0.62451804192E+02  0.30263991379E+02  0.60776788790E+02  0.92249417758E+02  0.00000000000E+00 0. -1.
         -5    1    5    5    0  502  0.78652626130E+02 -0.10220871606E+03  0.90292005285E+02  0.15750426487E+03  0.47000000000E+01 0.  1.
         13    1    6    6    0    0  0.66059804897E+02  0.17707276601E+02  0.34292688802E+02  0.76507737994E+02  0.00000000000E+00 0. -1.
        -14    1    6    6    0    0  0.11172948680E+01  0.80342140352E+01  0.79578574865E+02  0.79990915238E+02  0.00000000000E+00 0.  1.
</event>
<event>
12    1  0.8451514E-002  0.2343708E+03  0.7818608E-02  0.1123609E+00
         21   -1    0    0  503  502  0.00000000000E+00  0.00000000000E+00  0.57605416822E+03  0.57605416822E+03  0.00000000000E+00 0.  1.
         21   -1    0    0  501  503 -0.00000000000E+00 -0.00000000000E+00 -0.95752328516E+02  0.95752328516E+02  0.00000000000E+00 0.  1.
          6    2    1    2  501    0 -0.10999011253E+03 -0.11509308249E+03  0.26229816027E+03  0.35172010521E+03  0.17193738696E+03 0.  0.
         24    2    3    3    0    0 -0.11417609003E+03 -0.34699456844E+02  0.11493824908E+03  0.18373888340E+03  0.79428863351E+02 0.  0.
         -6    2    1    2    0  502  0.10999011253E+03  0.11509308249E+03  0.21800367943E+03  0.32008639153E+03  0.17200421885E+03 0.  0.
        -24    2    5    5    0    0  0.13086589192E+03  0.45626803894E+02  0.15886099655E+03  0.22637775284E+03  0.82476565481E+02 0.  0.
          5    1    3    3  501    0  0.41859774995E+01 -0.80393625643E+02  0.14735991119E+03  0.16798122180E+03  0.47000000000E+01 0. -1.
        -13    1    4    4    0    0 -0.31352229478E+01 -0.19201283122E+02 -0.44511519868E+01  0.19958247680E+02  0.00000000000E+00 0.  1.
         14    1    4    4    0    0 -0.11104086708E+03 -0.15498173722E+02  0.11938940106E+03  0.16378063572E+03  0.00000000000E+00 0. -1.
         -5    1    5    5    0  502 -0.20875779386E+02  0.69466278593E+02  0.59142682877E+02  0.93708638686E+02  0.47000000000E+01 0.  1.
         11    1    6    6    0    0  0.39528451902E+02 -0.19301030146E+02  0.21083699680E+02  0.48780638235E+02  0.00000000000E+00 0. -1.
        -12    1    6    6    0    0  0.91337440017E+02  0.64927834040E+02  0.13777729688E+03  0.17759711461E+03  0.00000000000E+00 0.  1.
</event>
<event>
12    1  0.8451514E-002  0.1929567E+03  0.7818608E-02  0.1156289E+00
         21   -1    0    0  503  502  0.00000000000E+00  0.00000000000E+00  0.34637157759E+03  0.34637157759E+03  0.00000000000E+00 0. -1.
         21   -1    0    0  501  503 -0.00000000000E+00 -0.00000000000E+00 -0.11389574370E+03  0.11389574370E+03  0.00000000000E+00 0. -1.
          6    2    1    2  501    0  0.48705493983E+02 -0.71608636171E+02  0.17616712754E+03  0.26127985690E+03  0.17243052189E+03 0.  0.
         24    2    3    3    0    0 -0.73464096638E+01  0.19147106838E+02  0.93384146941E+02  0.12617422168E+03  0.82333188212E+02 0.  0.
         -6    2    1    2    0  502 -0.48705493983E+02  0.71608636171E+02  0.56308706352E+02  0.19898746438E+03  0.17007445032E+03 0.  0.
        -24    2    5    5    0    0 -0.84868209156E+02  0.68942975996E+02  0.40341292647E+01  0.13519428981E+03  0.79407020681E+02 0.  0.
          5    1    3    3  501    0  0.56051903647E+02 -0.90755743009E+02  0.82782980599E+02  0.13510563522E+03  0.47000000000E+01 0. -1.
        -13    1    4    4    0    0 -0.24121319432E+02  0.38994248767E+02  0.23310169112E+02  0.51436888242E+02  0.00000000000E+00 0.  1.
         14    1    4    4    0    0  0.16774909768E+02 -0.19847141929E+02  0.70073977829E+02  0.74737333437E+02  0.00000000000E+00 0. -1.
         -5    1    5    5    0  502  0.36162715172E+02  0.26656601750E+01  0.52274577087E+02  0.63793174575E+02  0.47000000000E+01 0.  1.
         13    1    6    6    0    0 -0.83658072550E+02  0.26813773377E+02  0.20046736615E+02  0.90108396914E+02  0.00000000000E+00 0. -1.
        -14    1    6    6    0    0 -0.12101366054E+01  0.42129202619E+02 -0.16012607350E+02  0.45085892894E+02  0.00000000000E+00 0.  1.
</event>
<event>
12    1  0.8451514E-002  0.1784527E+03  0.7818608E-02  0.1169321E+00
         21   -1    0    0  503  502  0.00000000000E+00  0.00000000000E+00  0.20026305541E+02  0.20026305541E+02  0.00000000000E+00 0.  1.
         21   -1    0    0  501  503 -0.00000000000E+00 -0.00000000000E+00 -0.17848056709E+04  0.17848056709E+04  0.00000000000E+00 0.  1.
          6    2    1    2  501    0 -0.49679572718E+01  0.46610488478E+02 -0.11808256047E+04  0.11942338378E+04  0.17218633048E+03 0.  0.
         24    2    3    3    0    0  0.41098630909E+02  0.40813373416E+02 -0.36390574711E+03  0.37598211564E+03  0.74701603691E+02 0.  0.
         -6    2    1    2    0  502  0.49679572718E+01 -0.46610488478E+02 -0.58395376070E+03  0.61059813868E+03  0.17213620794E+03 0.  0.
        -24    2    5    5    0    0  0.14538604890E+01 -0.28897010595E+02 -0.58568443718E+03  0.59185777006E+03  0.80201054215E+02 0.  0.
          5    1    3    3  501    0 -0.46066588180E+02  0.57971150620E+01 -0.81691985755E+03  0.81825172212E+03  0.47000000000E+01 0. -1.
        -13    1    4    4    0    0  0.41870190619E+02  0.75294777241E+01 -0.30792258029E+03  0.31084742455E+03  0.00000000000E+00 0.  1.
         14    1    4    4    0    0 -0.77155971057E+00  0.33283895692E+02 -0.55983166811E+02  0.65134691087E+02  0.00000000000E+00 0. -1.
         -5    1    5    5    0  502  0.35140967828E+01 -0.17713477883E+02  0.17306764761E+01  0.18740368619E+02  0.47000000000E+01 0.  1.
         13    1    6    6    0    0  0.33629928644E+01  0.16486817866E+02 -0.41162753983E+03  0.41197130535E+03  0.00000000000E+00 0. -1.
        -14    1    6    6    0    0 -0.19091323753E+01 -0.45383828461E+02 -0.17405689735E+03  0.17988646471E+03  0.00000000000E+00 0.  1.
</event>
<event>
12    1  0.8451514E-002  0.1995576E+03  0.7818608E-02  0.1150815E+00
         21   -1    0    0  503  502  0.00000000000E+00  0.00000000000E+00  0.24032817270E+03  0.24032817270E+03  0.00000000000E+00 0. -1.
         21   -1    0    0  501  503 -0.00000000000E+00 -0.00000000000E+00 -0.16521309511E+03  0.16521309511E+03  0.00000000000E+00 0. -1.
          6    2    1    2  501    0 -0.10179923491E+03  0.17011881452E+02  0.61415595606E+02  0.20879446576E+03  0.17079451165E+03 0.  0.
         24    2    3    3    0    0 -0.10026754648E+03 -0.46212025434E+02  0.36931257966E+02  0.14081519494E+03  0.79220383362E+02 0.  0.
         -6    2    1    2    0  502  0.10179923491E+03 -0.17011881452E+02  0.13699481986E+02  0.19674680205E+03  0.16694052825E+03 0.  0.
        -24    2    5    5    0    0  0.11101300223E+03  0.39704318321E+00  0.57769526519E+02  0.14824708050E+03  0.79472223920E+02 0.  0.
          5    1    3    3  501    0 -0.15316884280E+01  0.63223906886E+02  0.24484337640E+02  0.67979270819E+02  0.47000000000E+01 0. -1.
        -13    1    4    4    0    0 -0.98562503214E+01 -0.24819429802E+02  0.39723520672E+02  0.47865518493E+02  0.00000000000E+00 0.  1.
         14    1    4    4    0    0 -0.90411296159E+02 -0.21392595632E+02 -0.27922627061E+01  0.92949676450E+02  0.00000000000E+00 0. -1.
         -5    1    5    5    0  502 -0.92137673231E+01 -0.17408924635E+02 -0.44070044533E+02  0.48499721550E+02  0.47000000000E+01 0.  1.
         13    1    6    6    0    0  0.83166371780E+02 -0.34821060377E+02  0.48589250742E+02  0.10242102777E+03  0.00000000000E+00 0. -1.
        -14    1    6    6    0    0  0.27846630452E+02  0.35218103560E+02  0.91802757767E+01  0.45826052735E+02  0.00000000000E+00 0.  1.
</event>
<event>
12    1  0.8451514E-002  0.2032292E+03  0.7818608E-02  0.1147214E+00
         21   -1    0    0  501  502  0.00000000000E+00  0.00000000000E+00  0.93122082482E+02  0.93122082482E+02  0.00000000000E+00 0.  1.
         21   -1    0    0  502  503 -0.00000000000E+00 -0.00000000000E+00 -0.51911875195E+03  0.51911875195E+03  0.00000000000E+00 0.  1.
         -6    2    1    2    0  503  0.96582450547E+02 -0.47223815497E+02 -0.33082897835E+03  0.38783270497E+03  0.17148800431E+03 0.  0.
        -24    2    3    3    0    0  0.80106525499E+02  0.35525320193E+02 -0.19817510256E+03  0.23054946897E+03  0.78743777950E+02 0.  0.
          6    2    1    2  501    0 -0.96582450547E+02  0.47223815497E+02 -0.95167691122E+02  0.22440812947E+03  0.17246408505E+03 0.  0.
         24    2    5    5    0    0  0.15590395523E+02  0.22936612076E+01 -0.47635852732E+02  0.94474177705E+02  0.80049200328E+02 0.  0.
          5    1    5    5  501    0 -0.11217284607E+03  0.44930154289E+02 -0.47531838390E+02  0.12993395176E+03  0.47000000000E+01 0. -1.
        -11    1    6    6    0    0  0.23541859619E+02  0.35878522997E+02 -0.40956447213E+02  0.59320469781E+02  0.00000000000E+00 0.  1.
         12    1    6    6    0    0 -0.79514640955E+01 -0.33584861789E+02 -0.66794055193E+01  0.35153707923E+02  0.00000000000E+00 0. -1.
         -5    1    3    3    0  503  0.16475925048E+02 -0.82749135690E+02 -0.13265387580E+03  0.15728323600E+03  0.47000000000E+01 0.  1.
         13    1    4    4    0    0  0.31909420305E+02  0.44169902682E+02 -0.48082101875E+02  0.72671039127E+02  0.00000000000E+00 0. -1.
        -14    1    4    4    0    0  0.48197105194E+02 -0.86445824883E+01 -0.15009300068E+03  0.15787842984E+03  0.00000000000E+00 0.  1.
</event>
<event>
12    1  0.8451514E-002  0.2476242E+03  0.7818608E-02  0.1114921E+00
         21   -1    0    0  501  502  0.00000000000E+00  0.00000000000E+00  0.29778394330E+03  0.29778394330E+03  0.00000000000E+00 0.  1.
         21   -1    0    0  502  503 -0.00000000000E+00 -0.00000000000E+00 -0.27910089461E+03  0.27910089461E+03  0.00000000000E+00 0. -1.
         -6    2    1    2    0  503  0.47843895989E+02  0.17042117979E+03 -0.13890614865E+03  0.28392368856E+03  0.17316271506E+03 0.  0.
        -24    2    3    3    0    0  0.80639818776E+02  0.69003514228E+02 -0.11237303595E+03  0.17398183343E+03  0.79860589811E+02 0.  0.
          6    2    1    2  501    0 -0.47843895989E+02 -0.17042117979E+03  0.15758919733E+03  0.29296114935E+03  0.17221922948E+03 0.  0.
         24    2    5    5    0    0  0.25283104470E+02 -0.75501148493E+02  0.12971486075E+02  0.10509485927E+03  0.67357339601E+02 0.  0.
          5    1    5    5  501    0 -0.73127000459E+02 -0.94920031302E+02  0.14461771126E+03  0.18786629008E+03  0.47000000000E+01 0. -1.
        -11    1    6    6    0    0 -0.11980014179E+02 -0.19985606660E+02  0.28138953578E+02  0.36534174710E+02  0.00000000000E+00 0.  1.
         12    1    6    6    0    0  0.37263118649E+02 -0.55515541834E+02 -0.15167467504E+02  0.68560684557E+02  0.00000000000E+00 0. -1.
         -5    1    3    3    0  503 -0.32795922787E+02  0.10141766557E+03 -0.26533112694E+02  0.10994185513E+03  0.47000000000E+01 0.  1.
         11    1    4    4    0    0  0.70728956826E+02  0.86965177200E+02 -0.98427780632E+02  0.14917625608E+03  0.00000000000E+00 0. -1.
        -12    1    4    4    0    0  0.99108619503E+01 -0.17961662972E+02 -0.13945255321E+02  0.24805577342E+02  0.00000000000E+00 0.  1.
</event>
<event>
12    1  0.8451514E-002  0.3172991E+03  0.7818608E-02  0.1076905E+00
         21   -1    0    0  503  502  0.00000000000E+00  0.00000000000E+00  0.36319571163E+03  0.36319571163E+03  0.00000000000E+00 0. -1.
         21   -1    0    0  501  503 -0.00000000000E+00 -0.00000000000E+00 -0.59590201888E+03  0.59590201888E+03  0.00000000000E+00 0.  1.
          6    2    1    2  501    0  0.22635194923E+03 -0.14068731539E+03 -0.46708147479E+03  0.56466256114E+03  0.17219343261E+03 0.  0.
         24    2    3    3    0    0  0.21594781354E+03 -0.10705882082E+03 -0.29658211262E+03  0.39050388583E+03  0.80232699284E+02 0.  0.
         -6    2    1    2    0  502 -0.22635194923E+03  0.14068731539E+03  0.23437516755E+03  0.39443516936E+03  0.17210246378E+03 0.  0.
        -24    2    5    5    0    0 -0.13948530595E+03  0.12789638032E+03  0.22707540302E+03  0.30620366538E+03  0.79898756928E+02 0.  0.
          5    1    3    3  501    0  0.10404135685E+02 -0.33628494568E+02 -0.17049936217E+03  0.17415867531E+03  0.47000000000E+01 0. -1.
        -11    1    4    4    0    0  0.13926674870E+03 -0.77690880378E+02 -0.24874087696E+03  0.29547102067E+03  0.00000000000E+00 0.  1.
         12    1    4    4    0    0  0.76681064838E+02 -0.29367940445E+02 -0.47841235667E+02  0.95032865161E+02  0.00000000000E+00 0. -1.
         -5    1    5    5    0  502 -0.86866643275E+02  0.12790935068E+02  0.72997645286E+01  0.88231503988E+02  0.47000000000E+01 0.  1.
         11    1    6    6    0    0 -0.14156462719E+03  0.90712973524E+02  0.18830059922E+03  0.25244108798E+03  0.00000000000E+00 0. -1.
        -12    1    6    6    0    0  0.20793212423E+01  0.37183406798E+02  0.38774803801E+02  0.53762577391E+02  0.00000000000E+00 0.  1.
</event>
<event>
12    1  0.8451514E-002  0.2181664E+03  0.7818608E-02  0.1136616E+00
         21   -1    0    0  501  502  0.00000000000E+00  0.00000000000E+00  0.46257227465E+03  0.46257227465E+03  0.00000000000E+00 0. -1.
         21   -1    0    0  502  503 -0.00000000000E+00 -0.00000000000E+00 -0.10091513973E+03  0.10091513973E+03  0.00000000000E+00 0. -1.
         -6    2    1    2    0  503  0.13429600167E+03 -0.35444324581E+01  0.21027305108E+03  0.29794324741E+03  0.16281106719E+03 0.  0.
        -24    2    3    3    0    0  0.42605798912E+02 -0.53802785573E+02  0.88817246501E+02  0.13761047532E+03  0.79612472673E+02 0.  0.
          6    2    1    2  501    0 -0.13429600167E+03  0.35444324581E+01  0.15138408384E+03  0.26554416697E+03  0.17189701773E+03 0.  0.
         24    2    5    5    0    0 -0.15055240214E+03  0.12102485740E+02  0.74353010798E+02  0.18621329626E+03  0.79589732617E+02 0.  0.
          5    1    5    5  501    0  0.16256400476E+02 -0.85580532821E+01  0.77031073044E+02  0.79330870704E+02  0.47000000000E+01 0. -1.
        -11    1    6    6    0    0 -0.45589694572E+02 -0.82217998498E+01 -0.13041865934E+02  0.48125965039E+02  0.00000000000E+00 0.  1.
         12    1    6    6    0    0 -0.10496270757E+03  0.20324285590E+02  0.87394876732E+02  0.13808733122E+03  0.00000000000E+00 0. -1.
         -5    1    3    3    0  503  0.91690202756E+02  0.50258353115E+02  0.12145580458E+03  0.16033277209E+03  0.47000000000E+01 0.  1.
         13    1    4    4    0    0  0.24501381202E+02 -0.11045642419E+02  0.87093836149E+02  0.91146366864E+02  0.00000000000E+00 0. -1.
        -14    1    4    4    0    0  0.18104417710E+02 -0.42757143154E+02  0.17234103518E+01  0.46464108455E+02  0.00000000000E+00 0.  1.
</event>
<event>
12    1  0.8451514E-002  0.1961320E+03  0.7818608E-02  0.1153781E+00
         21   -1    0    0  501  502  0.00000000000E+00  0.00000000000E+00  0.86968804251E+02  0.86968804251E+02  0.00000000000E+00 0.  1.
         21   -1    0    0  502  503 -0.00000000000E+00 -0.00000000000E+00 -0.47486631575E+03  0.47486631575E+03  0.00000000000E+00 0. -1.
         -6    2    1    2    0  503 -0.89471732979E+02 -0.30244594646E+02 -0.27406357841E+03  0.33506230003E+03  0.16803563129E+03 0.  0.
        -24    2    3    3    0    0 -0.54402890784E+02  0.38379056894E+02 -0.20682611609E+03  0.23268068262E+03  0.83250412823E+02 0.  0.
          6    2    1    2  501    0  0.89471732979E+02  0.30244594646E+02 -0.11383393309E+03  0.22677281997E+03  0.17189479645E+03 0.  0.
         24    2    5    5    0    0 -0.32628894911E+01 -0.30036614030E+02 -0.53849792195E+02  0.10086125782E+03  0.79751793584E+02 0.  0.
          5    1    5    5  501    0  0.92734622471E+02  0.60281208676E+02 -0.59984140893E+02  0.12591156215E+03  0.47000000000E+01 0. -1.
        -13    1    6    6    0    0 -0.24272521216E+02 -0.71726526114E+01  0.12035195228E+02  0.28025847995E+02  0.00000000000E+00 0.  1.
         14    1    6    6    0    0  0.21009631725E+02 -0.22863961418E+02 -0.65884987423E+02  0.72835409827E+02  0.00000000000E+00 0. -1.
         -5    1    3    3    0  503 -0.35068842196E+02 -0.68623651540E+02 -0.67237462324E+02  0.10238161741E+03  0.47000000000E+01 0.  1.
         11    1    4    4    0    0  0.88932287337E+01 -0.59617891642E+01 -0.10139509370E+03  0.10195880283E+03  0.00000000000E+00 0. -1.
        -12    1    4    4    0    0 -0.63296119517E+02  0.44340846058E+02 -0.10543102238E+03  0.13072187979E+03  0.00000000000E+00 0.  1.
</event>
<event>
12    1  0.8451514E-002  0.1756199E+03  0.7818608E-02  0.1172138E+00
         21   -1    0    0  501  502  0.00000000000E+00  0.00000000000E+00  0.73637375368E+02  0.73637375368E+02  0.00000000000E+00 0. -1.
         21   -1    0    0  502  503 -0.00000000000E+00 -0.00000000000E+00 -0.10573873420E+04  0.10573873420E+04  0.00000000000E+00 0. -1.
         -6    2    1    2    0  503 -0.23663034276E+02  0.28799695320E+02 -0.93136553558E+03  0.94775859903E+03  0.17150871562E+03 0.  0.
        -24    2    3    3    0    0 -0.30165967580E+01 -0.26510302341E+01 -0.88034082069E+03  0.88418946305E+03  0.82309891121E+02 0.  0.
          6    2    1    2  501    0  0.23663034276E+02 -0.28799695320E+02 -0.52384431099E+02  0.18326611838E+03  0.17161870494E+03 0.  0.
         24    2    5    5    0    0  0.85482752614E+02 -0.24465331259E+02 -0.18269513269E+02  0.11236913745E+03  0.66235900442E+02 0.  0.
          5    1    5    5  501    0 -0.61819718338E+02 -0.43343640608E+01 -0.34114917830E+02  0.70896980936E+02  0.47000000000E+01 0. -1.
        -11    1    6    6    0    0 -0.16314307750E+01 -0.11739472528E+02 -0.21192700720E+02  0.24281831591E+02  0.00000000000E+00 0.  1.
         12    1    6    6    0    0  0.87114183389E+02 -0.12725858731E+02  0.29231874511E+01  0.88087305855E+02  0.00000000000E+00 0. -1.
         -5    1    3    3    0  503 -0.20646437518E+02  0.31450725554E+02 -0.51024714888E+02  0.63569135982E+02  0.47000000000E+01 0.  1.
         11    1    4    4    0    0  0.20614260312E+02 -0.24212904627E+02 -0.71927617180E+03  0.71997876621E+03  0.00000000000E+00 0. -1.
        -12    1    4    4    0    0 -0.23630857070E+02  0.21561874393E+02 -0.16106464889E+03  0.16421069684E+03  0.00000000000E+00 0.  1.
</event>
<event>
12    1  0.8451514E-002  0.1865825E+03  0.7818608E-02  0.1161878E+00
         21   -1    0    0  501  502  0.00000000000E+00  0.00000000000E+00  0.30935201642E+03  0.30935201642E+03  0.00000000000E+00 0. -1.
         21   -1    0    0  502  503 -0.00000000000E+00 -0.00000000000E+00 -0.12084355708E+03  0.12084355708E+03  0.00000000000E+00 0. -1.
         -6    2    1    2    0  503 -0.27369064212E+02 -0.64426415194E+02  0.34988098401E+02  0.18857283972E+03  0.17156841260E+03 0.  0.
        -24    2    3    3    0    0 -0.65853150911E+02  0.86679116919E+01  0.49432973383E+02  0.10458147133E+03  0.63889710515E+02 0.  0.
          6    2    1    2  501    0  0.27369064212E+02  0.64426415194E+02  0.15352036094E+03  0.24162273378E+03  0.17295437434E+03 0.  0.
         24    2    5    5    0    0 -0.46470532942E+02  0.12199023750E+02  0.57512292029E+02  0.10963930368E+03  0.80029910431E+02 0.  0.
          5    1    5    5  501    0  0.73839597154E+02  0.52227391444E+02  0.96008068913E+02  0.13198343010E+03  0.47000000000E+01 0. -1.
        -11    1    6    6    0    0 -0.64634131119E+02  0.11446895147E+02  0.62659104362E+02  0.90745609665E+02  0.00000000000E+00 0.  1.
         12    1    6    6    0    0  0.18163598177E+02  0.75212860267E+00 -0.51468123329E+01  0.18893694010E+02  0.00000000000E+00 0. -1.
         -5    1    3    3    0  503  0.38484086698E+02 -0.73094326885E+02 -0.14444874982E+02  0.83991368396E+02  0.47000000000E+01 0.  1.
         13    1    4    4    0    0 -0.51501265853E+02  0.21113234537E+02  0.45532264390E+01  0.55846941976E+02  0.00000000000E+00 0. -1.
        -14    1    4    4    0    0 -0.14351885058E+02 -0.12445322845E+02  0.44879746944E+02  0.48734529353E+02  0.00000000000E+00 0.  1.
</event>
<event>
12    1  0.8451514E-002  0.2448343E+03  0.7818608E-02  0.1116670E+00
         21   -1    0    0  503  502  0.00000000000E+00  0.00000000000E+00  0.22399824342E+03  0.22399824342E+03  0.00000000000E+00 0.  1.
         21   -1    0    0  501  503 -0.00000000000E+00 -0.00000000000E+00 -0.27082680483E+03  0.27082680483E+03  0.00000000000E+00 0.  1.
          6    2    1    2  501    0 -0.15302740822E+03  0.81512832146E+02  0.50721660602E+01  0.24488684973E+03  0.17286443483E+03 0.  0.
         24    2    3    3    0    0 -0.17963765716E+03  0.48084758717E+02 -0.25861864082E+01  0.20122586252E+03  0.76833114578E+02 0.  0.
         -6    2    1    2    0  502  0.15302740822E+03 -0.81512832146E+02 -0.51900727467E+02  0.24993819853E+03  0.17237658803E+03 0.  0.
        -24    2    5    5    0    0  0.49736345206E+02 -0.79638226149E+01  0.26667627722E+02  0.10069485047E+03  0.83013035349E+02 0.  0.
          5    1    3    3  501    0  0.26610248934E+02  0.33428073430E+02  0.76583524684E+01  0.43660987209E+02  0.47000000000E+01 0. -1.
        -13    1    4    4    0    0 -0.11048836865E+03  0.39002587716E+02  0.34621499887E+02  0.12217827020E+03  0.00000000000E+00 0.  1.
         14    1    4    4    0    0 -0.69149288508E+02  0.90821710010E+01 -0.37207686295E+02  0.79047592314E+02  0.00000000000E+00 0. -1.
         -5    1    5    5    0  502  0.10329106302E+03 -0.73549009531E+02 -0.78568355189E+02  0.14924334806E+03  0.47000000000E+01 0.  1.
         11    1    6    6    0    0  0.47205896348E+02  0.86318589499E+01 -0.19325515770E+02  0.51733752993E+02  0.00000000000E+00 0. -1.
        -12    1    6    6    0    0  0.25304488583E+01 -0.16595681565E+02  0.45993143491E+02  0.48961097478E+02  0.00000000000E+00 0.  1.
</event>
<event>
12    1  0.8451514E-002  0.2041758E+03  0.7818608E-02  0.1146733E+00
         21   -1    0    0  503  502  0.00000000000E+00  0.00000000000E+00  0.42926799291E+02  0.42926799291E+02  0.00000000000E+00 0.  1.
         21   -1    0    0  501  503 -0.00000000000E+00 -0.00000000000E+00 -0.13111982777E+04  0.13111982777E+04  0.00000000000E+00 0.  1.
          6    2    1    2  501    0 -0.93439396895E+02  0.58358394406E+02 -0.98697510853E+03  0.10078728199E+04  0.17190443047E+03 0.  0.
         24    2    3    3    0    0 -0.39792549293E+02  0.15324526874E+02 -0.84578237302E+03  0.85075064908E+03  0.81305327632E+02 0.  0.
         -6    2    1    2    0  502  0.93439396895E+02 -0.58358394406E+02 -0.28129636991E+03  0.34625225709E+03  0.16919324669E+03 0.  0.
        -24    2    5    5    0    0  0.12344390790E+03 -0.37412267900E+02 -0.26691777311E+03  0.30665623529E+03  0.78452997736E+02 0.  0.
          5    1    3    3  501    0 -0.53646847602E+02  0.43033867533E+02 -0.14119273551E+03  0.15712217086E+03  0.47000000000E+01 0. -1.
        -11    1    4    4    0    0  0.12161282815E+02 -0.59866432644E+01 -0.51910815650E+03  0.51928509976E+03  0.00000000000E+00 0.  1.
         12    1    4    4    0    0 -0.51953832108E+02  0.21311170138E+02 -0.32667421652E+03  0.33146554932E+03  0.00000000000E+00 0. -1.
         -5    1    5    5    0  502 -0.30004511004E+02 -0.20946126506E+02 -0.14378596799E+02  0.39596021797E+02  0.47000000000E+01 0.  1.
         11    1    6    6    0    0  0.71590947736E+02 -0.56675210122E+02 -0.12887745591E+03  0.15794537626E+03  0.00000000000E+00 0. -1.
        -12    1    6    6    0    0  0.51852960163E+02  0.19262942222E+02 -0.13804031721E+03  0.14871085904E+03  0.00000000000E+00 0.  1.
</event>
<event>
12    1  0.8451514E-002  0.2088762E+03  0.7818608E-02  0.1142499E+00
         21   -1    0    0  503  502  0.00000000000E+00  0.00000000000E+00  0.37838072428E+02  0.37838072428E+02  0.00000000000E+00 0.  1.
         21   -1    0    0  501  503 -0.00000000000E+00 -0.00000000000E+00 -0.11630325944E+04  0.11630325944E+04  0.00000000000E+00 0. -1.
          6    2    1    2  501    0  0.59969459694E+02  0.10239351656E+03 -0.62145485311E+03  0.65561834587E+03  0.17189680817E+03 0.  0.
         24    2    3    3    0    0 -0.22103226515E+02  0.82179254826E+02 -0.28022925764E+03  0.30404824020E+03  0.81700140661E+02 0.  0.
         -6    2    1    2    0  502 -0.59969459694E+02 -0.10239351656E+03 -0.50373966887E+03  0.54525232096E+03  0.17165567627E+03 0.  0.
        -24    2    5    5    0    0 -0.46808699809E+02 -0.14006845237E+03 -0.37224272742E+03  0.40775271369E+03  0.76729405579E+02 0.  0.
          5    1    3    3  501    0  0.82072686209E+02  0.20214261730E+02 -0.34122559547E+03  0.35157010567E+03  0.47000000000E+01 0. -1.
        -11    1    4    4    0    0 -0.31258594035E+02  0.24656296777E+01 -0.40322397426E+02  0.51079103016E+02  0.00000000000E+00 0.  1.
         12    1    4    4    0    0  0.91553675201E+01  0.79713625149E+02 -0.23990686022E+03  0.25296913719E+03  0.00000000000E+00 0. -1.
         -5    1    5    5    0  502 -0.13160759885E+02  0.37674935810E+02 -0.13149694145E+03  0.13749960727E+03  0.47000000000E+01 0.  1.
         11    1    6    6    0    0 -0.66792308027E+02 -0.10598816507E+03 -0.25662722193E+03  0.28557351870E+03  0.00000000000E+00 0. -1.
        -12    1    6    6    0    0  0.19983608219E+02 -0.34080287293E+02 -0.11561550548E+03  0.12217919499E+03  0.00000000000E+00 0.  1.
</event>
<event>
12    1  0.8451514E-002  0.1765263E+03  0.7818608E-02  0.1171533E+00
         21   -1    0    0  501  502  0.00000000000E+00  0.00000000000E+00  0.12225517242E+03  0.12225517242E+03  0.00000000000E+00 0.  1.
         21   -1    0    0  502  503 -0.00000000000E+00 -0.00000000000E+00 -0.25999331887E+03  0.25999331887E+03  0.00000000000E+00 0.  1.
         -6    2    1    2    0  503  0.34970491790E+02 -0.85347709755E+01 -0.37786863522E+02  0.18052529267E+03  0.17281711902E+03 0.  0.
        -24    2    3    3    0    0 -0.30189822780E+02  0.28919946079E+02  0.64638470737E+01  0.93181501745E+02  0.83025431452E+02 0.  0.
          6    2    1    2  501    0 -0.34970491790E+02  0.85347709755E+01 -0.99951282931E+02  0.20172319862E+03  0.17148239645E+03 0.  0.
         24    2    5    5    0    0 -0.81597507891E+02 -0.23257601455E+02 -0.50964935055E+02  0.12684606023E+03  0.79331135577E+02 0.  0.
          5    1    5    5  501    0  0.46627016101E+02  0.31792372430E+02 -0.48986347876E+02  0.74877138390E+02  0.47000000000E+01 0. -1.
        -11    1    6    6    0    0 -0.48687920228E+02  0.25446606992E+02 -0.11732642958E+02  0.56175602305E+02  0.00000000000E+00 0.  1.
         12    1    6    6    0    0 -0.32909587664E+02 -0.48704208447E+02 -0.39232292097E+02  0.70670457928E+02  0.00000000000E+00 0. -1.
         -5    1    3    3    0  503  0.65160314570E+02 -0.37454717054E+02 -0.44250710596E+02  0.87343790922E+02  0.47000000000E+01 0.  1.
         11    1    4    4    0    0 -0.11883354465E+02  0.56581120913E+02  0.13272976998E+02  0.59319552219E+02  0.00000000000E+00 0. -1.
        -12    1    4    4    0    0 -0.18306468315E+02 -0.27661174834E+02 -0.68091299243E+01  0.33861949526E+02  0.00000000000E+00 0.  1.
</event>
<event>
12    1  0.8451514E-002  0.1872364E+03  0.7818608E-02  0.1161120E+00
         21   -1    0    0  501  502  0.00000000000E+00  0.00000000000E+00  0.65486408680E+03  0.65486408680E+03  0.00000000000E+00 0.  1.
         21   -1    0    0  502  503 -0.00000000000E+00 -0.00000000000E+00 -0.99514504795E+02  0.99514504795E+02  0.00000000000E+00 0.  1.
         -6    2    1    2    0  503 -0.43860471269E+02  0.59185482562E+02  0.21037630364E+02  0.18841460438E+03  0.17213604784E+03 0.  0.
        -24    2    3    3    0    0  0.30915411670E+02 -0.60362977665E+01  0.22722865517E+02  0.89065506166E+02  0.80150709303E+02 0.  0.
          6    2    1    2  501    0  0.43860471269E+02 -0.59185482562E+02  0.53431195164E+03  0.56596398722E+03  0.17146227245E+03 0.  0.
         24    2    5    5    0    0  0.88321593813E+01 -0.76680134084E+02  0.50479701047E+03  0.51670683324E+03  0.78791368404E+02 0.  0.
          5    1    5    5  501    0  0.35028311887E+02  0.17494651522E+02  0.29514941174E+02  0.49257153978E+02  0.47000000000E+01 0. -1.
        -13    1    6    6    0    0  0.43628754198E+02 -0.34553043361E+02  0.25214624031E+03  0.25821523483E+03  0.00000000000E+00 0.  1.
         14    1    6    6    0    0 -0.34796594816E+02 -0.42127090724E+02  0.25265077016E+03  0.25849159841E+03  0.00000000000E+00 0. -1.
         -5    1    3    3    0  503 -0.74775882938E+02  0.65221780329E+02 -0.16852351529E+01  0.99349098214E+02  0.47000000000E+01 0.  1.
         13    1    4    4    0    0  0.42570443802E+02  0.12800772604E+02  0.40903604971E+02  0.60408669613E+02  0.00000000000E+00 0. -1.
        -14    1    4    4    0    0 -0.11655032132E+02 -0.18837070371E+02 -0.18180739454E+02  0.28656836553E+02  0.00000000000E+00 0.  1.
</event>
<event>
12    1  0.8451514E-002  0.1949116E+03  0.7818608E-02  0.1154401E+00
         21   -1    0    0  503  502  0.00000000000E+00  0.00000000000E+00  0.12839163896E+03  0.12839163896E+03  0.00000000000E+00 0. -1.
         21   -1    0    0  501  503 -0.00000000000E+00 -0.00000000000E+00 -0.29741841592E+03  0.29741841592E+03  0.00000000000E+00 0.  1.
          6    2    1    2  501    0  0.87490870327E+02 -0.30664458314E+01 -0.60874340957E+02  0.20290320498E+03  0.17262667733E+03 0.  0.
         24    2    3    3    0    0  0.41348253537E+02  0.64487367816E+02 -0.42698122255E+02  0.11896796954E+03  0.80386251651E+02 0.  0.
         -6    2    1    2    0  502 -0.87490870327E+02  0.30664458314E+01 -0.10815243601E+03  0.22290684989E+03  0.17414493629E+03 0.  0.
        -24    2    5    5    0    0 -0.38730007157E+02  0.60051571848E+02 -0.23619808385E+02  0.10980167098E+03  0.79951903457E+02 0.  0.
          5    1    3    3  501    0  0.46142616790E+02 -0.67553813647E+02 -0.18176218702E+02  0.83935235443E+02  0.47000000000E+01 0. -1.
        -13    1    4    4    0    0  0.45653441202E+02  0.45224086255E+01 -0.36315662538E+02  0.58510821383E+02  0.00000000000E+00 0.  1.
         14    1    4    4    0    0 -0.43051876647E+01  0.59964959190E+02 -0.63824597172E+01  0.60457148159E+02  0.00000000000E+00 0. -1.
         -5    1    5    5    0  502 -0.48760863170E+02 -0.56985126017E+02 -0.84532627621E+02  0.11310517891E+03  0.47000000000E+01 0.  1.
         11    1    6    6    0    0 -0.62713254700E+02  0.34617726137E+02 -0.10199000373E+02  0.72355779911E+02  0.00000000000E+00 0. -1.
        -12    1    6    6    0    0  0.23983247543E+02  0.25433845711E+02 -0.13420808012E+02  0.37445891070E+02  0.00000000000E+00 0.  1.
</event>
<event>
12    1  0.8451514E-002  0.2532494E+03  0.7818608E-02  0.1111353E+00
         21   -1    0    0  503  502  0.00000000000E+00  0.00000000000E+00  0.19246203279E+03  0.19246203279E+03  0.00000000000E+00 0. -1.
         21   -1    0    0  501  503 -0.00000000000E+00 -0.00000000000E+00 -0.40737379078E+03  0.40737379078E+03  0.00000000000E+00 0.  1.
          6    2    1    2  501    0  0.14640254431E+03 -0.11326086760E+03 -0.23592295186E+03  0.34571627636E+03  0.17204178392E+03 0.  0.
         24    2    3    3    0    0  0.11977887411E+03 -0.14955675431E+03 -0.20701545244E+03  0.29201390463E+03  0.75515041579E+02 0.  0.
         -6    2    1    2    0  502 -0.14640254431E+03  0.11326086760E+03  0.21011193872E+02  0.25411954721E+03  0.17283965083E+03 0.  0.
        -24    2    5    5    0    0 -0.17465451513E+03  0.10632307703E+03  0.26747572199E+01  0.21941188665E+03  0.79533799803E+02 0.  0.
          5    1    3    3  501    0  0.26623670204E+02  0.36295886705E+02 -0.28907499425E+02  0.53702371734E+02  0.47000000000E+01 0. -1.
        -13    1    4    4    0    0  0.43730623868E+02 -0.67310016335E+02 -0.14028771463E+03  0.16162811834E+03  0.00000000000E+00 0.  1.
         14    1    4    4    0    0  0.76048250240E+02 -0.82246737972E+02 -0.66727737810E+02  0.13038578628E+03  0.00000000000E+00 0. -1.
         -5    1    5    5    0  502  0.28251970817E+02  0.69377905685E+01  0.18336436652E+02  0.34707660568E+02  0.47000000000E+01 0.  1.
         13    1    6    6    0    0 -0.17714672231E+02  0.10278944480E+02  0.26919854105E+02  0.33825210375E+02  0.00000000000E+00 0. -1.
        -14    1    6    6    0    0 -0.15693984290E+03  0.96044132554E+02 -0.24245096885E+02  0.18558667627E+03  0.00000000000E+00 0.  1.
</event>
<event>
12    1  0.8451514E-002  0.2544377E+03  0.7818608E-02  0.1111129E+00
         21   -1    0    0  503  502  0.00000000000E+00  0.00000000000E+00  0.11952954802E+03  0.11952954802E+03  0.00000000000E+00 0. -1.
         21   -1    0    0  501  503 -0.00000000000E+00 -0.00000000000E+00 -0.61638314262E+03  0.61638314262E+03  0.00000000000E+00 0. -1.
          6    2    1    2  501    0 -0.45721204242E+01 -0.18743082512E+03 -0.11511564855E+03  0.27926715574E+03  0.17200963125E+03 0.  0.
         24    2    3    3    0    0  0.35227386101E+02 -0.37607277288E+02 -0.15551556045E+02  0.94967956820E+02  0.78241842326E+02 0.  0.
         -6    2    1    2    0  502  0.45721204242E+01  0.18743082512E+03 -0.38173794606E+03  0.45664553490E+03  0.16628309174E+03 0.  0.
        -24    2    5    5    0    0 -0.47992846914E+02  0.14563928672E+03 -0.32689448694E+03  0.36981522061E+03  0.79932325196E+02 0.  0.
          5    1    3    3  501    0 -0.39799506526E+02 -0.14982354783E+03 -0.99564092508E+02  0.18429919892E+03  0.47000000000E+01 0. -1.
        -13    1    4    4    0    0  0.18352255128E+02  0.60282929753E+01 -0.38337558333E+02  0.42929173803E+02  0.00000000000E+00 0.  1.
         14    1    4    4    0    0  0.16875130973E+02 -0.43635570264E+02  0.22786002288E+02  0.52038783017E+02  0.00000000000E+00 0. -1.
         -5    1    5    5    0  502  0.52564967338E+02  0.41791538398E+02 -0.54843459120E+02  0.86830314298E+02  0.47000000000E+01 0.  1.
         13    1    6    6    0    0 -0.34337003001E+02  0.11596236028E+03 -0.16453065019E+03  0.20419753581E+03  0.00000000000E+00 0. -1.
        -14    1    6    6    0    0 -0.13655843913E+02  0.29676926439E+02 -0.16236383674E+03  0.16561768480E+03  0.00000000000E+00 0.  1.
</event>
<event>
12    1  0.8451514E-002  0.2229314E+03  0.7818608E-02  0.1132348E+00
         21   -1    0    0  503  502  0.00000000000E+00  0.00000000000E+00  0.20169888823E+03  0.20169888823E+03  0.00000000000E+00 0.  1.
         21   -1    0    0  501  503 -0.00000000000E+00 -0.00000000000E+00 -0.36145503132E+03  0.36145503132E+03  0.00000000000E+00 0. -1.
          6    2    1    2  501    0  0.13155537535E+03  0.33168097766E+02  0.81146520299E+02  0.23724075985E+03  0.17689398204E+03 0.  0.
         24    2    3    3    0    0  0.13702599187E+03 -0.19110287784E+02  0.27456387281E+02  0.16195677999E+03  0.79591581424E+02 0.  0.
         -6    2    1    2    0  502 -0.13155537535E+03 -0.33168097766E+02 -0.24090266339E+03  0.32591315970E+03  0.17256406039E+03 0.  0.
        -24    2    5    5    0    0 -0.14763108978E+03 -0.32274324616E+01 -0.13911748885E+03  0.21850187636E+03  0.81142093129E+02 0.  0.
          5    1    3    3  501    0 -0.54706165166E+01  0.52278385549E+02  0.53690133017E+02  0.75283979864E+02  0.47000000000E+01 0. -1.
        -13    1    4    4    0    0  0.76081014278E+02 -0.34807983390E+02  0.47120374605E+02  0.96022112788E+02  0.00000000000E+00 0.  1.
         14    1    4    4    0    0  0.60944977592E+02  0.15697695606E+02 -0.19663987324E+02  0.65934667198E+02  0.00000000000E+00 0. -1.
         -5    1    5    5    0  502  0.16075714421E+02 -0.29940665304E+02 -0.10178517454E+03  0.10741128334E+03  0.47000000000E+01 0.  1.
         13    1    6    6    0    0 -0.89837897519E+02  0.30889005481E+02 -0.11000403592E+03  0.14534739904E+03  0.00000000000E+00 0. -1.
        -14    1    6    6    0    0 -0.57793192257E+02 -0.34116437943E+02 -0.29113452936E+02  0.73154477314E+02  0.00000000000E+00 0.  1.
</event>
<event>
12    1  0.8451514E-002  0.2003494E+03  0.7818608E-02  0.1149498E+00
         21   -1    0    0  501  502  0.00000000000E+00  0.00000000000E+00  0.21244700309E+03  0.21244700309E+03  0.00000000000E+00 0.  1.
         21   -1    0    0  502  503 -0.00000000000E+00 -0.00000000000E+00 -0.19692936943E+04  0.19692936943E+04  0.00000000000E+00 0.  1.
         -6    2    1    2    0  503 -0.18852841826E+02 -0.99895496877E+02 -0.19157654082E+04  0.19262131198E+04  0.17264224138E+03 0.  0.
        -24    2    3    3    0    0  0.95026547811E+01 -0.26276035510E+02 -0.15238933555E+04  0.15264511218E+04  0.83793424388E+02 0.  0.
          6    2    1    2  501    0  0.18852841826E+02  0.99895496877E+02  0.15891871697E+03  0.25552757766E+03  0.17235035365E+03 0.  0.
         24    2    5    5    0    0  0.39316368408E+02  0.13435169828E+03  0.12414592470E+03  0.20226199011E+03  0.76821522800E+02 0.  0.
          5    1    5    5  501    0 -0.20463526583E+02 -0.34456201407E+02  0.34772792273E+02  0.53265587559E+02  0.47000000000E+01 0. -1.
        -11    1    6    6    0    0  0.84799591229E+01  0.40110260615E+02 -0.29014881962E+01  0.41099408111E+02  0.00000000000E+00 0.  1.
         12    1    6    6    0    0  0.30836409285E+02  0.94241437668E+02  0.12704741290E+03  0.16116258199E+03  0.00000000000E+00 0. -1.
         -5    1    3    3    0  503 -0.28355496607E+02 -0.73619461367E+02 -0.39187205271E+03  0.39976199791E+03  0.47000000000E+01 0.  1.
         13    1    4    4    0    0 -0.21779667899E+02  0.73834465598E+01 -0.14672130438E+03  0.14851266066E+03  0.00000000000E+00 0. -1.
        -14    1    4    4    0    0  0.31282322680E+02 -0.33659482070E+02 -0.13771720511E+04  0.13779384612E+04  0.00000000000E+00 0.  1.
</event>
<event>
12    1  0.8451514E-002  0.1986980E+03  0.7818608E-02  0.1151282E+00
         21   -1    0    0  503  502  0.00000000000E+00  0.00000000000E+00  0.11623204374E+03  0.11623204374E+03  0.00000000000E+00 0. -1.
         21   -1    0    0  501  503 -0.00000000000E+00 -0.00000000000E+00 -0.54443176067E+03  0.54443176067E+03  0.00000000000E+00 0. -1.
          6    2    1    2  501    0 -0.77006888042E+02 -0.59257476785E+02 -0.41909210410E+03  0.46380931156E+03  0.17331871338E+03 0.  0.
         24    2    3    3    0    0 -0.18528163937E+02 -0.82739134033E+02 -0.35679086534E+03  0.37506989669E+03  0.78667964582E+02 0.  0.
         -6    2    1    2    0  502  0.77006888042E+02  0.59257476785E+02 -0.91076128352E+01  0.19685449285E+03  0.17095974200E+03 0.  0.
        -24    2    5    5    0    0  0.88352616414E+02  0.17471424789E+02  0.44726557564E+02  0.12760849950E+03  0.78562259901E+02 0.  0.
          5    1    3    3  501    0 -0.58478724106E+02  0.23481657248E+02 -0.62301238758E+02  0.88739414867E+02  0.47000000000E+01 0. -1.
        -11    1    4    4    0    0  0.13177133111E+02  0.10061592784E+02 -0.71409377711E+02  0.73308742394E+02  0.00000000000E+00 0.  1.
         12    1    4    4    0    0 -0.31705297048E+02 -0.92800726818E+02 -0.28538148763E+03  0.30176115430E+03  0.00000000000E+00 0. -1.
         -5    1    5    5    0  502 -0.11345728372E+02  0.41786051996E+02 -0.53834170399E+02  0.69245993359E+02  0.47000000000E+01 0.  1.
         11    1    6    6    0    0  0.58779579053E+01 -0.24042655009E+02 -0.58153504078E+00  0.24757581304E+02  0.00000000000E+00 0. -1.
        -12    1    6    6    0    0  0.82474658509E+02  0.41514079798E+02  0.45308092604E+02  0.10285091819E+03  0.00000000000E+00 0.  1.
</event>
<event>
12    1  0.8451514E-002  0.2573474E+03  0.7818608E-02  0.1108983E+00
         21   -1    0    0  503  502  0.00000000000E+00  0.00000000000E+00  0.31922943631E+03  0.31922943631E+03  0.00000000000E+00 0. -1.
         21   -1    0    0  501  503 -0.00000000000E+00 -0.00000000000E+00 -0.21825343187E+03  0.21825343187E+03  0.00000000000E+00 0. -1.
          6    2    1    2  501    0 -0.15857988920E+03  0.10171271677E+03 -0.12761993307E+02  0.25612190101E+03  0.17303901783E+03 0.  0.
         24    2    3    3    0    0 -0.18380371407E+03  0.67559036175E+02 -0.18162807859E+02  0.21306410222E+03  0.81965818434E+02 0.  0.
         -6    2    1    2    0  502  0.15857988920E+03 -0.10171271677E+03  0.11373799775E+03  0.28136096717E+03  0.17531287376E+03 0.  0.
        -24    2    5    5    0    0  0.14029114490E+03 -0.95955033641E+01  0.65150727194E+02  0.17551734652E+03  0.82389578554E+02 0.  0.
          5    1    3    3  501    0  0.25223824867E+02  0.34153680590E+02  0.54008145524E+01  0.43057798790E+02  0.47000000000E+01 0. -1.
        -13    1    4    4    0    0 -0.91668403376E+02  0.93155919431E+01 -0.42357431844E+02  0.10141019901E+03  0.00000000000E+00 0.  1.
         14    1    4    4    0    0 -0.92135310691E+02  0.58243444232E+02  0.24194623985E+02  0.11165390321E+03  0.00000000000E+00 0. -1.
         -5    1    5    5    0  502  0.18288744303E+02 -0.92117213401E+02  0.48587270557E+02  0.10584362065E+03  0.47000000000E+01 0.  1.
         11    1    6    6    0    0  0.38038790643E+02 -0.17420168764E+02  0.59596303794E+02  0.72815735245E+02  0.00000000000E+00 0. -1.
        -12    1    6    6    0    0  0.10225235426E+03  0.78246654003E+01  0.55544233999E+01  0.10270161128E+03  0.00000000000E+00 0.  1.
</event>
<event>
12    1  0.8451514E-002  0.2074887E+03  0.7818608E-02  0.1143694E+00
         21   -1    0    0  503  502  0.00000000000E+00  0.00000000000E+00  0.57454244359E+02  0.57454244359E+02  0.00000000000E+00 0.  1.
         21   -1    0    0  501  503 -0.00000000000E+00 -0.00000000000E+00 -0.77018662745E+03  0.77018662745E+03  0.00000000000E+00 0.  1.
          6    2    1    2  501    0  0.78059668859E+02  0.83974182489E+02 -0.42749117407E+03  0.47491701498E+03  0.17219898949E+03 0.  0.
         24    2    3    3    0    0  0.60951006526E+02  0.10462578515E+03 -0.20350039711E+03  0.24927758318E+03  0.77880175509E+02 0.  0.
         -6    2    1    2    0  502 -0.78059668859E+02 -0.83974182489E+02 -0.28524120902E+03  0.35272385683E+03  0.17293523825E+03 0.  0.
        -24    2    5    5    0    0 -0.61270803104E+02  0.18428636206E+02 -0.18022602186E+03  0.20501304875E+03  0.73859361331E+02 0.  0.
          5    1    3    3  501    0  0.17108662333E+02 -0.20651602657E+02 -0.22399077696E+03  0.22563943180E+03  0.47000000000E+01 0. -1.
        -11    1    4    4    0    0 -0.12791477752E+02  0.23421119433E+02 -0.78810412029E+02  0.83206080203E+02  0.00000000000E+00 0.  1.
         12    1    4    4    0    0  0.73742484277E+02  0.81204665713E+02 -0.12468998508E+03  0.16607150297E+03  0.00000000000E+00 0. -1.
         -5    1    5    5    0  502 -0.16788865755E+02 -0.10240281869E+03 -0.10501518716E+03  0.14771080808E+03  0.47000000000E+01 0.  1.
         11    1    6    6    0    0 -0.57481655754E+01 -0.21046649474E+02 -0.86093697228E+02  0.88815131390E+02  0.00000000000E+00 0. -1.
        -12    1    6    6    0    0 -0.55522637529E+02  0.39475285680E+02 -0.94132324635E+02  0.11619791736E+03  0.00000000000E+00 0.  1.
</event>
<event>
12    1  0.8451514E-002  0.1844093E+03  0.7818608E-02  0.1164126E+00
         21   -1    0    0  501  502  0.00000000000E+00  0.00000000000E+00  0.33437441746E+02  0.33437441746E+02  0.00000000000E+00 0.  1.
         21   -1    0    0  502  503 -0.00000000000E+00 -0.00000000000E+00 -0.11810345655E+04  0.11810345655E+04  0.00000000000E+00 0.  1.
         -6    2    1    2    0  503  0.58446840557E+02 -0.29722079010E+02 -0.80538752828E+03  0.82573790953E+03  0.16998408564E+03 0.  0.
        -24    2    3    3    0    0  0.80426498501E+02  0.97872606929E+01 -0.35024667404E+03  0.36833285874E+03  0.80200685905E+02 0.  0.
          6    2    1    2  501    0 -0.58446840557E+02  0.29722079010E+02 -0.34220959544E+03  0.38873409769E+03  0.17235822098E+03 0.  0.
         24    2    5    5    0    0  0.18099707569E+02  0.35914392336E+02 -0.91537767333E+02  0.12652011220E+03  0.77528916883E+02 0.  0.
          5    1    5    5  501    0 -0.76546548126E+02 -0.61923133256E+01 -0.25067182811E+03  0.26221398548E+03  0.47000000000E+01 0. -1.
        -11    1    6    6    0    0 -0.21238564353E+01  0.32876380454E+02 -0.99318097762E+02  0.10463962778E+03  0.00000000000E+00 0.  1.
         12    1    6    6    0    0  0.20223564004E+02  0.30380118817E+01  0.77803304298E+01  0.21880484428E+02  0.00000000000E+00 0. -1.
         -5    1    3    3    0  503 -0.21979657944E+02 -0.39509339703E+02 -0.45514085424E+03  0.45740505079E+03  0.47000000000E+01 0.  1.
         11    1    4    4    0    0  0.29089563497E+02  0.53553798770E+01 -0.27813421251E+03  0.27970256160E+03  0.00000000000E+00 0. -1.
        -12    1    4    4    0    0  0.51336935004E+02  0.44318808159E+01 -0.72112461529E+02  0.88630297139E+02  0.00000000000E+00 0.  1.
</event>
<event>
12    1  0.8451514E-002  0.2254859E+03  0.7818608E-02  0.1129862E+00
         21   -1    0    0  501  502  0.00000000000E+00  0.00000000000E+00  0.15814788810E+04  0.15814788810E+04  0.00000000000E+00 0.  1.
         21   -1    0    0  502  503 -0.00000000000E+00 -0.00000000000E+00 -0.13209289280E+03  0.13209289280E+03  0.00000000000E+00 0. -1.
         -6    2    1    2    0  503 -0.45470098537E+01 -0.14616398052E+03 -0.20572855965E+02  0.22642249193E+03  0.17163716949E+03 0.  0.
        -24    2    3    3    0    0  0.22003337011E+02 -0.15315213427E+03  0.21326779661E+02  0.17610922651E+03  0.81362798997E+02 0.  0.
          6    2    1    2  501    0  0.45470098537E+01  0.14616398052E+03  0.14699588442E+04  0.14871492819E+04  0.17160827054E+03 0.  0.
         24    2    5    5    0    0  0.17013579860E+02  0.44290707640E+02  0.10754689682E+04  0.10795000070E+04  0.80222408209E+02 0.  0.
          5    1    5    5  501    0 -0.12466570007E+02  0.10187327288E+03  0.39448987600E+03  0.40764927494E+03  0.47000000000E+01 0. -1.
        -11    1    6    6    0    0  0.27054247150E+02 -0.97283276259E+01  0.17409042836E+03  0.17644843409E+03  0.00000000000E+00 0.  1.
         12    1    6    6    0    0 -0.10040667289E+02  0.54019035266E+02  0.90137853984E+03  0.90305157286E+03  0.00000000000E+00 0. -1.
         -5    1    3    3    0  503 -0.26550346864E+02  0.69881537536E+01 -0.41899635626E+02  0.50313265418E+02  0.47000000000E+01 0.  1.
         13    1    4    4    0    0  0.39438317856E+02 -0.60975534281E+02  0.36176203860E+02  0.81130231245E+02  0.00000000000E+00 0. -1.
        -14    1    4    4    0    0 -0.17434980845E+02 -0.92176599994E+02 -0.14849424199E+02  0.94978995270E+02  0.00000000000E+00 0.  1.
</event>
<event>
12    1  0.8451514E-002  0.1821659E+03  0.7818608E-02  0.1166145E+00
         21   -1    0    0  503  502  0.00000000000E+00  0.00000000000E+00  0.89928972411E+02  0.89928972411E+02  0.00000000000E+00 0. -1.
         21   -1    0    0  501  503 -0.00000000000E+00 -0.00000000000E+00 -0.54854541106E+03  0.54854541106E+03  0.00000000000E+00 0.  1.
          6    2    1    2  501    0 -0.32478189641E+02 -0.49934311961E+02 -0.44129417179E+02  0.18572289073E+03  0.17028598994E+03 0.  0.
         24    2    3    3    0    0 -0.37942183767E+02  0.18145992264E+02  0.17291685043E+02  0.93747759022E+02  0.81980202524E+02 0.  0.
         -6    2    1    2    0  502  0.32478189641E+02  0.49934311961E+02 -0.41448702147E+03  0.45275149274E+03  0.17215154631E+03 0.  0.
        -24    2    5    5    0    0  0.41097771751E+00  0.93228605331E+02 -0.30996521282E+03  0.33506716752E+03  0.86601569478E+02 0.  0.
          5    1    3    3  501    0  0.54639941263E+01 -0.68080304224E+02 -0.61421102222E+02  0.91975131711E+02  0.47000000000E+01 0. -1.
        -13    1    4    4    0    0 -0.39014685232E+02 -0.15843543084E+02 -0.17038905264E+02  0.45425629482E+02  0.00000000000E+00 0.  1.
         14    1    4    4    0    0  0.10725014655E+01  0.33989535347E+02  0.34330590307E+02  0.48322129541E+02  0.00000000000E+00 0. -1.
         -5    1    5    5    0  502  0.32067211923E+02 -0.43294293370E+02 -0.10452180865E+03  0.11768432522E+03  0.47000000000E+01 0.  1.
         13    1    6    6    0    0 -0.31930584438E+02  0.56538683094E+01 -0.10386538658E+03  0.10880968237E+03  0.00000000000E+00 0. -1.
        -14    1    6    6    0    0  0.32341562155E+02  0.87574737022E+02 -0.20609982624E+03  0.22625748514E+03  0.00000000000E+00 0.  1.
</event>
<event>
12    1  0.8451514E-002  0.2285842E+03  0.7818608E-02  0.1127918E+00
         21   -1    0    0  503  502  0.00000000000E+00  0.00000000000E+00  0.56021878470E+03  0.56021878470E+03  0.00000000000E+00 0. -1.
         21   -1    0    0  501  503 -0.00000000000E+00 -0.00000000000E+00 -0.10611256543E+03  0.10611256543E+03  0.00000000000E+00 0. -1.
          6    2    1    2  501    0 -0.14222463291E+03  0.49183562809E+02  0.34647935470E+03  0.41508876565E+03  0.17205775508E+03 0.  0.
         24    2    3    3    0    0 -0.36681054837E+02  0.75395811891E+02  0.21572634845E+03  0.24495655965E+03  0.80223627873E+02 0.  0.
         -6    2    1    2    0  502  0.14222463291E+03 -0.49183562809E+02  0.10762686457E+03  0.25124258448E+03  0.16997771979E+03 0.  0.
        -24    2    5    5    0    0  0.58320659937E+02  0.18516652154E+01 -0.81569833445E+01  0.99346367883E+02  0.79990226870E+02 0.  0.
          5    1    3    3  501    0 -0.10554357807E+03 -0.26212249083E+02  0.13075300625E+03  0.17013220600E+03  0.47000000000E+01 0. -1.
        -11    1    4    4    0    0 -0.12106164747E+02  0.15193335088E+02 -0.22472950915E+00  0.19427999365E+02  0.00000000000E+00 0.  1.
         12    1    4    4    0    0 -0.24574890090E+02  0.60202476804E+02  0.21595107796E+03  0.22552856029E+03  0.00000000000E+00 0. -1.
         -5    1    5    5    0  502  0.83903972971E+02 -0.51035228024E+02  0.11578384791E+03  0.15189621660E+03  0.47000000000E+01 0.  1.
         11    1    6    6    0    0 -0.17237051569E+02  0.12125970808E+02  0.57278236420E+01  0.21839484392E+02  0.00000000000E+00 0. -1.
        -12    1    6    6    0    0  0.75557711506E+02 -0.10274305593E+02 -0.13884806986E+02  0.77506883491E+02  0.00000000000E+00 0.  1.
</event>
<event>
12    1  0.8451514E-002  0.3616249E+03  0.7818608E-02  0.1058032E+00
         21   -1    0    0  503  502  0.00000000000E+00  0.00000000000E+00  0.26012537002E+03  0.26012537002E+03  0.00000000000E+00 0.  1.
         21   -1    0    0  501  503 -0.00000000000E+00 -0.00000000000E+00 -0.51675929135E+03  0.51675929135E+03  0.00000000000E+00 0. -1.
          6    2    1    2  501    0 -0.29213615994E+02 -0.31528528524E+03 -0.19531435197E+03  0.41099912938E+03  0.17468354764E+03 0.  0.
         24    2    3    3    0    0 -0.71205289015E+02 -0.13420273632E+03 -0.54301797219E+02  0.17763070666E+03  0.74319682098E+02 0.  0.
         -6    2    1    2    0  502  0.29213615994E+02  0.31528528524E+03 -0.61319569368E+02  0.36588553199E+03  0.17278277254E+03 0.  0.
        -24    2    5    5    0    0 -0.11352301314E+02  0.32854402134E+02 -0.17052992059E+02  0.77104616339E+02  0.66678563556E+02 0.  0.
          5    1    3    3  501    0  0.41991673020E+02 -0.18108254892E+03 -0.14101255475E+03  0.23336842272E+03  0.47000000000E+01 0. -1.
        -13    1    4    4    0    0  0.10275680261E+02  0.14499268443E+01 -0.14930523184E+00  0.10378544442E+02  0.00000000000E+00 0.  1.
         14    1    4    4    0    0 -0.81480969275E+02 -0.13565266317E+03 -0.54152491988E+02  0.16725216222E+03  0.00000000000E+00 0. -1.
         -5    1    5    5    0  502  0.40565917308E+02  0.28243088310E+03 -0.44266577309E+02  0.28878091565E+03  0.47000000000E+01 0.  1.
         13    1    6    6    0    0  0.17474886960E+01  0.45452527269E+01  0.24593813640E+02  0.25071272574E+02  0.00000000000E+00 0. -1.
        -14    1    6    6    0    0 -0.13099790010E+02  0.28309149407E+02 -0.41646805699E+02  0.52033343765E+02  0.00000000000E+00 0.  1.
</event>
<event>
12    1  0.8451514E-002  0.1918623E+03  0.7818608E-02  0.1156936E+00
         21   -1    0    0  503  502  0.00000000000E+00  0.00000000000E+00  0.21679171984E+04  0.21679171984E+04  0.00000000000E+00 0. -1.
         21   -1    0    0  501  503 -0.00000000000E+00 -0.00000000000E+00 -0.23711047104E+02  0.23711047104E+02  0.00000000000E+00 0.  1.
          6    2    1    2  501    0 -0.68473069177E+02  0.51431341153E+02  0.48706831722E+03  0.52349468594E+03  0.17168982649E+03 0.  0.
         24    2    3    3    0    0 -0.10985485484E+03  0.24224489019E+02  0.40286041615E+03  0.42569015850E+03  0.79124466115E+02 0.  0.
         -6    2    1    2    0  502  0.68473069177E+02 -0.51431341153E+02  0.16571378341E+04  0.16681335595E+04  0.17096791317E+03 0.  0.
        -24    2    5    5    0    0 -0.19754801623E+02 -0.26492293226E+02  0.49814786104E+03  0.50551326002E+03  0.79374245248E+02 0.  0.
          5    1    3    3  501    0  0.41381785664E+02  0.27206852134E+02  0.84207901063E+02  0.97804527447E+02  0.47000000000E+01 0. -1.
        -11    1    4    4    0    0 -0.27784401036E+02  0.37243314341E+02  0.82058352112E+02  0.94300639210E+02  0.00000000000E+00 0.  1.
         12    1    4    4    0    0 -0.82070453805E+02 -0.13018825323E+02  0.32080206404E+03  0.33138951929E+03  0.00000000000E+00 0. -1.
         -5    1    5    5    0  502  0.88227870800E+02 -0.24939047927E+02  0.11589899730E+04  0.11626202995E+04  0.47000000000E+01 0.  1.
         11    1    6    6    0    0 -0.14970516777E+02  0.26715484016E+02  0.23589155296E+03  0.23787109580E+03  0.00000000000E+00 0. -1.
        -12    1    6    6    0    0 -0.47842848459E+01 -0.53207777242E+02  0.26225630808E+03  0.26764216422E+03  0.00000000000E+00 0.  1.
</event>
<event>
12    1  0.8451514E-002  0.2064094E+03  0.7818608E-02  0.1144499E+00
         21   -1    0    0  501  502  0.00000000000E+00  0.00000000000E+00  0.89149247686E+02  0.89149247686E+02  0.00000000000E+00 0. -1.
         21   -1    0    0  502  503 -0.00000000000E+00 -0.00000000000E+00 -0.72084324677E+03  0.72084324677E+03  0.00000000000E+00 0. -1.
         -6    2    1    2    0  503  0.11279500663E+03  0.13051981708E+02 -0.55142506078E+03  0.58879067119E+03  0.17237107959E+03 0.  0.
        -24    2    3    3    0    0  0.68359093102E+02  0.58812889149E+01 -0.52720887151E+03  0.53746345551E+03  0.78804927774E+02 0.  0.
          6    2    1    2  501    0 -0.11279500663E+03 -0.13051981708E+02 -0.80268938303E+02  0.22120182326E+03  0.17202928940E+03 0.  0.
         24    2    5    5    0    0 -0.78914134865E+02  0.40237035166E+02 -0.98719021819E+02  0.15524632028E+03  0.80681565506E+02 0.  0.
          5    1    5    5  501    0 -0.33880871769E+02 -0.53289016874E+02  0.18450083517E+02  0.65955502977E+02  0.47000000000E+01 0. -1.
        -13    1    6    6    0    0 -0.20429623103E+02 -0.52415068283E+01 -0.74306449287E+02  0.77241771727E+02  0.00000000000E+00 0.  1.
         14    1    6    6    0    0 -0.58484511763E+02  0.45478541994E+02 -0.24412572533E+02  0.78004548557E+02  0.00000000000E+00 0. -1.
         -5    1    3    3    0  503  0.44435913532E+02  0.71706927933E+01 -0.24216189262E+02  0.51327215675E+02  0.47000000000E+01 0.  1.
         13    1    4    4    0    0  0.68453261761E+02 -0.21665457442E+02 -0.44517565589E+03  0.45092860376E+03  0.00000000000E+00 0. -1.
        -14    1    4    4    0    0 -0.94168659636E-01  0.27546746357E+02 -0.82033215627E+02  0.86534851757E+02  0.00000000000E+00 0.  1.
</event>
<event>
12    1  0.8451514E-002  0.2033641E+03  0.7818608E-02  0.1147088E+00
         21   -1    0    0  503  502  0.00000000000E+00  0.00000000000E+00  0.17204701251E+03  0.17204701251E+03  0.00000000000E+00 0. -1.
         21   -1    0    0  501  503 -0.00000000000E+00 -0.00000000000E+00 -0.30839968376E+03  0.30839968376E+03  0.00000000000E+00 0.  1.
          6    2    1    2  501    0 -0.83941622823E+02  0.67886788619E+02 -0.18163424049E+03  0.27210236059E+03  0.17144644998E+03 0.  0.
         24    2    3    3    0    0  0.16433846370E+02  0.54213944653E+02 -0.10276007462E+03  0.14362899557E+03  0.82827726833E+02 0.  0.
         -6    2    1    2    0  502  0.83941622823E+02 -0.67886788619E+02  0.45281569237E+02  0.20834433568E+03  0.17234305784E+03 0.  0.
        -24    2    5    5    0    0  0.10914204186E+03 -0.65530763516E+02  0.76013083864E+02  0.16825533513E+03  0.79533657099E+02 0.  0.
          5    1    3    3  501    0 -0.10037546919E+03  0.13672843967E+02 -0.78874165869E+02  0.12847336502E+03  0.47000000000E+01 0. -1.
        -13    1    4    4    0    0  0.23466443753E+02 -0.11815131667E+02 -0.57646026700E+02  0.63350893545E+02  0.00000000000E+00 0.  1.
         14    1    4    4    0    0 -0.70325973828E+01  0.66029076319E+02 -0.45114047919E+02  0.80278102028E+02  0.00000000000E+00 0. -1.
         -5    1    5    5    0  502 -0.25200419041E+02 -0.23560251030E+01 -0.30731514627E+02  0.40089000553E+02  0.47000000000E+01 0.  1.
         11    1    6    6    0    0  0.32731433783E+02  0.17587310958E+02  0.17045852448E+02  0.40880574237E+02  0.00000000000E+00 0. -1.
        -12    1    6    6    0    0  0.76410608080E+02 -0.83118074474E+02  0.58967231415E+02  0.12737476089E+03  0.00000000000E+00 0.  1.
</event>
<event>
12    1  0.8451514E-002  0.1871734E+03  0.7818608E-02  0.1161724E+00
         21   -1    0    0  501  502  0.00000000000E+00  0.00000000000E+00  0.27722698893E+03  0.27722698893E+03  0.00000000000E+00 0. -1.
         21   -1    0    0  502  503 -0.00000000000E+00 -0.00000000000E+00 -0.18586574695E+03  0.18586574695E+03  0.00000000000E+00 0. -1.
         -6    2    1    2    0  503 -0.65180005970E+02 -0.91740788718E+01 -0.87251662731E+02  0.20651083014E+03  0.17521778852E+03 0.  0.
        -24    2    3    3    0    0 -0.55237986049E+02  0.29350252960E+02 -0.11890604393E+03  0.15545147495E+03  0.78191056590E+02 0.  0.
          6    2    1    2  501    0  0.65180005970E+02  0.91740788718E+01  0.17861290471E+03  0.25658190573E+03  0.17204391219E+03 0.  0.
         24    2    5    5    0    0 -0.20389408122E+02  0.40413204613E+02  0.78422572488E+02  0.12108946951E+03  0.80396546436E+02 0.  0.
          5    1    5    5  501    0  0.85569414093E+02 -0.31239125741E+02  0.10019033222E+03  0.13549243623E+03  0.47000000000E+01 0. -1.
        -11    1    6    6    0    0  0.18546134607E+02  0.48925650813E+02  0.41923168329E+02  0.67046479841E+02  0.00000000000E+00 0.  1.
         12    1    6    6    0    0 -0.38935542729E+02 -0.85124462002E+01  0.36499404160E+02  0.54042989665E+02  0.00000000000E+00 0. -1.
         -5    1    3    3    0  503 -0.99420199211E+01 -0.38524331832E+02  0.31654381198E+02  0.51059355188E+02  0.47000000000E+01 0.  1.
         13    1    4    4    0    0 -0.56123603149E+02  0.49228129766E+02 -0.68731440781E+02  0.10147550711E+03  0.00000000000E+00 0. -1.
        -14    1    4    4    0    0  0.88561709960E+00 -0.19877876805E+02 -0.50174603148E+02  0.53975967847E+02  0.00000000000E+00 0.  1.
</event>
<event>
12    1  0.8451514E-002  0.1950564E+03  0.7818608E-02  0.1155240E+00
         21   -1    0    0  503  502  0.00000000000E+00  0.00000000000E+00  0.59345425421E+02  0.59345425421E+02  0.00000000000E+00 0. -1.
         21   -1    0    0  501  503 -0.00000000000E+00 -0.00000000000E+00 -0.69747395933E+03  0.69747395933E+03  0.00000000000E+00 0. -1.
          6    2    1    2  501    0 -0.32832103436E+02 -0.86955036750E+02 -0.19080137166E+03  0.26881466680E+03  0.16497586559E+03 0.  0.
         24    2    3    3    0    0  0.61672957751E+01 -0.10325177791E+02 -0.46433039004E+02  0.10071530958E+03  0.88560158306E+02 0.  0.
         -6    2    1    2    0  502  0.32832103436E+02  0.86955036750E+02 -0.44732716225E+03  0.48800471795E+03  0.17148728590E+03 0.  0.
        -24    2    5    5    0    0  0.19584917987E+02  0.97903875204E+02 -0.19026967033E+03  0.23033048731E+03  0.82950877901E+02 0.  0.
          5    1    3    3  501    0 -0.38999399211E+02 -0.76629858959E+02 -0.14436833266E+03  0.16809935722E+03  0.47000000000E+01 0. -1.
        -11    1    4    4    0    0  0.31504239219E+01  0.95324607789E+01 -0.69447108526E+02  0.70169037774E+02  0.00000000000E+00 0.  1.
         12    1    4    4    0    0  0.30168718532E+01 -0.19857638570E+02  0.23014069522E+02  0.30546271807E+02  0.00000000000E+00 0. -1.
         -5    1    5    5    0  502  0.13247185449E+02 -0.10948838454E+02 -0.25705749192E+03  0.25767423064E+03  0.47000000000E+01 0.  1.
         11    1    6    6    0    0 -0.31446008420E+02  0.42806314349E+02 -0.96938906276E+02  0.11053679724E+03  0.00000000000E+00 0. -1.
        -12    1    6    6    0    0  0.51030926407E+02  0.55097560856E+02 -0.93330764055E+02  0.11979369007E+03  0.00000000000E+00 0.  1.
</event>
<event>
12    1  0.8451514E-002  0.1786075E+03  0.7818608E-02  0.1169515E+00
         21   -1    0    0  503  502  0.00000000000E+00  0.00000000000E+00  0.11136479907E+03  0.11136479907E+03  0.00000000000E+00 0.  1.
         21   -1    0    0  501  503 -0.00000000000E+00 -0.00000000000E+00 -0.35003318110E+03  0.35003318110E+03  0.00000000000E+00 0.  1.
          6    2    1    2  501    0  0.31430145742E+02  0.38616632778E+02 -0.21984183646E+03  0.28325090113E+03  0.17152708690E+03 0.  0.
         24    2    3    3    0    0  0.45460976052E+02  0.50560054148E+02 -0.23601660101E+03  0.25828647601E+03  0.79906497338E+02 0.  0.
         -6    2    1    2    0  502 -0.31430145742E+02 -0.38616632778E+02 -0.18826545570E+02  0.17814707904E+03  0.17000836616E+03 0.  0.
        -24    2    5    5    0    0 -0.44254966642E+02 -0.78650611552E+02 -0.44775841084E+02  0.12852197022E+03  0.79803509413E+02 0.  0.
          5    1    3    3  501    0 -0.14030830310E+02 -0.11943421370E+02  0.16174764548E+02  0.24964425116E+02  0.47000000000E+01 0. -1.
        -13    1    4    4    0    0  0.52819214890E+02  0.61930392969E-01 -0.13838150900E+03  0.14811926050E+03  0.00000000000E+00 0.  1.
         14    1    4    4    0    0 -0.73582388380E+01  0.50498123755E+02 -0.97635092012E+02  0.11016721551E+03  0.00000000000E+00 0. -1.
         -5    1    5    5    0  502  0.12824820901E+02  0.40033978774E+02  0.25949295514E+02  0.49625108818E+02  0.47000000000E+01 0.  1.
         11    1    6    6    0    0 -0.27611565440E+02 -0.88136367696E+01 -0.48644751928E+02  0.56625000038E+02  0.00000000000E+00 0. -1.
        -12    1    6    6    0    0 -0.16643401203E+02 -0.69836974782E+02  0.38689108441E+01  0.71896970183E+02  0.00000000000E+00 0.  1.
</event>
<event>
12    1  0.8451514E-002  0.1958099E+03  0.7818608E-02  0.1153352E+00
         21   -1    0    0  503  502  0.00000000000E+00  0.00000000000E+00  0.61109203282E+02  0.61109203282E+02  0.00000000000E+00 0.  1.
         21   -1    0    0  501  503 -0.00000000000E+00 -0.00000000000E+00 -0.11294339389E+04  0.11294339389E+04  0.00000000000E+00 0.  1.
          6    2    1    2  501    0  0.47664270901E+02  0.80881743448E+02 -0.93129748108E+03  0.95165988068E+03  0.17183652430E+03 0.  0.
         24    2    3    3    0    0  0.52137381402E+01 -0.20774453921E+02 -0.48937191299E+03  0.49618614057E+03  0.79101554162E+02 0.  0.
         -6    2    1    2    0  502 -0.47664270901E+02 -0.80881743448E+02 -0.13702725458E+03  0.23888326155E+03  0.17168286171E+03 0.  0.
        -24    2    5    5    0    0  0.61696579172E+01  0.17032806065E+02 -0.72343801474E+02  0.10968809908E+03  0.80434273212E+02 0.  0.
          5    1    3    3  501    0  0.42450532761E+02  0.10165619737E+03 -0.44192556809E+03  0.45547374011E+03  0.47000000000E+01 0. -1.
        -13    1    4    4    0    0  0.12829184730E+02  0.24122291485E+02 -0.30705556727E+03  0.30826870474E+03  0.00000000000E+00 0.  1.
         14    1    4    4    0    0 -0.76154465894E+01 -0.44896745406E+02 -0.18231634572E+03  0.18791743583E+03  0.00000000000E+00 0. -1.
         -5    1    5    5    0  502 -0.53833928818E+02 -0.97914549513E+02 -0.64683453107E+02  0.12919516246E+03  0.47000000000E+01 0.  1.
         11    1    6    6    0    0  0.38466015823E+02 -0.95457679385E+01 -0.26752142518E+02  0.47816662244E+02  0.00000000000E+00 0. -1.
        -12    1    6    6    0    0 -0.32296357906E+02  0.26578574004E+02 -0.45591658956E+02  0.61871436838E+02  0.00000000000E+00 0.  1.
</event>
<event>
12    1  0.8451514E-002  0.1879083E+03  0.7818608E-02  0.1161034E+00
         21   -1    0    0  501  502  0.00000000000E+00  0.00000000000E+00  0.97495882554E+03  0.97495882554E+03  0.00000000000E+00 0.  1.
         21   -1    0    0  502  503 -0.00000000000E+00 -0.00000000000E+00 -0.39422296515E+02  0.39422296515E+02  0.00000000000E+00 0.  1.
         -6    2    1    2    0  503  0.73261877699E+02  0.10754030101E+02  0.31432369369E+03  0.36620882418E+03  0.17270369597E+03 0.  0.
        -24    2    3    3    0    0  0.15666891980E+02 -0.46228825981E+02  0.23376567193E+03  0.25185886512E+03  0.80024638133E+02 0.  0.
          6    2    1    2  501    0 -0.73261877699E+02 -0.10754030101E+02  0.62121283534E+03  0.64817229788E+03  0.16952577700E+03 0.  0.
         24    2    5    5    0    0 -0.88146622320E+02 -0.31420610093E+02  0.60639284057E+03  0.61833297155E+03  0.76591806646E+02 0.  0.
          5    1    5    5  501    0  0.14884744621E+02  0.20666579992E+02  0.14819994765E+02  0.29839326330E+02  0.47000000000E+01 0. -1.
        -13    1    6    6    0    0 -0.55134326825E+02 -0.20865595218E+02  0.15860960435E+03  0.16921044191E+03  0.00000000000E+00 0.  1.
         14    1    6    6    0    0 -0.33012295495E+02 -0.10555014875E+02  0.44778323622E+03  0.44912252964E+03  0.00000000000E+00 0. -1.
         -5    1    3    3    0  503  0.57594985719E+02  0.56982856082E+02  0.80558021760E+02  0.11434995906E+03  0.47000000000E+01 0.  1.
         13    1    4    4    0    0  0.40598905551E+02 -0.48697235273E+02  0.20003142140E+03  0.20983865565E+03  0.00000000000E+00 0. -1.
        -14    1    4    4    0    0 -0.24932013571E+02  0.24684092921E+01  0.33734250527E+02  0.42020209469E+02  0.00000000000E+00 0.  1.
</event>
<event>
12    1  0.8451514E-002  0.1860143E+03  0.7818608E-02  0.1162708E+00
         21   -1    0    0  501  502  0.00000000000E+00  0.00000000000E+00  0.13371230785E+03  0.13371230785E+03  0.00000000000E+00 0. -1.
         21   -1    0    0  502  503 -0.00000000000E+00 -0.00000000000E+00 -0.52020942787E+03  0.52020942787E+03  0.00000000000E+00 0. -1.
         -6    2    1    2    0  503 -0.60887612339E+02  0.12177790828E+02 -0.42595012623E+03  0.46376950721E+03  0.17260662169E+03 0.  0.
        -24    2    3    3    0    0 -0.77905893562E+02  0.64367260465E+02 -0.30746391372E+03  0.33310032495E+03  0.78799084823E+02 0.  0.
          6    2    1    2  501    0  0.60887612339E+02 -0.12177790828E+02  0.39453006210E+02  0.19015222851E+03  0.17534460466E+03 0.  0.
         24    2    5    5    0    0  0.39754060726E+01 -0.66813910661E+02  0.94814050131E+01  0.10562713348E+03  0.81162132638E+02 0.  0.
          5    1    5    5  501    0  0.56912206267E+02  0.54636119833E+02  0.29971601197E+02  0.84525095036E+02  0.47000000000E+01 0. -1.
        -13    1    6    6    0    0  0.31287008105E+01  0.91892134084E+01 -0.21467271969E+02  0.23560012259E+02  0.00000000000E+00 0.  1.
         14    1    6    6    0    0  0.84670526212E+00 -0.76003124070E+02  0.30948676982E+02  0.82067121219E+02  0.00000000000E+00 0. -1.
         -5    1    3    3    0  503  0.17018281222E+02 -0.52189469637E+02 -0.11848621251E+03  0.13066918226E+03  0.47000000000E+01 0.  1.
         11    1    4    4    0    0 -0.42536547673E+02  0.75845935371E+02 -0.24963627091E+03  0.26434869312E+03  0.00000000000E+00 0. -1.
        -12    1    4    4    0    0 -0.35369345888E+02 -0.11478674905E+02 -0.57827642815E+02  0.68751631833E+02  0.00000000000E+00 0.  1.
</event>
<event>
12    1  0.8451514E-002  0.1885316E+03  0.7818608E-02  0.1161104E+00
         21   -1    0    0  503  502  0.00000000000E+00  0.00000000000E+00  0.25492381959E+02  0.25492381959E+02  0.00000000000E+00 0. -1.
         21   -1    0    0  501  503 -0.00000000000E+00 -0.00000000000E+00 -0.17987376514E+04  0.17987376514E+04  0.00000000000E+00 0. -1.
          6    2    1    2  501    0 -0.63852789218E+02  0.24330264384E+02 -0.42230459343E+03  0.46019745113E+03  0.16962129565E+03 0.  0.
         24    2    3    3    0    0 -0.74285663856E+02 -0.14209776154E+01 -0.41807157658E+03  0.43170219241E+03  0.77862447660E+02 0.  0.
         -6    2    1    2    0  502  0.63852789218E+02 -0.24330264384E+02 -0.13509406760E+04  0.13640325822E+04  0.17571293299E+03 0.  0.
        -24    2    5    5    0    0  0.41457512154E+02 -0.85652850557E+02 -0.83504428755E+03  0.84400067778E+03  0.77350150687E+02 0.  0.
          5    1    3    3  501    0  0.10432874638E+02  0.25751241999E+02 -0.42330168465E+01  0.28495258717E+02  0.47000000000E+01 0. -1.
        -11    1    4    4    0    0 -0.83274635990E+02  0.37746083391E+01 -0.41043228807E+03  0.41881210077E+03  0.00000000000E+00 0.  1.
         12    1    4    4    0    0  0.89889721337E+01 -0.51955859546E+01 -0.76392885177E+01  0.12890091640E+02  0.00000000000E+00 0. -1.
         -5    1    5    5    0  502  0.22395277064E+02  0.61322586173E+02 -0.51589638842E+03  0.52003190440E+03  0.47000000000E+01 0.  1.
         11    1    6    6    0    0  0.16373602846E+02  0.11446930876E+01 -0.36399820169E+03  0.36436807767E+03  0.00000000000E+00 0. -1.
        -12    1    6    6    0    0  0.25083909308E+02 -0.86797543645E+02 -0.47104608586E+03  0.47963260011E+03  0.00000000000E+00 0.  1.
</event>
<event>
12    1  0.8451514E-002  0.2597769E+03  0.7818608E-02  0.1107479E+00
         21   -1    0    0  501  502  0.00000000000E+00  0.00000000000E+00  0.72125335719E+02  0.72125335719E+02  0.00000000000E+00 0.  1.
         21   -1    0    0  502  503 -0.00000000000E+00 -0.00000000000E+00 -0.13712444754E+04  0.13712444754E+04  0.00000000000E+00 0.  1.
         -6    2    1    2    0  503  0.59494575903E+02 -0.18469874284E+03 -0.10574146574E+04  0.10885387179E+04  0.17069725453E+03 0.  0.
        -24    2    3    3    0    0 -0.17112396350E+02 -0.33124543546E+02 -0.39001628604E+03  0.39985443460E+03  0.79879884828E+02 0.  0.
          6    2    1    2  501    0 -0.59494575903E+02  0.18469874284E+03 -0.24170448235E+03  0.35483109320E+03  0.17271600315E+03 0.  0.
         24    2    5    5    0    0 -0.22018180615E+02  0.17699943179E+03 -0.12337849446E+03  0.23038476339E+03  0.77725717585E+02 0.  0.
          5    1    5    5  501    0 -0.37476395288E+02  0.76993110509E+01 -0.11832598788E+03  0.12444632981E+03  0.47000000000E+01 0. -1.
        -11    1    6    6    0    0 -0.38094094767E+02  0.10734769239E+03 -0.40392361022E+02  0.12085623669E+03  0.00000000000E+00 0.  1.
         12    1    6    6    0    0  0.16075914152E+02  0.69651739392E+02 -0.82986133441E+02  0.10952852669E+03  0.00000000000E+00 0. -1.
         -5    1    3    3    0  503  0.76606972253E+02 -0.15157419929E+03 -0.66739837131E+03  0.68868428334E+03  0.47000000000E+01 0.  1.
         13    1    4    4    0    0 -0.35549716043E+02 -0.48522922328E+02 -0.32549620686E+03  0.33100760865E+03  0.00000000000E+00 0. -1.
        -14    1    4    4    0    0  0.18437319694E+02  0.15398378782E+02 -0.64520079178E+02  0.68846825952E+02  0.00000000000E+00 0.  1.
</event>
<event>
12    1  0.8451514E-002  0.2042321E+03  0.7818608E-02  0.1146218E+00
         21   -1    0    0  501  502  0.00000000000E+00  0.00000000000E+00  0.27689694230E+03  0.27689694230E+03  0.00000000000E+00 0.  1.
         21   -1    0    0  502  503 -0.00000000000E+00 -0.00000000000E+00 -0.30042145775E+03  0.30042145775E+03  0.00000000000E+00 0. -1.
         -6    2    1    2    0  503  0.75209173507E+02  0.79989511419E+02 -0.21558930028E+03  0.29696717236E+03  0.17220921389E+03 0.  0.
        -24    2    3    3    0    0  0.82265946449E+02  0.11722982483E+03 -0.15894501023E+03  0.22864949835E+03  0.80663244685E+02 0.  0.
          6    2    1    2  501    0 -0.75209173507E+02 -0.79989511419E+02  0.19206478482E+03  0.28035122769E+03  0.17220100923E+03 0.  0.
         24    2    5    5    0    0 -0.62583330795E+01 -0.94432508243E+02  0.83003568664E+02  0.15043103132E+03  0.82360411775E+02 0.  0.
          5    1    5    5  501    0 -0.68950840428E+02  0.14442996824E+02  0.10906121616E+03  0.12992019636E+03  0.47000000000E+01 0. -1.
        -11    1    6    6    0    0 -0.39991636305E+02 -0.31517930707E+02  0.51431861812E+02  0.72373664684E+02  0.00000000000E+00 0.  1.
         12    1    6    6    0    0  0.33733303225E+02 -0.62914577535E+02  0.31571706852E+02  0.78057366638E+02  0.00000000000E+00 0. -1.
         -5    1    3    3    0  503 -0.70567729424E+01 -0.37240313411E+02 -0.56644290048E+02  0.68317674012E+02  0.47000000000E+01 0.  1.
         11    1    4    4    0    0  0.65490886259E+02  0.85907348720E+02 -0.16005820955E+03  0.19310038631E+03  0.00000000000E+00 0. -1.
        -12    1    4    4    0    0  0.16775060191E+02  0.31322476109E+02  0.11131993243E+01  0.35549112039E+02  0.00000000000E+00 0.  1.
</event>
<event>
12    1  0.8451514E-002  0.3128759E+03  0.7818608E-02  0.1079010E+00
         21   -1    0    0  501  502  0.00000000000E+00  0.00000000000E+00  0.17494374229E+04  0.17494374229E+04  0.00000000000E+00 0. -1.
         21   -1    0    0  502  503 -0.00000000000E+00 -0.00000000000E+00 -0.63837907062E+02  0.63837907062E+02  0.00000000000E+00 0.  1.
         -6    2    1    2    0  503  0.14097739233E+03  0.21975057206E+03  0.52351070813E+03  0.60988097785E+03  0.17241347553E+03 0.  0.
        -24    2    3    3    0    0  0.81542012565E+02  0.10564793263E+03  0.40927747910E+03  0.43776677940E+03  0.79505426028E+02 0.  0.
          6    2    1    2  501    0 -0.14097739233E+03 -0.21975057206E+03  0.11620888077E+04  0.12033943521E+04  0.17187969817E+03 0.  0.
         24    2    5    5    0    0 -0.54186938164E+02 -0.35448917576E+02  0.27084876839E+03  0.28915664754E+03  0.77843827349E+02 0.  0.
          5    1    5    5  501    0 -0.86790454162E+02 -0.18430165448E+03  0.89124003934E+03  0.91423770460E+03  0.47000000000E+01 0. -1.
        -13    1    6    6    0    0 -0.61009938222E+02 -0.54001603505E+02  0.21962753079E+03  0.23425336289E+03  0.00000000000E+00 0.  1.
         14    1    6    6    0    0  0.68230000583E+01  0.18552685929E+02  0.51221237595E+02  0.54903284653E+02  0.00000000000E+00 0. -1.
         -5    1    3    3    0  503  0.59435379761E+02  0.11410263943E+03  0.11423322904E+03  0.17211419845E+03  0.47000000000E+01 0.  1.
         11    1    4    4    0    0  0.85416386099E+02  0.48839644020E+02  0.25683608044E+03  0.27503825562E+03  0.00000000000E+00 0. -1.
        -12    1    4    4    0    0 -0.38743735339E+01  0.56808288607E+02  0.15244139866E+03  0.16272852378E+03  0.00000000000E+00 0.  1.
</event>
<event>
12    1  0.8451514E-002  0.1921439E+03  0.7818608E-02  0.1156744E+00
         21   -1    0    0  503  502  0.00000000000E+00  0.00000000000E+00  0.13616377395E+04  0.13616377395E+04  0.00000000000E+00 0.  1.
         21   -1    0    0  501  503 -0.00000000000E+00 -0.00000000000E+00 -0.58837459272E+02  0.58837459272E+02  0.00000000000E+00 0.  1.
          6    2    1    2  501    0 -0.83336588932E+02 -0.13658032773E+02  0.12812606113E+03  0.23019002197E+03  0.17157980581E+03 0.  0.
         24    2    3    3    0    0 -0.29288098269E+02  0.11041314576E+02 -0.43248216340E+01  0.84943254547E+02  0.78847632070E+02 0.  0.
         -6    2    1    2    0  502  0.83336588932E+02  0.13658032773E+02  0.11746742191E+04  0.11902851768E+04  0.17259128653E+03 0.  0.
        -24    2    5    5    0    0  0.11293923070E+03 -0.39096871187E+01  0.65820059076E+03  0.67264433611E+03  0.80323282677E+02 0.  0.
          5    1    3    3  501    0 -0.54048490663E+02 -0.24699347349E+02  0.13245088276E+03  0.14524676743E+03  0.47000000000E+01 0. -1.
        -11    1    4    4    0    0 -0.23320078485E+02 -0.53673039626E+01  0.34722642487E+02  0.42169846023E+02  0.00000000000E+00 0.  1.
         12    1    4    4    0    0 -0.59680197845E+01  0.16408618539E+02 -0.39047464121E+02  0.42773408524E+02  0.00000000000E+00 0. -1.
         -5    1    5    5    0  502 -0.29602641769E+02  0.17567719892E+02  0.51647362836E+03  0.51764084072E+03  0.47000000000E+01 0.  1.
         13    1    6    6    0    0  0.48654926762E+01  0.14719494442E+02  0.21150945173E+02  0.26224016041E+02  0.00000000000E+00 0. -1.
        -14    1    6    6    0    0  0.10807373802E+03 -0.18629181560E+02  0.63704964558E+03  0.64642032007E+03  0.00000000000E+00 0.  1.
</event>
<event>
12    1  0.8451514E-002  0.2391606E+03  0.7818608E-02  0.1120420E+00
         21   -1    0    0  503  502  0.00000000000E+00  0.00000000000E+00  0.14566769396E+03  0.14566769396E+03  0.00000000000E+00 0.  1.
         21   -1    0    0  501  503 -0.00000000000E+00 -0.00000000000E+00 -0.39416416714E+03  0.39416416714E+03  0.00000000000E+00 0.  1.
          6    2    1    2  501    0 -0.31517722976E+02 -0.16327149530E+03 -0.14412710223E+03  0.27888978693E+03  0.17133576280E+03 0.  0.
         24    2    3    3    0    0 -0.14599823349E+02 -0.18562039094E+03 -0.98993355710E+02  0.22555280596E+03  0.80039361743E+02 0.  0.
         -6    2    1    2    0  502  0.31517722976E+02  0.16327149530E+03 -0.10436937095E+03  0.26094207417E+03  0.17189197899E+03 0.  0.
        -24    2    5    5    0    0  0.98701970664E+01  0.38090121324E+02 -0.97951613165E+02  0.13365393889E+03  0.81979135918E+02 0.  0.
          5    1    3    3  501    0 -0.16917899627E+02  0.22348895633E+02 -0.45133746525E+02  0.53336980972E+02  0.47000000000E+01 0. -1.
        -13    1    4    4    0    0  0.18573707828E+02 -0.12993982693E+03 -0.92152809530E+02  0.16037918054E+03  0.00000000000E+00 0.  1.
         14    1    4    4    0    0 -0.33173531177E+02 -0.55680564003E+02 -0.68405461793E+01  0.65173625420E+02  0.00000000000E+00 0. -1.
         -5    1    5    5    0  502  0.21647525909E+02  0.12518137398E+03 -0.64177577858E+01  0.12728813529E+03  0.47000000000E+01 0.  1.
         11    1    6    6    0    0 -0.32532737307E+02  0.35445591334E+02 -0.57722669968E+02  0.75144364858E+02  0.00000000000E+00 0. -1.
        -12    1    6    6    0    0  0.42402934373E+02  0.26445299899E+01 -0.40228943196E+02  0.58509574029E+02  0.00000000000E+00 0.  1.
</event>
<event>
12    1  0.8451514E-002  0.2026195E+03  0.7818608E-02  0.1148020E+00
         21   -1    0    0  503  502  0.00000000000E+00  0.00000000000E+00  0.12116151300E+04  0.12116151300E+04  0.00000000000E+00 0. -1.
         21   -1    0    0  501  503 -0.00000000000E+00 -0.00000000000E+00 -0.61200942517E+02  0.61200942517E+02  0.00000000000E+00 0.  1.
          6    2    1    2  501    0  0.62135786466E+02 -0.83531034546E+02  0.14533853799E+03  0.24752016119E+03  0.17118600958E+03 0.  0.
         24    2    3    3    0    0 -0.31955542347E+02 -0.50699317607E+02  0.82899293542E+02  0.12982628266E+03  0.79943688354E+02 0.  0.
         -6    2    1    2    0  502 -0.62135786466E+02  0.83531034546E+02  0.10050756495E+04  0.10252959113E+04  0.17382852151E+03 0.  0.
        -24    2    5    5    0    0 -0.10584057396E+03  0.84719651002E+02  0.75630961671E+03  0.77267336616E+03  0.81487717397E+02 0.  0.
          5    1    3    3  501    0  0.94091328813E+02 -0.32831716940E+02  0.62439244445E+02  0.11769387852E+03  0.47000000000E+01 0. -1.
        -13    1    4    4    0    0  0.23188263260E+02 -0.24166178347E+02  0.10651497511E+02  0.35144759611E+02  0.00000000000E+00 0.  1.
         14    1    4    4    0    0 -0.55143805607E+02 -0.26533139259E+02  0.72247796032E+02  0.94681523051E+02  0.00000000000E+00 0. -1.
         -5    1    5    5    0  502  0.43704787499E+02 -0.11886164560E+01  0.24876603279E+03  0.25262254517E+03  0.47000000000E+01 0.  1.
         11    1    6    6    0    0 -0.65157301856E+02  0.50853779658E+02  0.63447834829E+03  0.63983931994E+03  0.00000000000E+00 0. -1.
        -12    1    6    6    0    0 -0.40683272109E+02  0.33865871345E+02  0.12183126841E+03  0.13283404622E+03  0.00000000000E+00 0.  1.
</event>
<event>
12    1  0.8451514E-002  0.3682084E+03  0.7818608E-02  0.1055380E+00
         21   -1    0    0  501  502  0.00000000000E+00  0.00000000000E+00  0.26754513211E+03  0.26754513211E+03  0.00000000000E+00 0. -1.
         21   -1    0    0  502  503 -0.00000000000E+00 -0.00000000000E+00 -0.62074430718E+03  0.62074430718E+03  0.00000000000E+00 0.  1.
         -6    2    1    2    0  503 -0.60129763064E+02 -0.31941986398E+03 -0.36693655806E+03  0.51982485570E+03  0.17300521683E+03 0.  0.
        -24    2    3    3    0    0  0.10190869378E+02 -0.25729622167E+03 -0.23038922558E+03  0.35407926062E+03  0.77380411162E+02 0.  0.
          6    2    1    2  501    0  0.60129763064E+02  0.31941986398E+03  0.13737382993E+02  0.36846458359E+03  0.17301097006E+03 0.  0.
         24    2    5    5    0    0  0.14345347370E+02  0.52030202666E+02 -0.74585186898E+01  0.96316094815E+02  0.79424364264E+02 0.  0.
          5    1    5    5  501    0  0.45784415694E+02  0.26738966131E+03  0.21195901683E+02  0.27214848878E+03  0.47000000000E+01 0. -1.
        -11    1    6    6    0    0 -0.16478306157E+02  0.24182760868E+02 -0.35643160202E+02  0.46116974816E+02  0.00000000000E+00 0.  1.
         12    1    6    6    0    0  0.30823653527E+02  0.27847441799E+02  0.28184641512E+02  0.50199119999E+02  0.00000000000E+00 0. -1.
         -5    1    3    3    0  503 -0.70320632443E+02 -0.62123642301E+02 -0.13654733248E+03  0.16574559507E+03  0.47000000000E+01 0.  1.
         13    1    4    4    0    0  0.35525004843E+02 -0.15067417258E+03 -0.10252734078E+03  0.18567872215E+03  0.00000000000E+00 0. -1.
        -14    1    4    4    0    0 -0.25334135464E+02 -0.10662204909E+03 -0.12786188480E+03  0.16840053847E+03  0.00000000000E+00 0.  1.
</event>
<event>
12    1  0.8451514E-002  0.1969289E+03  0.7818608E-02  0.1152428E+00
         21   -1    0    0  503  502  0.00000000000E+00  0.00000000000E+00  0.85420630153E+02  0.85420630153E+02  0.00000000000E+00 0. -1.
         21   -1    0    0  501  503 -0.00000000000E+00 -0.00000000000E+00 -0.53190193797E+03  0.53190193797E+03  0.00000000000E+00 0. -1.
          6    2    1    2  501    0  0.96207774683E+01  0.95370039210E+02 -0.34178213511E+03  0.39429136766E+03  0.17164687876E+03 0.  0.
         24    2    3    3    0    0 -0.52921698084E+02  0.94184564524E+02 -0.20791064036E+03  0.24645147552E+03  0.76420266230E+02 0.  0.
         -6    2    1    2    0  502 -0.96207774683E+01 -0.95370039210E+02 -0.10469917270E+03  0.22303120047E+03  0.17202614882E+03 0.  0.
        -24    2    5    5    0    0 -0.65132392055E+02 -0.94989328516E+02 -0.65240232478E+02  0.15476127840E+03  0.80184564181E+02 0.  0.
          5    1    3    3  501    0  0.62542475552E+02  0.11854746865E+01 -0.13387149476E+03  0.14783989214E+03  0.47000000000E+01 0. -1.
        -13    1    4    4    0    0 -0.11216224931E+01  0.74694186903E+02 -0.14144448639E+03  0.15995943962E+03  0.00000000000E+00 0.  1.
         14    1    4    4    0    0 -0.51800075591E+02  0.19490377621E+02 -0.66466153971E+02  0.86492035903E+02  0.00000000000E+00 0. -1.
         -5    1    5    5    0  502  0.55511614586E+02 -0.38071069401E+00 -0.39458940226E+02  0.68269922062E+02  0.47000000000E+01 0.  1.
         11    1    6    6    0    0  0.15683772921E+01 -0.33752328940E+01  0.15291500966E+02  0.15737916197E+02  0.00000000000E+00 0. -1.
        -12    1    6    6    0    0 -0.66700769347E+02 -0.91614095622E+02 -0.80531733444E+02  0.13902336221E+03  0.00000000000E+00 0.  1.
</event>
<event>
12    1  0.8451514E-002  0.2288190E+03  0.7818608E-02  0.1127809E+00
         21   -1    0    0  501  502  0.00000000000E+00  0.00000000000E+00  0.54009657685E+03  0.54009657685E+03  0.00000000000E+00 0. -1.
         21   -1    0    0  502  503 -0.00000000000E+00 -0.00000000000E+00 -0.14576176533E+03  0.14576176533E+03  0.00000000000E+00 0. -1.
         -6    2    1    2    0  503 -0.77963558835E+02 -0.12532956167E+03 -0.34429686306E+01  0.22696260359E+03  0.17237851915E+03 0.  0.
        -24    2    3    3    0    0 -0.22033209122E+02 -0.69728666772E+02  0.60273746089E+02  0.12546593731E+03  0.82226684740E+02 0.  0.
          6    2    1    2  501    0  0.77963558835E+02  0.12532956167E+03  0.39777778015E+03  0.45889573858E+03  0.17484942371E+03 0.  0.
         24    2    5    5    0    0  0.93763453302E+02  0.14515033102E+03  0.38481924641E+03  0.43004243445E+03  0.83608846687E+02 0.  0.
          5    1    5    5  501    0 -0.15799894467E+02 -0.19820769351E+02  0.12958533738E+02  0.28853304134E+02  0.47000000000E+01 0. -1.
        -13    1    6    6    0    0  0.39982942544E+02  0.44881923148E+02  0.23113402926E+03  0.23882203039E+03  0.00000000000E+00 0.  1.
         14    1    6    6    0    0  0.53780510758E+02  0.10026840787E+03  0.15368521716E+03  0.19122040405E+03  0.00000000000E+00 0. -1.
         -5    1    3    3    0  503 -0.55930349713E+02 -0.55600894895E+02 -0.63716714720E+02  0.10149666628E+03  0.47000000000E+01 0.  1.
         13    1    4    4    0    0 -0.72173797064E+01 -0.16271547889E+02 -0.20707842841E+02  0.27306933106E+02  0.00000000000E+00 0. -1.
        -14    1    4    4    0    0 -0.14815829416E+02 -0.53457118883E+02  0.80981588930E+02  0.98159004204E+02  0.00000000000E+00 0.  1.
</event>
<event>
12    1  0.8451514E-002  0.1736665E+03  0.7818608E-02  0.1174090E+00
         21   -1    0    0  501  502  0.00000000000E+00  0.00000000000E+00  0.23630699367E+03  0.23630699367E+03  0.00000000000E+00 0. -1.
         21   -1    0    0  502  503 -0.00000000000E+00 -0.00000000000E+00 -0.14334796424E+03  0.14334796424E+03  0.00000000000E+00 0. -1.
         -6    2    1    2    0  503 -0.26716914852E+02  0.78284901440E+00 -0.16444366245E+02  0.17444336251E+03  0.17159738678E+03 0.  0.
        -24    2    3    3    0    0 -0.17952582493E+02  0.58867685360E+02 -0.43042267167E+02  0.10978889577E+03  0.80082865048E+02 0.  0.
          6    2    1    2  501    0  0.26716914853E+02 -0.78284901440E+00  0.10940339568E+03  0.20521159541E+03  0.17154675605E+03 0.  0.
         24    2    5    5    0    0  0.64930464685E+02 -0.24034903279E+02  0.11917259801E+03  0.15918485609E+03  0.79649660848E+02 0.  0.
          5    1    5    5  501    0 -0.38213549833E+02  0.23252054265E+02 -0.97692023265E+01  0.46026739320E+02  0.47000000000E+01 0. -1.
        -11    1    6    6    0    0  0.76972833947E+02  0.14172456467E+01  0.93130721269E+02  0.12083110938E+03  0.00000000000E+00 0.  1.
         12    1    6    6    0    0 -0.12042369262E+02 -0.25452148926E+02  0.26041876737E+02  0.38353746705E+02  0.00000000000E+00 0. -1.
         -5    1    3    3    0  503 -0.87643323596E+01 -0.58084836346E+02  0.26597900922E+02  0.64654466733E+02  0.47000000000E+01 0.  1.
         11    1    4    4    0    0 -0.30126002429E+02  0.60693722368E+02 -0.29213921064E+01  0.67822109147E+02  0.00000000000E+00 0. -1.
        -12    1    4    4    0    0  0.12173419936E+02 -0.18260370083E+01 -0.40120875061E+02  0.41966786626E+02  0.00000000000E+00 0.  1.
</event>
<event>
12    1  0.8451514E-002  0.5860741E+03  0.7818608E-02  0.9935367E-01
         21   -1    0    0  501  502  0.00000000000E+00  0.00000000000E+00  0.27284994287E+04  0.27284994287E+04  0.00000000000E+00 0.  1.
         21   -1    0    0  502  503 -0.00000000000E+00 -0.00000000000E+00 -0.14226125283E+03  0.14226125283E+03  0.00000000000E+00 0.  1.
         -6    2    1    2    0  503  0.16082449301E+03 -0.53654577927E+03  0.80116855524E+03  0.99194284979E+03  0.16832608991E+03 0.  0.
        -24    2    3    3    0    0  0.17666750985E+03 -0.51141555520E+03  0.78763257569E+03  0.95896039859E+03  0.80515170313E+02 0.  0.
          6    2    1    2  501    0 -0.16082449301E+03  0.53654577927E+03  0.17850696206E+04  0.18788178317E+04  0.17244420429E+03 0.  0.
         24    2    5    5    0    0 -0.11233023609E+02  0.19632342299E+03  0.66326911198E+03  0.69704487105E+03  0.85302814233E+02 0.  0.
          5    1    5    5  501    0 -0.14959146940E+03  0.34022235628E+03  0.11218005086E+04  0.11817729607E+04  0.47000000000E+01 0. -1.
        -13    1    6    6    0    0 -0.26452762925E+02  0.11944662304E+03  0.51507491491E+03  0.52940477179E+03  0.00000000000E+00 0.  1.
         14    1    6    6    0    0  0.15219739316E+02  0.76876799951E+02  0.14819419707E+03  0.16764009927E+03  0.00000000000E+00 0. -1.
         -5    1    3    3    0  503 -0.15843016846E+02 -0.25130224066E+02  0.13535979554E+02  0.32982451196E+02  0.47000000000E+01 0.  1.
         13    1    4    4    0    0  0.28251339659E+02 -0.39576935331E+02  0.42395909199E+02  0.64512674100E+02  0.00000000000E+00 0. -1.
        -14    1    4    4    0    0  0.14841617019E+03 -0.47183861987E+03  0.74523666649E+03  0.89444772449E+03  0.00000000000E+00 0.  1.
</event>
<event>
12    1  0.8451514E-002  0.2052459E+03  0.7818608E-02  0.1145464E+00
         21   -1    0    0  503  502  0.00000000000E+00  0.00000000000E+00  0.54754418524E+03  0.54754418524E+03  0.00000000000E+00 0.  1.
         21   -1    0    0  501  503 -0.00000000000E+00 -0.00000000000E+00 -0.99314155874E+02  0.99314155874E+02  0.00000000000E+00 0.  1.
          6    2    1    2  501    0 -0.96794134752E+02  0.55710160858E+02  0.70264785862E+02  0.21694015786E+03  0.17220094487E+03 0.  0.
         24    2    3    3    0    0 -0.50571481616E+02  0.44539144264E+02  0.11204248048E+03  0.15346739959E+03  0.80358665858E+02 0.  0.
         -6    2    1    2    0  502  0.96794134752E+02 -0.55710160858E+02  0.37796524351E+03  0.42991818326E+03  0.17175328949E+03 0.  0.
        -24    2    5    5    0    0  0.85560689378E+02 -0.46719752182E+01  0.12402225097E+03  0.17061099063E+03  0.79900766392E+02 0.  0.
          5    1    3    3  501    0 -0.46222653137E+02  0.11171016594E+02 -0.41777694621E+02  0.63472758272E+02  0.47000000000E+01 0. -1.
        -13    1    4    4    0    0 -0.54160882038E+02  0.82549761642E+00  0.88306451320E+02  0.10359590694E+03  0.00000000000E+00 0.  1.
         14    1    4    4    0    0  0.35894004221E+01  0.43713646648E+02  0.23736029163E+02  0.49871492650E+02  0.00000000000E+00 0. -1.
         -5    1    5    5    0  502  0.11233445375E+02 -0.51038185640E+02  0.25394299254E+03  0.25930719263E+03  0.47000000000E+01 0.  1.
         13    1    6    6    0    0  0.46072092880E+02 -0.25778329694E+02  0.18430540860E+02  0.55918197937E+02  0.00000000000E+00 0. -1.
        -14    1    6    6    0    0  0.39488596498E+02  0.21106354476E+02  0.10559171011E+03  0.11469279269E+03  0.00000000000E+00 0.  1.
</event>
<event>
12    1  0.8451514E-002  0.3559284E+03  0.7818608E-02  0.1060642E+00
         21   -1    0    0  503  502  0.00000000000E+00  0.00000000000E+00  0.96611781537E+03  0.96611781537E+03  0.00000000000E+00 0.  1.
         21   -1    0    0  501  503 -0.00000000000E+00 -0.00000000000E+00 -0.25046682280E+03  0.25046682280E+03  0.00000000000E+00 0. -1.
          6    2    1    2  501    0  0.19932921303E+03  0.23294538026E+03 -0.63697106227E+02  0.36158308992E+03  0.18080189221E+03 0.  0.
         24    2    3    3    0    0  0.65143119546E+02  0.40210569266E+02  0.19477543691E+02  0.11239896635E+03  0.79960221502E+02 0.  0.
         -6    2    1    2    0  502 -0.19932921303E+03 -0.23294538026E+03  0.77934809880E+03  0.85500154824E+03  0.17218740676E+03 0.  0.
        -24    2    5    5    0    0 -0.13572452383E+03 -0.17157541745E+03  0.37744460506E+03  0.44346742195E+03  0.79621945478E+02 0.  0.
          5    1    3    3  501    0  0.13418609348E+03  0.19273481100E+03 -0.83174649918E+02  0.24918412358E+03  0.47000000000E+01 0. -1.
        -11    1    4    4    0    0  0.62498521753E+02  0.19882850183E+02 -0.19446257633E+02  0.68407235645E+02  0.00000000000E+00 0.  1.
         12    1    4    4    0    0  0.26445977930E+01  0.20327719083E+02  0.38923801324E+02  0.43991730701E+02  0.00000000000E+00 0. -1.
         -5    1    5    5    0  502 -0.63604689195E+02 -0.61369962815E+02  0.40190349373E+03  0.41153412629E+03  0.47000000000E+01 0.  1.
         11    1    6    6    0    0 -0.10064270707E+03 -0.15709274521E+03  0.25977450450E+03  0.31982788852E+03  0.00000000000E+00 0. -1.
        -12    1    6    6    0    0 -0.35081816764E+02 -0.14482672237E+02  0.11767010056E+03  0.12363953344E+03  0.00000000000E+00 0.  1.
</event>
<event>
12    1  0.8451514E-002  0.2500929E+03  0.7818608E-02  0.1113296E+00
         21   -1    0    0  503  502  0.00000000000E+00  0.00000000000E+00  0.57098610866E+02  0.57098610866E+02  0.00000000000E+00 0. -1.
         21   -1    0    0  501  503 -0.00000000000E+00 -0.00000000000E+00 -0.14297622281E+04  0.14297622281E+04  0.00000000000E+00 0.  1.
          6    2    1    2  501    0 -0.13321290094E+03  0.12259769073E+03 -0.10469074399E+04  0.10763650148E+04  0.17254155071E+03 0.  0.
         24    2    3    3    0    0 -0.59603507867E+02 -0.65781119275E+01 -0.48604642028E+03  0.49611342797E+03  0.79319361087E+02 0.  0.
         -6    2    1    2    0  502  0.13321290094E+03 -0.12259769073E+03 -0.32575617732E+03  0.41049582410E+03  0.17208679146E+03 0.  0.
        -24    2    5    5    0    0  0.12036143858E+03 -0.13655104951E+03 -0.19640458984E+03  0.27967617921E+03  0.80690379164E+02 0.  0.
          5    1    3    3  501    0 -0.73609393074E+02  0.12917580265E+03 -0.56086101960E+03  0.58025158685E+03  0.47000000000E+01 0. -1.
        -11    1    4    4    0    0 -0.61415912658E+02  0.12532312199E+02 -0.20395621307E+03  0.21337082750E+03  0.00000000000E+00 0.  1.
         12    1    4    4    0    0  0.18124047912E+01 -0.19110424127E+02 -0.28209020721E+03  0.28274260048E+03  0.00000000000E+00 0. -1.
         -5    1    5    5    0  502  0.12851462362E+02  0.13953358783E+02 -0.12935158748E+03  0.13081964489E+03  0.47000000000E+01 0.  1.
         13    1    6    6    0    0 -0.53533524819E+01 -0.19983023962E+02 -0.24821805277E+01  0.20836046881E+02  0.00000000000E+00 0. -1.
        -14    1    6    6    0    0  0.12571479106E+03 -0.11656802555E+03 -0.19392240932E+03  0.25884013233E+03  0.00000000000E+00 0.  1.
</event>
<event>
12    1  0.8451514E-002  0.2357260E+03  0.7818608E-02  0.1122792E+00
         21   -1    0    0  503  502  0.00000000000E+00  0.00000000000E+00  0.22964568333E+03  0.22964568333E+03  0.00000000000E+00 0.  1.
         21   -1    0    0  501  503 -0.00000000000E+00 -0.00000000000E+00 -0.34848329168E+03  0.34848329168E+03  0.00000000000E+00 0. -1.
          6    2    1    2  501    0  0.15729429303E+03 -0.36293376024E+02 -0.21970615235E+03  0.32172845024E+03  0.17082066195E+03 0.  0.
         24    2    3    3    0    0  0.12981124645E+03 -0.31577659221E+02 -0.79942689059E+02  0.17913296818E+03  0.88598411307E+02 0.  0.
         -6    2    1    2    0  502 -0.15729429303E+03  0.36293376024E+02  0.10086854400E+03  0.25640052477E+03  0.17177910865E+03 0.  0.
        -24    2    5    5    0    0 -0.12143410050E+03  0.89726854860E+02  0.88511995832E+02  0.19070528634E+03  0.75742878121E+02 0.  0.
          5    1    3    3  501    0  0.27483046580E+02 -0.47157168037E+01 -0.13976346329E+03  0.14259548206E+03  0.47000000000E+01 0. -1.
        -13    1    4    4    0    0  0.10311645526E+03 -0.54740212011E+02 -0.34841753151E+02  0.12183366497E+03  0.00000000000E+00 0.  1.
         14    1    4    4    0    0  0.26694791191E+02  0.23162552790E+02 -0.45100935908E+02  0.57299303209E+02  0.00000000000E+00 0. -1.
         -5    1    5    5    0  502 -0.35860192537E+02 -0.53433478836E+02  0.12356548168E+02  0.65695238427E+02  0.47000000000E+01 0.  1.
         11    1    6    6    0    0 -0.42655634667E+01  0.32967433504E+02 -0.57167155313E-01  0.33242291913E+02  0.00000000000E+00 0. -1.
        -12    1    6    6    0    0 -0.11716853703E+03  0.56759421356E+02  0.88569162987E+02  0.15746299443E+03  0.00000000000E+00 0.  1.
</event>
<event>
12    1  0.8451514E-002  0.2146060E+03  0.7818608E-02  0.1138115E+00
         21   -1    0    0  503  502  0.00000000000E+00  0.00000000000E+00  0.30419075764E+03  0.30419075764E+03  0.00000000000E+00 0.  1.
         21   -1    0    0  501  503 -0.00000000000E+00 -0.00000000000E+00 -0.15155124124E+03  0.15155124124E+03  0.00000000000E+00 0. -1.
          6    2    1    2  501    0 -0.12392049801E+03 -0.36349892512E+02  0.91450140815E+02  0.23258312126E+03  0.17045285427E+03 0.  0.
         24    2    3    3    0    0 -0.15581074594E+03 -0.18298957540E+02  0.72775266747E+02  0.19118668316E+03  0.81512379243E+02 0.  0.
         -6    2    1    2    0  502  0.12392049801E+03  0.36349892512E+02  0.61189375592E+02  0.22315887762E+03  0.17140052643E+03 0.  0.
        -24    2    5    5    0    0  0.94654686620E+02  0.73209155921E+02 -0.23832854244E+01  0.14392084228E+03  0.79927708481E+02 0.  0.
          5    1    3    3  501    0  0.31890247928E+02 -0.18050934972E+02  0.18674874068E+02  0.41396438105E+02  0.47000000000E+01 0. -1.
        -11    1    4    4    0    0 -0.46638430708E+02  0.24217901552E+02  0.48557738014E+02  0.71550708561E+02  0.00000000000E+00 0.  1.
         12    1    4    4    0    0 -0.10917231523E+03 -0.42516859091E+02  0.24217528732E+02  0.11963597460E+03  0.00000000000E+00 0. -1.
         -5    1    5    5    0  502  0.29265811392E+02 -0.36859263409E+02  0.63572661017E+02  0.79238035338E+02  0.47000000000E+01 0.  1.
         11    1    6    6    0    0  0.30442577413E+02  0.72167926095E+02  0.84955954231E+01  0.78785374392E+02  0.00000000000E+00 0. -1.
        -12    1    6    6    0    0  0.64212109208E+02  0.10412298254E+01 -0.10878880847E+02  0.65135467887E+02  0.00000000000E+00 0.  1.
</event>
<event>
12    1  0.8451514E-002  0.2115518E+03  0.7818608E-02  0.1142247E+00
         21   -1    0    0  501  502  0.00000000000E+00  0.00000000000E+00  0.12572392518E+04  0.12572392518E+04  0.00000000000E+00 0. -1.
         21   -1    0    0  502  503 -0.00000000000E+00 -0.00000000000E+00 -0.48363634019E+02  0.48363634019E+02  0.00000000000E+00 0. -1.
         -6    2    1    2    0  503 -0.42133553285E+02 -0.11519787023E+03  0.25874230255E+03  0.33421812318E+03  0.17236121698E+03 0.  0.
        -24    2    3    3    0    0 -0.52036539362E+02 -0.14055673883E+03  0.16698328797E+03  0.23839042308E+03  0.80514452710E+02 0.  0.
          6    2    1    2  501    0  0.42133553285E+02  0.11519787023E+03  0.95013331520E+03  0.97138476261E+03  0.16059033207E+03 0.  0.
         24    2    5    5    0    0  0.28246017728E+01  0.13385324717E+03  0.66345926264E+03  0.68138938477E+03  0.78667848178E+02 0.  0.
          5    1    5    5  501    0  0.39308951512E+02 -0.18655376937E+02  0.28667405256E+03  0.28999537784E+03  0.47000000000E+01 0. -1.
        -13    1    6    6    0    0  0.50977212366E+01 -0.36064409580E+01  0.14121206591E+03  0.14135006451E+03  0.00000000000E+00 0.  1.
         14    1    6    6    0    0 -0.22731194637E+01  0.13745968812E+03  0.52224719673E+03  0.54003932026E+03  0.00000000000E+00 0. -1.
         -5    1    3    3    0  503  0.99029860777E+01  0.25358868603E+02  0.91759014585E+02  0.95827700106E+02  0.47000000000E+01 0.  1.
         11    1    4    4    0    0 -0.15976632583E+02 -0.20162169907E+02  0.83842286315E+02  0.87700027699E+02  0.00000000000E+00 0. -1.
        -12    1    4    4    0    0 -0.36059906780E+02 -0.12039456892E+03  0.83141001651E+02  0.15069039538E+03  0.00000000000E+00 0.  1.
</event>
<event>
12    1  0.8451514E-002  0.1752903E+03  0.7818608E-02  0.1172447E+00
         21   -1    0    0  503  502  0.00000000000E+00  0.00000000000E+00  0.31578277651E+02  0.31578277651E+02  0.00000000000E+00 0.  1.
         21   -1    0    0  501  503 -0.00000000000E+00 -0.00000000000E+00 -0.11035049416E+04  0.11035049416E+04  0.00000000000E+00 0.  1.
          6    2    1    2  501    0 -0.30074584419E+02  0.16897441816E+02 -0.73118407048E+03  0.75189631912E+03  0.17183691576E+03 0.  0.
         24    2    3    3    0    0 -0.83721573952E+02 -0.36215335820E+01 -0.51952251589E+03  0.53252965910E+03  0.81619702620E+02 0.  0.
         -6    2    1    2    0  502  0.30074584419E+02 -0.16897441816E+02 -0.34074259350E+03  0.38318690015E+03  0.17186239047E+03 0.  0.
        -24    2    5    5    0    0 -0.12163442460E+02 -0.67397713113E+02 -0.25765277068E+03  0.27707216521E+03  0.75456168945E+02 0.  0.
          5    1    3    3  501    0  0.53646989533E+02  0.20518975398E+02 -0.21166155459E+03  0.21936666002E+03  0.47000000000E+01 0. -1.
        -11    1    4    4    0    0 -0.31751500228E+02  0.20491892137E+02 -0.37750009272E+03  0.37938686774E+03  0.00000000000E+00 0.  1.
         12    1    4    4    0    0 -0.51970073724E+02 -0.24113425719E+02 -0.14202242317E+03  0.15314279136E+03  0.00000000000E+00 0. -1.
         -5    1    5    5    0  502  0.42238026880E+02  0.50500271298E+02 -0.83089822814E+02  0.10611473494E+03  0.47000000000E+01 0.  1.
         11    1    6    6    0    0  0.14120642421E+02 -0.13129526561E+02 -0.16754174452E+03  0.16864760054E+03  0.00000000000E+00 0. -1.
        -12    1    6    6    0    0 -0.26284084881E+02 -0.54268186552E+02 -0.90111026160E+02  0.10842456468E+03  0.00000000000E+00 0.  1.
</event>
<event>
12    1  0.8451514E-002  0.1727366E+03  0.7818608E-02  0.1175931E+00
         21   -1    0    0  503  502  0.00000000000E+00  0.00000000000E+00  0.66455530836E+02  0.66455530836E+02  0.00000000000E+00 0. -1.
         21   -1    0    0  501  503 -0.00000000000E+00 -0.00000000000E+00 -0.45854120620E+03  0.45854120620E+03  0.00000000000E+00 0. -1.
          6    2    1    2  501    0  0.10571402441E+02  0.11954946102E+02 -0.25088909550E+03  0.30460346707E+03  0.17199784483E+03 0.  0.
         24    2    3    3    0    0 -0.48630221239E+02 -0.13472904874E+02 -0.87362341227E+02  0.12877827771E+03  0.80032796786E+02 0.  0.
         -6    2    1    2    0  502 -0.10571402441E+02 -0.11954946102E+02 -0.14119657986E+03  0.22039326996E+03  0.16846971239E+03 0.  0.
        -24    2    5    5    0    0  0.13252393091E+02 -0.65841746412E+01 -0.39776832765E+01  0.80938854471E+02  0.79475146559E+02 0.  0.
          5    1    3    3  501    0  0.59201623680E+02  0.25427850976E+02 -0.16352675427E+03  0.17582518936E+03  0.47000000000E+01 0. -1.
        -11    1    4    4    0    0  0.15337005833E+02  0.81547265761E+01  0.11983957693E+01  0.17411475120E+02  0.00000000000E+00 0.  1.
         12    1    4    4    0    0 -0.63967227072E+02 -0.21627631450E+02 -0.88560736997E+02  0.11136680259E+03  0.00000000000E+00 0. -1.
         -5    1    5    5    0  502 -0.23823795532E+02 -0.53707714611E+01 -0.13721889658E+03  0.13945441549E+03  0.47000000000E+01 0. -1.
         13    1    6    6    0    0  0.36033324412E+02  0.22369185331E+02  0.58395060471E+01  0.42812156585E+02  0.00000000000E+00 0. -1.
        -14    1    6    6    0    0 -0.22780931321E+02 -0.28953359973E+02 -0.98171893236E+01  0.38126697887E+02  0.00000000000E+00 0.  1.
</event>
<event>
12    1  0.8451514E-002  0.2010176E+03  0.7818608E-02  0.1149034E+00
         21   -1    0    0  503  502  0.00000000000E+00  0.00000000000E+00  0.26745756254E+03  0.26745756254E+03  0.00000000000E+00 0.  1.
         21   -1    0    0  501  503 -0.00000000000E+00 -0.00000000000E+00 -0.15089700647E+03  0.15089700647E+03  0.00000000000E+00 0. -1.
          6    2    1    2  501    0 -0.88835018294E+02 -0.55186592890E+02  0.48243218101E+02  0.20672560722E+03  0.17167075487E+03 0.  0.
         24    2    3    3    0    0 -0.42631029062E+02 -0.72254493749E+02  0.86228879892E+02  0.14434674572E+03  0.79764946974E+02 0.  0.
         -6    2    1    2    0  502  0.88835018294E+02  0.55186592890E+02  0.68317337973E+02  0.21162896179E+03  0.17082838842E+03 0.  0.
        -24    2    5    5    0    0  0.91947847414E+02 -0.19952925438E+02  0.31829581100E+02  0.12790869351E+03  0.80591474510E+02 0.  0.
          5    1    3    3  501    0 -0.46203989231E+02  0.17067900859E+02 -0.37985661791E+02  0.62378861502E+02  0.47000000000E+01 0. -1.
        -13    1    4    4    0    0 -0.45123528256E+02 -0.32710309210E+01  0.45667077825E+02  0.64283080532E+02  0.00000000000E+00 0.  1.
         14    1    4    4    0    0  0.24924991940E+01 -0.68983462828E+02  0.40561802067E+02  0.80063665185E+02  0.00000000000E+00 0. -1.
         -5    1    5    5    0  502 -0.31128291209E+01  0.75139518328E+02  0.36487756874E+02  0.83720268283E+02  0.47000000000E+01 0.  1.
         13    1    6    6    0    0 -0.33885796766E+01 -0.10660227625E+02 -0.17032995208E+02  0.20377582070E+02  0.00000000000E+00 0. -1.
        -14    1    6    6    0    0  0.95336427091E+02 -0.92926978123E+01  0.48862576308E+02  0.10753111144E+03  0.00000000000E+00 0.  1.
</event>
<event>
12    1  0.8451514E-002  0.2117991E+03  0.7818608E-02  0.1140472E+00
         21   -1    0    0  501  502  0.00000000000E+00  0.00000000000E+00  0.74319665886E+02  0.74319665886E+02  0.00000000000E+00 0. -1.
         21   -1    0    0  502  503 -0.00000000000E+00 -0.00000000000E+00 -0.96954766765E+03  0.96954766765E+03  0.00000000000E+00 0.  1.
         -6    2    1    2    0  503 -0.94633772743E+02  0.72903995135E+02 -0.77139167024E+03  0.79993996934E+03  0.17489511765E+03 0.  0.
        -24    2    3    3    0    0 -0.22492004488E+02 -0.14187226912E+02 -0.44829456244E+03  0.45759051811E+03  0.87828810085E+02 0.  0.
          6    2    1    2  501    0  0.94633772743E+02 -0.72903995135E+02 -0.12383633152E+03  0.24392736420E+03  0.17290048742E+03 0.  0.
         24    2    5    5    0    0  0.66078397635E+02 -0.30707847351E+02 -0.13943556984E+00  0.11006573264E+03  0.82493148419E+02 0.  0.
          5    1    5    5  501    0  0.28555375108E+02 -0.42196147783E+02 -0.12369689595E+03  0.13386163156E+03  0.47000000000E+01 0. -1.
        -13    1    6    6    0    0  0.27305065087E+01 -0.19467844634E+02 -0.32550139353E+02  0.38025836117E+02  0.00000000000E+00 0.  1.
         14    1    6    6    0    0  0.63347891126E+02 -0.11240002717E+02  0.32410703783E+02  0.72039896522E+02  0.00000000000E+00 0. -1.
         -5    1    3    3    0  503 -0.72141768255E+02  0.87091222046E+02 -0.32309710780E+03  0.34234945123E+03  0.47000000000E+01 0.  1.
         11    1    4    4    0    0  0.15607572381E+02 -0.31442142875E+02 -0.85976219188E+02  0.92866112927E+02  0.00000000000E+00 0. -1.
        -12    1    4    4    0    0 -0.38099576869E+02  0.17254915963E+02 -0.36231834325E+03  0.36472440518E+03  0.00000000000E+00 0.  1.
</event>
<event>
12    1  0.8451514E-002  0.2542145E+03  0.7818608E-02  0.1110793E+00
         21   -1    0    0  501  502  0.00000000000E+00  0.00000000000E+00  0.12987156646E+04  0.12987156646E+04  0.00000000000E+00 0. -1.
         21   -1    0    0  502  503 -0.00000000000E+00 -0.00000000000E+00 -0.51924432583E+02  0.51924432583E+02  0.00000000000E+00 0.  1.
         -6    2    1    2    0  503  0.73435064344E+02  0.17115769342E+03  0.48161374111E+03  0.54458864721E+03  0.17302408604E+03 0.  0.
        -24    2    3    3    0    0 -0.23847946171E+02  0.11341737290E+03  0.26735992669E+03  0.30225681739E+03  0.80284670065E+02 0.  0.
          6    2    1    2  501    0 -0.73435064344E+02 -0.17115769342E+03  0.76517749089E+03  0.80605144996E+03  0.17185657602E+03 0.  0.
         24    2    5    5    0    0  0.84236229240E+01 -0.48266553212E+02  0.42088254332E+03  0.43139937410E+03  0.81010413637E+02 0.  0.
          5    1    5    5  501    0 -0.81858687268E+02 -0.12289114021E+03  0.34429494757E+03  0.37465207586E+03  0.47000000000E+01 0. -1.
        -11    1    6    6    0    0 -0.21763603850E+00 -0.20382948910E+02  0.17224036255E+02  0.26686689503E+02  0.00000000000E+00 0.  1.
         12    1    6    6    0    0  0.86412589625E+01 -0.27883604302E+02  0.40365850707E+03  0.40471268460E+03  0.00000000000E+00 0. -1.
         -5    1    3    3    0  503  0.97283010515E+02  0.57740320528E+02  0.21425381442E+03  0.24233182982E+03  0.47000000000E+01 0.  1.
         11    1    4    4    0    0  0.24359932929E+02  0.59253433179E+02  0.16337259472E+03  0.17548498620E+03  0.00000000000E+00 0. -1.
        -12    1    4    4    0    0 -0.48207879100E+02  0.54163939717E+02  0.10398733197E+03  0.12677183119E+03  0.00000000000E+00 0.  1.
</event>
<event>
12    1  0.8451514E-002  0.3136010E+03  0.7818608E-02  0.1079305E+00
         21   -1    0    0  501  502  0.00000000000E+00  0.00000000000E+00  0.11566223129E+04  0.11566223129E+04  0.00000000000E+00 0.  1.
         21   -1    0    0  502  503 -0.00000000000E+00 -0.00000000000E+00 -0.86513911768E+02  0.86513911768E+02  0.00000000000E+00 0. -1.
         -6    2    1    2    0  503  0.75117806016E+02  0.25128803853E+03  0.42383196303E+03  0.52723727142E+03  0.17192220449E+03 0.  0.
        -24    2    3    3    0    0 -0.22664242523E+02  0.12644041657E+03  0.17746387881E+03  0.23420556555E+03  0.82812872288E+02 0.  0.
          6    2    1    2  501    0 -0.75117806016E+02 -0.25128803853E+03  0.64627643809E+03  0.71589895324E+03  0.16139923708E+03 0.  0.
         24    2    5    5    0    0 -0.62186185132E+02 -0.71004224526E+02  0.31357916498E+03  0.33724469677E+03  0.80581457329E+02 0.  0.
          5    1    5    5  501    0 -0.12931620884E+02 -0.18028381401E+03  0.33269727311E+03  0.37865425647E+03  0.47000000000E+01 0. -1.
        -11    1    6    6    0    0 -0.37695540243E+02  0.98041989870E+01  0.11649811154E+03  0.12283682699E+03  0.00000000000E+00 0.  1.
         12    1    6    6    0    0 -0.24490644889E+02 -0.80808423513E+02  0.19708105344E+03  0.21440786977E+03  0.00000000000E+00 0. -1.
         -5    1    3    3    0  503  0.97782048539E+02  0.12484762196E+03  0.24636808422E+03  0.29303170587E+03  0.47000000000E+01 0.  1.
         13    1    4    4    0    0  0.12499883540E+02  0.28192606452E+02  0.30912751169E+01  0.30993969235E+02  0.00000000000E+00 0. -1.
        -14    1    4    4    0    0 -0.35164126063E+02  0.98247810123E+02  0.17437260370E+03  0.20321159631E+03  0.00000000000E+00 0.  1.
</event>
<event>
12    1  0.8451514E-002  0.2507829E+03  0.7818608E-02  0.1114134E+00
         21   -1    0    0  501  502  0.00000000000E+00  0.00000000000E+00  0.66718120156E+02  0.66718120156E+02  0.00000000000E+00 0. -1.
         21   -1    0    0  502  503 -0.00000000000E+00 -0.00000000000E+00 -0.11353004078E+04  0.11353004078E+04  0.00000000000E+00 0.  1.
         -6    2    1    2    0  503  0.56032649556E+02 -0.16230988748E+03 -0.79370040332E+03  0.82992699742E+03  0.17127268732E+03 0.  0.
        -24    2    3    3    0    0  0.44217237147E+02 -0.17626389999E+03 -0.53934298652E+03  0.57486993729E+03  0.80996673995E+02 0.  0.
          6    2    1    2  501    0 -0.56032649556E+02  0.16230988748E+03 -0.27488188435E+03  0.37209153056E+03  0.18277827930E+03 0.  0.
         24    2    5    5    0    0 -0.88830424082E+02  0.12519477039E+03 -0.27105644446E+03  0.32219213256E+03  0.82289728563E+02 0.  0.
          5    1    5    5  501    0  0.32797774526E+02  0.37115117082E+02 -0.38254398859E+01  0.49899397994E+02  0.47000000000E+01 0. -1.
        -11    1    6    6    0    0  0.11062574077E+02 -0.12816988258E+01 -0.80831336558E+01  0.13760826530E+02  0.00000000000E+00 0.  1.
         12    1    6    6    0    0 -0.99892998159E+02  0.12647646922E+03 -0.26297331080E+03  0.30843130603E+03  0.00000000000E+00 0. -1.
         -5    1    3    3    0  503  0.11815412409E+02  0.13954012518E+02 -0.25435741680E+03  0.25505706012E+03  0.47000000000E+01 0.  1.
         13    1    4    4    0    0  0.10113757614E+02 -0.59102642813E+02 -0.82355616746E+02  0.10187177278E+03  0.00000000000E+00 0. -1.
        -14    1    4    4    0    0  0.34103479534E+02 -0.11716125718E+03 -0.45698736977E+03  0.47299816451E+03  0.00000000000E+00 0.  1.
</event>
<event>
12    1  0.8451514E-002  0.2067546E+03  0.7818608E-02  0.1144265E+00
         21   -1    0    0  503  502  0.00000000000E+00  0.00000000000E+00  0.15683283976E+03  0.15683283976E+03  0.00000000000E+00 0.  1.
         21   -1    0    0  501  503 -0.00000000000E+00 -0.00000000000E+00 -0.27738639709E+03  0.27738639709E+03  0.00000000000E+00 0.  1.
          6    2    1    2  501    0  0.11417872422E+03  0.88864621660E+00 -0.29662641130E+02  0.20836831913E+03  0.17175538822E+03 0.  0.
         24    2    3    3    0    0  0.21537108891E+02  0.17444884765E+02 -0.64630336459E+02  0.10786255988E+03  0.81786798259E+02 0.  0.
         -6    2    1    2    0  502 -0.11417872422E+03 -0.88864621660E+00 -0.90890916194E+02  0.22585091772E+03  0.17236562195E+03 0.  0.
        -24    2    5    5    0    0 -0.75007393304E+02 -0.12937742459E+02  0.15869260495E+02  0.11139831088E+03  0.79776287250E+02 0.  0.
          5    1    3    3  501    0  0.92641615332E+02 -0.16556238549E+02  0.34967695330E+02  0.10050575925E+03  0.47000000000E+01 0. -1.
        -11    1    4    4    0    0  0.97735673841E+01 -0.30775664783E+02 -0.42862717898E+02  0.53664483113E+02  0.00000000000E+00 0.  1.
         12    1    4    4    0    0  0.11763541507E+02  0.48220549548E+02 -0.21767618561E+02  0.54198076768E+02  0.00000000000E+00 0. -1.
         -5    1    5    5    0  502 -0.39171330919E+02  0.12049096242E+02 -0.10676017669E+03  0.11445260684E+03  0.47000000000E+01 0.  1.
         13    1    6    6    0    0  0.16641120835E+02  0.12713030311E+01  0.74392133671E+01  0.18272520614E+02  0.00000000000E+00 0. -1.
        -14    1    6    6    0    0 -0.91648514139E+02 -0.14209045490E+02  0.84300471275E+01  0.93125790264E+02  0.00000000000E+00 0.  1.
</event>
<event>
12    1  0.8451514E-002  0.1794581E+03  0.7818608E-02  0.1168572E+00
         21   -1    0    0  503  502  0.00000000000E+00  0.00000000000E+00  0.27626390040E+03  0.27626390040E+03  0.00000000000E+00 0. -1.
         21   -1    0    0  501  503 -0.00000000000E+00 -0.00000000000E+00 -0.37472990916E+03  0.37472990916E+03  0.00000000000E+00 0. -1.
          6    2    1    2  501    0  0.36459236425E+02 -0.31559797555E+02 -0.31969344060E+03  0.36613108183E+03  0.17182193218E+03 0.  0.
         24    2    3    3    0    0  0.53434981181E+02  0.38923753564E+02 -0.16540741917E+03  0.19559553334E+03  0.80793827384E+02 0.  0.
         -6    2    1    2    0  502 -0.36459236425E+02  0.31559797555E+02  0.22122743184E+03  0.28486272773E+03  0.17285803513E+03 0.  0.
        -24    2    5    5    0    0 -0.56065992684E+02 -0.39986419561E+02  0.12253018798E+03  0.16130495978E+03  0.79141226920E+02 0.  0.
          5    1    3    3  501    0 -0.16975744756E+02 -0.70483551119E+02 -0.15428602143E+03  0.17053554849E+03  0.47000000000E+01 0. -1.
        -11    1    4    4    0    0 -0.14835313227E+02  0.20860287883E+02 -0.15598132623E+02  0.29975654629E+02  0.00000000000E+00 0.  1.
         12    1    4    4    0    0  0.68270294407E+02  0.18063465681E+02 -0.14980928654E+03  0.16561987871E+03  0.00000000000E+00 0. -1.
         -5    1    5    5    0  502  0.19606756259E+02  0.71546217116E+02  0.98697243863E+02  0.12355776795E+03  0.47000000000E+01 0.  1.
         11    1    6    6    0    0 -0.68665530786E+02 -0.16470925707E+02  0.57663662187E+02  0.91166575282E+02  0.00000000000E+00 0. -1.
        -12    1    6    6    0    0  0.12599538102E+02 -0.23515493854E+02  0.64866525795E+02  0.70138384500E+02  0.00000000000E+00 0.  1.
</event>
<event>
12    1  0.8451514E-002  0.1903765E+03  0.7818608E-02  0.1158821E+00
         21   -1    0    0  501  502  0.00000000000E+00  0.00000000000E+00  0.63391934944E+02  0.63391934944E+02  0.00000000000E+00 0. -1.
         21   -1    0    0  502  503 -0.00000000000E+00 -0.00000000000E+00 -0.57174224256E+03  0.57174224256E+03  0.00000000000E+00 0. -1.
         -6    2    1    2    0  503 -0.51892344158E+02  0.60828790489E+02 -0.21587333608E+03  0.28782723386E+03  0.17277228420E+03 0.  0.
        -24    2    3    3    0    0 -0.10023260106E+03  0.60358736391E+02 -0.15233028030E+03  0.20784716556E+03  0.79411451071E+02 0.  0.
          6    2    1    2  501    0  0.51892344158E+02 -0.60828790489E+02 -0.29247697154E+03  0.34730694364E+03  0.16937053193E+03 0.  0.
         24    2    5    5    0    0  0.86465458154E+02 -0.77751304001E+01 -0.14884043929E+03  0.19026066239E+03  0.80677848119E+02 0.  0.
          5    1    5    5  501    0 -0.34573113996E+02 -0.53053660089E+02 -0.14363653224E+03  0.15704628125E+03  0.47000000000E+01 0. -1.
        -13    1    6    6    0    0  0.15127639993E+02 -0.10801581478E+02  0.61785229143E+01  0.19588103522E+02  0.00000000000E+00 0.  1.
         14    1    6    6    0    0  0.71337818161E+02  0.30264510782E+01 -0.15501896221E+03  0.17067255887E+03  0.00000000000E+00 0. -1.
         -5    1    3    3    0  503  0.48340256900E+02  0.47005409805E+00 -0.63543055773E+02  0.79980068299E+02  0.47000000000E+01 0.  1.
         11    1    4    4    0    0 -0.28543579791E+02  0.27766183996E+02 -0.41444886264E+01  0.40035905222E+02  0.00000000000E+00 0. -1.
        -12    1    4    4    0    0 -0.71689021267E+02  0.32592552396E+02 -0.14818579168E+03  0.16781126034E+03  0.00000000000E+00 0.  1.
</event>
<event>
12    1  0.8451514E-002  0.1873929E+03  0.7818608E-02  0.1161260E+00
         21   -1    0    0  501  502  0.00000000000E+00  0.00000000000E+00  0.10058826531E+03  0.10058826531E+03  0.00000000000E+00 0.  1.
         21   -1    0    0  502  503 -0.00000000000E+00 -0.00000000000E+00 -0.57641642774E+03  0.57641642774E+03  0.00000000000E+00 0.  1.
         -6    2    1    2    0  503 -0.58046046540E+02  0.46897436376E+02 -0.45278737074E+03  0.49003315723E+03  0.17189351071E+03 0.  0.
        -24    2    3    3    0    0 -0.78222150287E+02 -0.20298194020E+02 -0.34125609316E+03  0.35818611030E+03  0.72875558409E+02 0.  0.
          6    2    1    2  501    0  0.58046046540E+02 -0.46897436376E+02 -0.23040791693E+02  0.18697153581E+03  0.16987867454E+03 0.  0.
         24    2    5    5    0    0  0.62447900231E+02 -0.81329179685E+02  0.20282732754E+02  0.13125852985E+03  0.79392925998E+02 0.  0.
          5    1    5    5  501    0 -0.44018536907E+01  0.34431743309E+02 -0.43323524446E+02  0.55713005965E+02  0.47000000000E+01 0. -1.
        -11    1    6    6    0    0  0.24963897216E+02 -0.25363014370E+00  0.32633066102E+02  0.41087437201E+02  0.00000000000E+00 0.  1.
         12    1    6    6    0    0  0.37484003014E+02 -0.81075549541E+02 -0.12350333349E+02  0.90171092647E+02  0.00000000000E+00 0. -1.
         -5    1    3    3    0  503  0.20176103747E+02  0.67195630397E+02 -0.11153127758E+03  0.13184704693E+03  0.47000000000E+01 0.  1.
         11    1    4    4    0    0 -0.16192088151E+02  0.39208432899E+01 -0.82565814873E+01  0.18593758863E+02  0.00000000000E+00 0. -1.
        -12    1    4    4    0    0 -0.62030062136E+02 -0.24219037310E+02 -0.33299951168E+03  0.33959235143E+03  0.00000000000E+00 0.  1.
</event>
<event>
12    1  0.8451514E-002  0.2131436E+03  0.7818608E-02  0.1139109E+00
         21   -1    0    0  501  502  0.00000000000E+00  0.00000000000E+00  0.30325218689E+03  0.30325218689E+03  0.00000000000E+00 0. -1.
         21   -1    0    0  502  503 -0.00000000000E+00 -0.00000000000E+00 -0.14996313293E+03  0.14996313293E+03  0.00000000000E+00 0.  1.
         -6    2    1    2    0  503  0.10441841725E+03 -0.71033706291E+02  0.68708129064E+02  0.22394417177E+03  0.17170087880E+03 0.  0.
        -24    2    3    3    0    0  0.48928607755E+02  0.16093805086E+02  0.73801420953E+02  0.12041468892E+03  0.80000177216E+02 0.  0.
          6    2    1    2  501    0 -0.10441841725E+03  0.71033706291E+02  0.84580924900E+02  0.22927114806E+03  0.17164595301E+03 0.  0.
         24    2    5    5    0    0 -0.15446446889E+02 -0.20850744188E+02  0.33648420779E+02  0.91521470289E+02  0.81059342758E+02 0.  0.
          5    1    5    5  501    0 -0.88971970358E+02  0.91884450479E+02  0.50932504121E+02  0.13774967777E+03  0.47000000000E+01 0. -1.
        -13    1    6    6    0    0 -0.11164909759E+02  0.24908385251E+02 -0.90816002801E+01  0.28767313559E+02  0.00000000000E+00 0.  1.
         14    1    6    6    0    0 -0.42815371298E+01 -0.45759129439E+02  0.42730021059E+02  0.62754156730E+02  0.00000000000E+00 0. -1.
         -5    1    3    3    0  503  0.55489809492E+02 -0.87127511377E+02 -0.50932918895E+01  0.10352948285E+03  0.47000000000E+01 0.  1.
         11    1    4    4    0    0  0.68550529694E+02  0.23752957128E+02  0.65602846847E+02  0.97811612849E+02  0.00000000000E+00 0. -1.
        -12    1    4    4    0    0 -0.19621921939E+02 -0.76591520418E+01  0.81985741062E+01  0.22603076073E+02  0.00000000000E+00 0.  1.
</event>
<event>
12    1  0.8451514E-002  0.1949000E+03  0.7818608E-02  0.1154405E+00
         21   -1    0    0  501  502  0.00000000000E+00  0.00000000000E+00  0.97372939542E+02  0.97372939542E+02  0.00000000000E+00 0. -1.
         21   -1    0    0  502  503 -0.00000000000E+00 -0.00000000000E+00 -0.79752304008E+03  0.79752304008E+03  0.00000000000E+00 0.  1.
         -6    2    1    2    0  503  0.88144232029E+02 -0.16972540210E+02 -0.67150281701E+03  0.69921531844E+03  0.17299871539E+03 0.  0.
        -24    2    3    3    0    0  0.26637153399E+02 -0.73259262256E+02 -0.34879303888E+03  0.36587614177E+03  0.78309065245E+02 0.  0.
          6    2    1    2  501    0 -0.88144232029E+02  0.16972540210E+02 -0.28647283523E+02  0.19568066118E+03  0.17150154969E+03 0.  0.
         24    2    5    5    0    0 -0.11026437398E+03  0.88405330661E+01 -0.66169685069E+02  0.15112226312E+03  0.78886779582E+02 0.  0.
          5    1    5    5  501    0  0.22120141951E+02  0.81320071437E+01  0.37522401546E+02  0.44558398063E+02  0.47000000000E+01 0. -1.
        -13    1    6    6    0    0 -0.10761411225E+03  0.12936317695E+02 -0.27068230418E+02  0.11171765558E+03  0.00000000000E+00 0.  1.
         14    1    6    6    0    0 -0.26502617296E+01 -0.40957846292E+01 -0.39101454651E+02  0.39404607533E+02  0.00000000000E+00 0. -1.
         -5    1    3    3    0  503  0.61507078630E+02  0.56286722046E+02 -0.32270977814E+03  0.33333917667E+03  0.47000000000E+01 0.  1.
         13    1    4    4    0    0 -0.19574895163E+02 -0.40963523059E+02 -0.87579612116E+02  0.98647732870E+02  0.00000000000E+00 0. -1.
        -14    1    4    4    0    0  0.46212048562E+02 -0.32295739197E+02 -0.26121342676E+03  0.26722840890E+03  0.00000000000E+00 0.  1.
</event>
<event>
12    1  0.8451514E-002  0.1737755E+03  0.7818608E-02  0.1174557E+00
         21   -1    0    0  501  502  0.00000000000E+00  0.00000000000E+00  0.18544206654E+03  0.18544206654E+03  0.00000000000E+00 0.  1.
         21   -1    0    0  502  503 -0.00000000000E+00 -0.00000000000E+00 -0.16807419734E+03  0.16807419734E+03  0.00000000000E+00 0.  1.
         -6    2    1    2    0  503 -0.22825313051E+02 -0.83223072503E+01 -0.28323928416E+02  0.17606862300E+03  0.17206876349E+03 0.  0.
        -24    2    3    3    0    0 -0.10503214126E+02  0.54091305781E+02 -0.46867787246E+02  0.10963626707E+03  0.82385282105E+02 0.  0.
          6    2    1    2  501    0  0.22825313051E+02  0.83223072503E+01  0.45691797618E+02  0.17744764089E+03  0.16973411317E+03 0.  0.
         24    2    5    5    0    0  0.26748315558E+02  0.48202908770E+01 -0.39170711221E+02  0.92292550183E+02  0.79024443132E+02 0.  0.
          5    1    5    5  501    0 -0.39230025066E+01  0.35020163733E+01  0.84862508839E+02  0.85155090710E+02  0.47000000000E+01 0. -1.
        -11    1    6    6    0    0  0.26090670708E+02  0.39658993376E+02 -0.14636264391E+02  0.49676745957E+02  0.00000000000E+00 0.  1.
         12    1    6    6    0    0  0.65764484999E+00 -0.34838702499E+02 -0.24534446830E+02  0.42615804226E+02  0.00000000000E+00 0. -1.
         -5    1    3    3    0  503 -0.12322098925E+02 -0.62413613032E+02  0.18543858830E+02  0.66432355926E+02  0.47000000000E+01 0.  1.
         11    1    4    4    0    0  0.31823255238E+02  0.14574459333E+02 -0.36933280288E+02  0.50884198251E+02  0.00000000000E+00 0. -1.
        -12    1    4    4    0    0 -0.42326469364E+02  0.39516846448E+02 -0.99345069582E+01  0.58752068819E+02  0.00000000000E+00 0.  1.
</event>
<event>
12    1  0.8451514E-002  0.2329729E+03  0.7818608E-02  0.1124836E+00
         21   -1    0    0  503  502  0.00000000000E+00  0.00000000000E+00  0.40976200631E+02  0.40976200631E+02  0.00000000000E+00 0.  1.
         21   -1    0    0  501  503 -0.00000000000E+00 -0.00000000000E+00 -0.13822970439E+04  0.13822970439E+04  0.00000000000E+00 0. -1.
          6    2    1    2  501    0 -0.11527046152E+03  0.10612183857E+03 -0.82468920118E+03  0.85654173411E+03  0.17030073344E+03 0.  0.
         24    2    3    3    0    0 -0.66365170180E+02  0.69330352947E+02 -0.26637586362E+03  0.29486459035E+03  0.82328562878E+02 0.  0.
         -6    2    1    2    0  502  0.11527046152E+03 -0.10612183857E+03 -0.51663164205E+03  0.56673151038E+03  0.17241585592E+03 0.  0.
        -24    2    5    5    0    0  0.13575819342E+03 -0.12711580237E+03 -0.43298913444E+03  0.47796973508E+03  0.79917224798E+02 0.  0.
          5    1    3    3  501    0 -0.48905291342E+02  0.36791485619E+02 -0.55831333755E+03  0.56167714376E+03  0.47000000000E+01 0. -1.
        -11    1    4    4    0    0 -0.43607559135E+02  0.34982510802E+02 -0.51293066388E+02  0.75870771284E+02  0.00000000000E+00 0.  1.
         12    1    4    4    0    0 -0.22757611045E+02  0.34347842145E+02 -0.21508279724E+03  0.21899381906E+03  0.00000000000E+00 0. -1.
         -5    1    5    5    0  502 -0.20487731897E+02  0.20993963807E+02 -0.83642507617E+02  0.88761775304E+02  0.47000000000E+01 0.  1.
         13    1    6    6    0    0  0.13902678151E+03 -0.12443348690E+03 -0.36568937506E+03  0.41053727927E+03  0.00000000000E+00 0. -1.
        -14    1    6    6    0    0 -0.32685880885E+01 -0.26823154698E+01 -0.67299759378E+02  0.67432455811E+02  0.00000000000E+00 0.  1.
</event>
<event>
12    1  0.8451514E-002  0.2726743E+03  0.7818608E-02  0.1099966E+00
         21   -1    0    0  501  502  0.00000000000E+00  0.00000000000E+00  0.22842948086E+03  0.22842948086E+03  0.00000000000E+00 0.  1.
         21   -1    0    0  502  503 -0.00000000000E+00 -0.00000000000E+00 -0.51779613834E+03  0.51779613834E+03  0.00000000000E+00 0. -1.
         -6    2    1    2    0  503  0.29706244330E+02 -0.20953848337E+03  0.83972349409E+02  0.28391266646E+03  0.16960604277E+03 0.  0.
        -24    2    3    3    0    0  0.53030276143E+02 -0.96884218437E+02 -0.68959129995E+01  0.13723572559E+03  0.81162360694E+02 0.  0.
          6    2    1    2  501    0 -0.29706244330E+02  0.20953848337E+03 -0.37333900688E+03  0.46231295275E+03  0.17193724219E+03 0.  0.
         24    2    5    5    0    0 -0.22481777117E+02  0.14931479544E+03 -0.13962142758E+03  0.22080708866E+03  0.80382143054E+02 0.  0.
          5    1    5    5  501    0 -0.72244672123E+01  0.60223687927E+02 -0.23371757930E+03  0.24150586409E+03  0.47000000000E+01 0. -1.
        -11    1    6    6    0    0  0.21481747891E+02  0.82914964764E+02 -0.10060548188E+03  0.13212804342E+03  0.00000000000E+00 0.  1.
         12    1    6    6    0    0 -0.43963525008E+02  0.66399830679E+02 -0.39015945704E+02  0.88679045239E+02  0.00000000000E+00 0. -1.
         -5    1    3    3    0  503 -0.23324031813E+02 -0.11265426493E+03  0.90868262409E+02  0.14667694086E+03  0.47000000000E+01 0.  1.
         13    1    4    4    0    0  0.44255192657E+02 -0.10793535062E+03  0.77307642531E+01  0.11691161921E+03  0.00000000000E+00 0. -1.
        -14    1    4    4    0    0  0.87750834858E+01  0.11051132185E+02 -0.14626677253E+02  0.20324106382E+02  0.00000000000E+00 0.  1.
</event>
<event>
12    1  0.8451514E-002  0.1792754E+03  0.7818608E-02  0.1168748E+00
         21   -1    0    0  501  502  0.00000000000E+00  0.00000000000E+00  0.84085521045E+02  0.84085521045E+02  0.00000000000E+00 0.  1.
         21   -1    0    0  502  503 -0.00000000000E+00 -0.00000000000E+00 -0.14839203730E+04  0.14839203730E+04  0.00000000000E+00 0.  1.
         -6    2    1    2    0  503  0.39506439743E+02  0.27048206499E+02 -0.13755940738E+04  0.13870990236E+04  0.17173316817E+03 0.  0.
        -24    2    3    3    0    0 -0.25474974311E+02 -0.12181297559E+02 -0.10197467156E+04  0.10232158411E+04  0.79309111235E+02 0.  0.
          6    2    1    2  501    0 -0.39506439743E+02 -0.27048206499E+02 -0.24240778073E+02  0.18090687040E+03  0.17276375829E+03 0.  0.
         24    2    5    5    0    0  0.30903291515E+02 -0.63930851055E+02  0.38972918606E+00  0.97560535066E+02  0.66900963898E+02 0.  0.
          5    1    5    5  501    0 -0.70409731259E+02  0.36882644556E+02 -0.24630507259E+02  0.83346335332E+02  0.47000000000E+01 0. -1.
        -11    1    6    6    0    0  0.21347343269E+02 -0.64621938044E+02  0.23933219325E+02  0.72142240945E+02  0.00000000000E+00 0.  1.
         12    1    6    6    0    0  0.95559482464E+01  0.69108698942E+00 -0.23543490139E+02  0.25418294122E+02  0.00000000000E+00 0. -1.
         -5    1    3    3    0  503  0.64981414055E+02  0.39229504058E+02 -0.35584735819E+03  0.36388318248E+03  0.47000000000E+01 0.  1.
         11    1    4    4    0    0 -0.34377464181E+02 -0.25565327681E+02 -0.27684418607E+03  0.28013942847E+03  0.00000000000E+00 0. -1.
        -12    1    4    4    0    0  0.89024898696E+01  0.13384030122E+02 -0.74290252957E+03  0.74307641265E+03  0.00000000000E+00 0.  1.
</event>
<event>
12    1  0.8451514E-002  0.1962615E+03  0.7818608E-02  0.1153534E+00
         21   -1    0    0  501  502  0.00000000000E+00  0.00000000000E+00  0.67048810855E+03  0.67048810855E+03  0.00000000000E+00 0. -1.
         21   -1    0    0  502  503 -0.00000000000E+00 -0.00000000000E+00 -0.10505878092E+03  0.10505878092E+03  0.00000000000E+00 0. -1.
         -6    2    1    2    0  503 -0.35817316221E+02  0.81987851605E+02  0.20556128639E+02  0.19733507332E+03  0.17468167845E+03 0.  0.
        -24    2    3    3    0    0 -0.51528130860E+02  0.12132089431E+03  0.23798497909E+02  0.15459725747E+03  0.77201268439E+02 0.  0.
          6    2    1    2  501    0  0.35817316221E+02 -0.81987851605E+02  0.54487319899E+03  0.57821181616E+03  0.17157276418E+03 0.  0.
         24    2    5    5    0    0  0.59385064793E+02 -0.68412861538E+02  0.53560719047E+03  0.54909707690E+03  0.80160038877E+02 0.  0.
          5    1    5    5  501    0 -0.23567748572E+02 -0.13574990067E+02  0.92660085256E+01  0.29114739258E+02  0.47000000000E+01 0. -1.
        -13    1    6    6    0    0 -0.19350619763E+02 -0.69930737426E+01  0.11246126958E+03  0.11432797873E+03  0.00000000000E+00 0.  1.
         14    1    6    6    0    0  0.78735684556E+02 -0.61419787795E+02  0.42314592089E+03  0.43476909817E+03  0.00000000000E+00 0. -1.
         -5    1    3    3    0  503  0.15710814639E+02 -0.39333042705E+02 -0.32423692696E+01  0.42737815848E+02  0.47000000000E+01 0.  1.
         11    1    4    4    0    0 -0.42085726448E+02  0.13408685142E+02  0.28202098620E+01  0.44260081242E+02  0.00000000000E+00 0. -1.
        -12    1    4    4    0    0 -0.94424044115E+01  0.10791220917E+03  0.20978288047E+02  0.11033717623E+03  0.00000000000E+00 0.  1.
</event>
<event>
12    1  0.8451514E-002  0.1855424E+03  0.7818608E-02  0.1162632E+00
         21   -1    0    0  501  502  0.00000000000E+00  0.00000000000E+00  0.91381732399E+03  0.91381732399E+03  0.00000000000E+00 0.  1.
         21   -1    0    0  502  503 -0.00000000000E+00 -0.00000000000E+00 -0.44124116019E+02  0.44124116019E+02  0.00000000000E+00 0.  1.
         -6    2    1    2    0  503  0.67573517081E+02  0.13372862059E+02  0.25024315424E+03  0.31130061496E+03  0.17187618503E+03 0.  0.
        -24    2    3    3    0    0 -0.28139427994E+02  0.12246934010E+02  0.89636067914E+02  0.12427398117E+03  0.80421284024E+02 0.  0.
          6    2    1    2  501    0 -0.67573517081E+02 -0.13372862059E+02  0.61945005374E+03  0.64664082505E+03  0.17228167024E+03 0.  0.
         24    2    5    5    0    0 -0.10601441289E+03 -0.27940823072E+02  0.38057234468E+03  0.40420613726E+03  0.80793233218E+02 0.  0.
          5    1    5    5  501    0  0.38440895809E+02  0.14567961013E+02  0.23887770906E+03  0.24243468779E+03  0.47000000000E+01 0. -1.
        -11    1    6    6    0    0 -0.56996493251E+02 -0.55270111263E+02  0.20287181723E+03  0.21785398704E+03  0.00000000000E+00 0.  1.
         12    1    6    6    0    0 -0.49017919639E+02  0.27329288191E+02  0.17770052744E+03  0.18635215022E+03  0.00000000000E+00 0. -1.
         -5    1    3    3    0  503  0.95712945075E+02  0.11259280486E+01  0.16060708633E+03  0.18702663379E+03  0.47000000000E+01 0.  1.
         13    1    4    4    0    0  0.25571871365E+02 -0.10225973188E+02  0.33855139809E+02  0.43642429174E+02  0.00000000000E+00 0. -1.
        -14    1    4    4    0    0 -0.53711299359E+02  0.22472907199E+02  0.55780928105E+02  0.80631551995E+02  0.00000000000E+00 0.  1.
</event>
<event>
12    1  0.8451514E-002  0.1828597E+03  0.7818608E-02  0.1166486E+00
         21   -1    0    0  501  502  0.00000000000E+00  0.00000000000E+00  0.12403958833E+03  0.12403958833E+03  0.00000000000E+00 0.  1.
         21   -1    0    0  502  503 -0.00000000000E+00 -0.00000000000E+00 -0.39350396640E+03  0.39350396640E+03  0.00000000000E+00 0.  1.
         -6    2    1    2    0  503 -0.80052745916E+01  0.37543435268E+02 -0.28344425743E+03  0.33415028970E+03  0.17274887867E+03 0.  0.
        -24    2    3    3    0    0  0.32828159305E+02  0.75958307143E+02 -0.21989613374E+03  0.24927670294E+03  0.83289930521E+02 0.  0.
          6    2    1    2  501    0  0.80052745916E+01 -0.37543435268E+02  0.13979879364E+02  0.18339326504E+03  0.17878495093E+03 0.  0.
         24    2    5    5    0    0  0.11185223957E+02 -0.21939363327E+02  0.79458972162E+02  0.11584179775E+03  0.80617299324E+02 0.  0.
          5    1    5    5  501    0 -0.31799493653E+01 -0.15604071941E+02 -0.65479092798E+02  0.67551467288E+02  0.47000000000E+01 0. -1.
        -13    1    6    6    0    0 -0.32514270626E+02 -0.10935364478E+02  0.15602154435E+02  0.37685371348E+02  0.00000000000E+00 0.  1.
         14    1    6    6    0    0  0.43699494583E+02 -0.11003998849E+02  0.63856817727E+02  0.78156426400E+02  0.00000000000E+00 0. -1.
         -5    1    3    3    0  503 -0.40833433897E+02 -0.38414871875E+02 -0.63548123688E+02  0.84873586758E+02  0.47000000000E+01 0.  1.
         13    1    4    4    0    0  0.30411669734E+02  0.80405349647E+01 -0.17985158588E+02  0.36235145756E+02  0.00000000000E+00 0. -1.
        -14    1    4    4    0    0  0.24164895712E+01  0.67917772178E+02 -0.20191097515E+03  0.21304155718E+03  0.00000000000E+00 0.  1.
</event>
<event>
12    1  0.8451514E-002  0.1889308E+03  0.7818608E-02  0.1159512E+00
         21   -1    0    0  503  502  0.00000000000E+00  0.00000000000E+00  0.12250344792E+03  0.12250344792E+03  0.00000000000E+00 0. -1.
         21   -1    0    0  501  503 -0.00000000000E+00 -0.00000000000E+00 -0.53056472747E+03  0.53056472747E+03  0.00000000000E+00 0. -1.
          6    2    1    2  501    0 -0.51066994199E+01 -0.78036997002E+02 -0.42363750642E+03  0.46385726996E+03  0.17198540278E+03 0.  0.
         24    2    3    3    0    0 -0.44422049882E+02 -0.97422880069E+02 -0.37475077632E+03  0.39802785689E+03  0.80768152370E+02 0.  0.
         -6    2    1    2    0  502  0.51066994199E+01  0.78036997002E+02  0.15576226860E+02  0.18921090543E+03  0.17158757709E+03 0.  0.
        -24    2    5    5    0    0 -0.46756879934E+02  0.78858493698E+02  0.45250527560E+02  0.12926793385E+03  0.79105755972E+02 0.  0.
          5    1    3    3  501    0  0.39315350462E+02  0.19385883067E+02 -0.48886730101E+02  0.65829413063E+02  0.47000000000E+01 0. -1.
        -11    1    4    4    0    0 -0.20421954087E+02  0.10017513093E+01 -0.18232267400E+02  0.27394804051E+02  0.00000000000E+00 0.  1.
         12    1    4    4    0    0 -0.24000095795E+02 -0.98424631379E+02 -0.35651850892E+03  0.37063305284E+03  0.00000000000E+00 0. -1.
         -5    1    5    5    0  502  0.51863579353E+02 -0.82149669633E+00 -0.29674300700E+02  0.59942971583E+02  0.47000000000E+01 0.  1.
         11    1    6    6    0    0  0.19166156594E+02  0.23349309093E+01  0.20598978719E+01  0.19417431349E+02  0.00000000000E+00 0. -1.
        -12    1    6    6    0    0 -0.65923036527E+02  0.76523562789E+02  0.43190629688E+02  0.10985050250E+03  0.00000000000E+00 0.  1.
</event>
<event>
12    1  0.8451514E-002  0.1748604E+03  0.7818608E-02  0.1172990E+00
         21   -1    0    0  501  502  0.00000000000E+00  0.00000000000E+00  0.31968007602E+02  0.31968007602E+02  0.00000000000E+00 0.  1.
         21   -1    0    0  502  503 -0.00000000000E+00 -0.00000000000E+00 -0.12158080922E+04  0.12158080922E+04  0.00000000000E+00 0.  1.
         -6    2    1    2    0  503 -0.97691135219E+01  0.27548595446E+02 -0.88086261526E+03  0.89795969110E+03  0.17192527210E+03 0.  0.
        -24    2    3    3    0    0 -0.53507344273E+02  0.11543227855E+02 -0.31099464582E+03  0.32617232047E+03  0.81697190342E+02 0.  0.
          6    2    1    2  501    0  0.97691135219E+01 -0.27548595446E+02 -0.30297746934E+03  0.34981640870E+03  0.17240015133E+03 0.  0.
         24    2    5    5    0    0  0.61750866764E+02 -0.49381478232E+02 -0.18108496028E+03  0.21543392768E+03  0.85838886396E+02 0.  0.
          5    1    5    5  501    0 -0.51981753242E+02  0.21832882786E+02 -0.12189250906E+03  0.13438248102E+03  0.47000000000E+01 0. -1.
        -13    1    6    6    0    0 -0.17722865251E+02 -0.19513015929E+01 -0.62581015036E+02  0.65071429780E+02  0.00000000000E+00 0.  1.
         14    1    6    6    0    0  0.79473732015E+02 -0.47430176639E+02 -0.11850394524E+03  0.15036249790E+03  0.00000000000E+00 0. -1.
         -5    1    3    3    0  503  0.43738230752E+02  0.16005367591E+02 -0.56986796944E+03  0.57178737063E+03  0.47000000000E+01 0.  1.
         11    1    4    4    0    0 -0.44281674704E+02 -0.26433741070E+02 -0.11100484902E+03  0.12239969725E+03  0.00000000000E+00 0. -1.
        -12    1    4    4    0    0 -0.92256695698E+01  0.37976968925E+02 -0.19998979680E+03  0.20377262322E+03  0.00000000000E+00 0.  1.
</event>
<event>
12    1  0.8451514E-002  0.1896774E+03  0.7818608E-02  0.1158797E+00
         21   -1    0    0  501  502  0.00000000000E+00  0.00000000000E+00  0.67075101835E+02  0.67075101835E+02  0.00000000000E+00 0. -1.
         21   -1    0    0  502  503 -0.00000000000E+00 -0.00000000000E+00 -0.54821028275E+03  0.54821028275E+03  0.00000000000E+00 0. -1.
         -6    2    1    2    0  503 -0.39911714247E+02  0.68801371227E+02 -0.28668723984E+03  0.34364680639E+03  0.17197959309E+03 0.  0.
        -24    2    3    3    0    0 -0.73782923728E+02  0.86061548954E+02 -0.26513895300E+03  0.29969693458E+03  0.81664424043E+02 0.  0.
          6    2    1    2  501    0  0.39911714247E+02 -0.68801371227E+02 -0.19444794108E+03  0.27163857820E+03  0.17219448818E+03 0.  0.
         24    2    5    5    0    0  0.76377357847E+02  0.86980350183E+00 -0.95057917888E+02  0.14481475369E+03  0.78109204225E+02 0.  0.
          5    1    5    5  501    0 -0.36465643601E+02 -0.69671174728E+02 -0.99390023191E+02  0.12682382450E+03  0.47000000000E+01 0. -1.
        -11    1    6    6    0    0  0.41333186302E+01  0.11311327745E+02 -0.64612531188E+02  0.65725258803E+02  0.00000000000E+00 0.  1.
         12    1    6    6    0    0  0.72244039217E+02 -0.10441524243E+02 -0.30445386700E+02  0.79089494892E+02  0.00000000000E+00 0. -1.
         -5    1    3    3    0  503  0.33871209481E+02 -0.17260177728E+02 -0.21548286841E+02  0.43949871816E+02  0.47000000000E+01 0.  1.
         11    1    4    4    0    0 -0.52127755593E+01  0.62096519324E+02 -0.84432360867E+02  0.10493795454E+03  0.00000000000E+00 0. -1.
        -12    1    4    4    0    0 -0.68570148169E+02  0.23965029630E+02 -0.18070659213E+03  0.19475898004E+03  0.00000000000E+00 0.  1.
</event>
<event>
12    1  0.8451514E-002  0.2137045E+03  0.7818608E-02  0.1138997E+00
         21   -1    0    0  501  502  0.00000000000E+00  0.00000000000E+00  0.68513237367E+03  0.68513237367E+03  0.00000000000E+00 0.  1.
         21   -1    0    0  502  503 -0.00000000000E+00 -0.00000000000E+00 -0.12576424494E+03  0.12576424494E+03  0.00000000000E+00 0.  1.
         -6    2    1    2    0  503 -0.11843415898E+03  0.35213456902E+02 -0.10286559907E+00  0.21199978897E+03  0.17227089825E+03 0.  0.
        -24    2    3    3    0    0 -0.83462432039E+01  0.34538796499E+02 -0.38269979254E+02  0.95386655361E+02  0.79821265774E+02 0.  0.
          6    2    1    2  501    0  0.11843415898E+03 -0.35213456902E+02  0.55947099432E+03  0.59889682964E+03  0.17436450756E+03 0.  0.
         24    2    5    5    0    0 -0.82997574292E+01 -0.33815296513E+02  0.22810037364E+03  0.24408417672E+03  0.79592365312E+02 0.  0.
          5    1    5    5  501    0  0.12673391641E+03 -0.13981603898E+01  0.33137062068E+03  0.35481265292E+03  0.47000000000E+01 0. -1.
        -11    1    6    6    0    0 -0.30022673350E+02 -0.12074405265E+01  0.17781826554E+03  0.18033899852E+03  0.00000000000E+00 0.  1.
         12    1    6    6    0    0  0.21722915921E+02 -0.32607855986E+02  0.50282108106E+02  0.63745178199E+02  0.00000000000E+00 0. -1.
         -5    1    3    3    0  503 -0.11008791577E+03  0.67466040357E+00  0.38167113655E+02  0.11661313361E+03  0.47000000000E+01 0.  1.
         11    1    4    4    0    0  0.15642359258E+02 -0.11278289738E+02  0.12446200432E+02  0.22951930807E+02  0.00000000000E+00 0. -1.
        -12    1    4    4    0    0 -0.23988602462E+02  0.45817086237E+02 -0.50716179686E+02  0.72434724554E+02  0.00000000000E+00 0.  1.
</event>
<event>
12    1  0.8451514E-002  0.1858823E+03  0.7818608E-02  0.1162273E+00
         21   -1    0    0  501  502  0.00000000000E+00  0.00000000000E+00  0.26404609791E+03  0.26404609791E+03  0.00000000000E+00 0. -1.
         21   -1    0    0  502  503 -0.00000000000E+00 -0.00000000000E+00 -0.33911183291E+03  0.33911183291E+03  0.00000000000E+00 0. -1.
         -6    2    1    2    0  503  0.26379651911E+02  0.65493719021E+02 -0.27395200366E+03  0.33106183229E+03  0.17195035104E+03 0.  0.
        -24    2    3    3    0    0  0.14648984035E+02  0.10981838066E+03 -0.22986343788E+03  0.26727957903E+03  0.79539322518E+02 0.  0.
          6    2    1    2  501    0 -0.26379651911E+02 -0.65493719021E+02  0.19888626867E+03  0.27209609853E+03  0.17174174131E+03 0.  0.
         24    2    5    5    0    0 -0.32909394318E+01 -0.78218593597E+02  0.30365328535E+02  0.10146079053E+03  0.56949628360E+02 0.  0.
          5    1    5    5  501    0 -0.23088712480E+02  0.12724874576E+02  0.16852094013E+03  0.17063530801E+03  0.47000000000E+01 0. -1.
        -11    1    6    6    0    0  0.96114902079E+01  0.26590245735E+01  0.15182906180E+02  0.18165125812E+02  0.00000000000E+00 0.  1.
         12    1    6    6    0    0 -0.12902429640E+02 -0.80877618170E+02  0.15182422356E+02  0.83295664713E+02  0.00000000000E+00 0. -1.
         -5    1    3    3    0  503  0.11730667876E+02 -0.44324661640E+02 -0.44088565776E+02  0.63782253257E+02  0.47000000000E+01 0.  1.
         13    1    4    4    0    0  0.41908807632E+02  0.55503802289E+02 -0.82668637766E+02  0.10803297596E+03  0.00000000000E+00 0. -1.
        -14    1    4    4    0    0 -0.27259823597E+02  0.54314578372E+02 -0.14719480012E+03  0.15924660307E+03  0.00000000000E+00 0.  1.
</event>
<event>
12    1  0.8451514E-002  0.1743291E+03  0.7818608E-02  0.1173478E+00
         21   -1    0    0  503  502  0.00000000000E+00  0.00000000000E+00  0.80051358859E+02  0.80051358859E+02  0.00000000000E+00 0. -1.
         21   -1    0    0  501  503 -0.00000000000E+00 -0.00000000000E+00 -0.44961489154E+03  0.44961489154E+03  0.00000000000E+00 0. -1.
          6    2    1    2  501    0  0.23489327907E+02 -0.35094975506E+01 -0.28958851318E+03  0.33786777213E+03  0.17242116859E+03 0.  0.
         24    2    3    3    0    0 -0.51780272347E+01 -0.24859032181E+02 -0.28989419654E+03  0.30181498691E+03  0.80055341407E+02 0.  0.
         -6    2    1    2    0  502 -0.23489327907E+02  0.35094975506E+01 -0.79975019495E+02  0.19179847827E+03  0.17270375625E+03 0.  0.
        -24    2    5    5    0    0 -0.81233332586E+02 -0.44012257227E+01 -0.39985552282E+02  0.12095924403E+03  0.80087884318E+02 0.  0.
          5    1    3    3  501    0  0.28667355141E+02  0.21349534630E+02  0.30568335761E+00  0.36052785219E+02  0.47000000000E+01 0. -1.
        -13    1    4    4    0    0 -0.21238756476E+01  0.59004375901E+01 -0.25547982762E+03  0.25555678104E+03  0.00000000000E+00 0.  1.
         14    1    4    4    0    0 -0.30541515871E+01 -0.30759469771E+02 -0.34414368918E+02  0.46258205872E+02  0.00000000000E+00 0. -1.
         -5    1    5    5    0  502  0.57744004680E+02  0.79107232733E+01 -0.39989467213E+02  0.70839234236E+02  0.47000000000E+01 0.  1.
         11    1    6    6    0    0 -0.81782725201E+02  0.22047904104E+02 -0.41774857233E+02  0.94443967057E+02  0.00000000000E+00 0. -1.
        -12    1    6    6    0    0  0.54939261439E+00 -0.26449129827E+02  0.17893049509E+01  0.26515276975E+02  0.00000000000E+00 0.  1.
</event>
<event>
12    1  0.8451514E-002  0.2202335E+03  0.7818608E-02  0.1134047E+00
         21   -1    0    0  503  502  0.00000000000E+00  0.00000000000E+00  0.87599980567E+02  0.87599980567E+02  0.00000000000E+00 0.  1.
         21   -1    0    0  501  503 -0.00000000000E+00 -0.00000000000E+00 -0.55834547864E+03  0.55834547864E+03  0.00000000000E+00 0.  1.
          6    2    1    2  501    0  0.10737862461E+03  0.82630854165E+02 -0.19298050827E+03  0.29146527745E+03  0.17132572576E+03 0.  0.
         24    2    3    3    0    0  0.10390687007E+03  0.26220332746E+02 -0.19282031014E+03  0.23475270680E+03  0.80280868536E+02 0.  0.
         -6    2    1    2    0  502 -0.10737862461E+03 -0.82630854165E+02 -0.27776498981E+03  0.35448018176E+03  0.17362252910E+03 0.  0.
        -24    2    5    5    0    0 -0.72030673568E+01  0.72208599921E+01 -0.77238990597E+02  0.11294086991E+03  0.81766456624E+02 0.  0.
          5    1    3    3  501    0  0.34717545335E+01  0.56410521418E+02 -0.16019812891E+00  0.56712570649E+02  0.47000000000E+01 0. -1.
        -11    1    4    4    0    0  0.98484780792E+02  0.45903353675E+02 -0.13416567602E+03  0.17264645536E+03  0.00000000000E+00 0.  1.
         12    1    4    4    0    0  0.54220892811E+01 -0.19683020929E+02 -0.58654634121E+02  0.62106251448E+02  0.00000000000E+00 0. -1.
         -5    1    5    5    0  502 -0.10017555725E+03 -0.89851714157E+02 -0.20052599921E+03  0.24153931185E+03  0.47000000000E+01 0.  1.
         13    1    6    6    0    0  0.14008217147E+02  0.20185868107E+02 -0.83719287957E+02  0.87250321460E+02  0.00000000000E+00 0. -1.
        -14    1    6    6    0    0 -0.21211284503E+02 -0.12965008115E+02  0.64802973596E+01  0.25690548448E+02  0.00000000000E+00 0.  1.
</event>
<event>
12    1  0.8451514E-002  0.2171714E+03  0.7818608E-02  0.1136047E+00
         21   -1    0    0  501  502  0.00000000000E+00  0.00000000000E+00  0.46703607990E+03  0.46703607990E+03  0.00000000000E+00 0.  1.
         21   -1    0    0  502  503 -0.00000000000E+00 -0.00000000000E+00 -0.21084699911E+03  0.21084699911E+03  0.00000000000E+00 0. -1.
         -6    2    1    2    0  503  0.42233846190E+02  0.12453896905E+03 -0.11669838588E+03  0.24636426597E+03  0.17257805685E+03 0.  0.
        -24    2    3    3    0    0  0.62010380981E+02  0.42944302551E+02 -0.11911638131E+03  0.16224091826E+03  0.80273923475E+02 0.  0.
          6    2    1    2  501    0 -0.42233846190E+02 -0.12453896905E+03  0.37288746666E+03  0.43151881304E+03  0.17282873210E+03 0.  0.
         24    2    5    5    0    0 -0.55058916569E+02 -0.12085170067E+03  0.17596932143E+03  0.23409306928E+03  0.78725759138E+02 0.  0.
          5    1    5    5  501    0  0.12825070380E+02 -0.36872683781E+01  0.19691814523E+03  0.19742574376E+03  0.47000000000E+01 0. -1.
        -11    1    6    6    0    0  0.65553382907E+01 -0.79806356312E+02  0.98394812297E+02  0.12686041958E+03  0.00000000000E+00 0.  1.
         12    1    6    6    0    0 -0.61614254860E+02 -0.41045344355E+02  0.77574509138E+02  0.10723264971E+03  0.00000000000E+00 0. -1.
         -5    1    3    3    0  503 -0.19776534792E+02  0.81594666495E+02  0.24179954270E+01  0.84123347715E+02  0.47000000000E+01 0.  1.
         11    1    4    4    0    0  0.69998945741E+02  0.51120781852E+02 -0.68862586153E+02  0.11070339884E+03  0.00000000000E+00 0. -1.
        -12    1    4    4    0    0 -0.79885647599E+01 -0.81764793010E+01 -0.50253795155E+02  0.51537519422E+02  0.00000000000E+00 0.  1.
</event>
<event>
12    1  0.8451514E-002  0.2144974E+03  0.7818608E-02  0.1138146E+00
         21   -1    0    0  501  502  0.00000000000E+00  0.00000000000E+00  0.72290277172E+03  0.72290277172E+03  0.00000000000E+00 0.  1.
         21   -1    0    0  502  503 -0.00000000000E+00 -0.00000000000E+00 -0.16575675625E+03  0.16575675625E+03  0.00000000000E+00 0.  1.
         -6    2    1    2    0  503 -0.80265211065E+00 -0.12860736037E+03 -0.70533190240E+02  0.22534185927E+03  0.17106585054E+03 0.  0.
        -24    2    3    3    0    0  0.23795091335E+02 -0.28890372151E+02  0.17363459057E+02  0.90077534037E+02  0.80072544940E+02 0.  0.
          6    2    1    2  501    0  0.80265211065E+00  0.12860736037E+03  0.62767920572E+03  0.66331766871E+03  0.17166434380E+03 0.  0.
         24    2    5    5    0    0  0.63032105904E+02  0.10524972957E+03  0.47878937001E+03  0.50019698635E+03  0.76858391645E+02 0.  0.
          5    1    5    5  501    0 -0.62229453793E+02  0.23357630802E+02  0.14888983571E+03  0.16312068236E+03  0.47000000000E+01 0. -1.
        -11    1    6    6    0    0  0.16142408035E+01 -0.81599377435E+01  0.94024539806E+02  0.94391760462E+02  0.00000000000E+00 0.  1.
         12    1    6    6    0    0  0.61417865101E+02  0.11340966731E+03  0.38476483021E+03  0.40580522589E+03  0.00000000000E+00 0. -1.
         -5    1    3    3    0  503 -0.24597743446E+02 -0.99716988217E+02 -0.87896649297E+02  0.13526432523E+03  0.47000000000E+01 0.  1.
         13    1    4    4    0    0  0.34635481638E+02 -0.55204926518E+00 -0.21502435132E+02  0.40771019895E+02  0.00000000000E+00 0. -1.
        -14    1    4    4    0    0 -0.10840390303E+02 -0.28338322885E+02  0.38865894188E+02  0.49306514143E+02  0.00000000000E+00 0.  1.
</event>
<event>
12    1  0.8451514E-002  0.2265728E+03  0.7818608E-02  0.1129310E+00
         21   -1    0    0  501  502  0.00000000000E+00  0.00000000000E+00  0.49734181770E+03  0.49734181770E+03  0.00000000000E+00 0. -1.
         21   -1    0    0  502  503 -0.00000000000E+00 -0.00000000000E+00 -0.18255972312E+03  0.18255972312E+03  0.00000000000E+00 0.  1.
         -6    2    1    2    0  503 -0.70074566982E+02 -0.13059147632E+03 -0.67808383628E+02  0.23525479772E+03  0.16965336523E+03 0.  0.
        -24    2    3    3    0    0  0.25459186254E+02 -0.48749291201E+02 -0.47319305571E+02  0.10771369222E+03  0.79614441245E+02 0.  0.
          6    2    1    2  501    0  0.70074566982E+02  0.13059147632E+03  0.38259047821E+03  0.44464674310E+03  0.17137874288E+03 0.  0.
         24    2    5    5    0    0  0.54599350581E+02  0.38472175929E+02  0.30957161809E+03  0.32599055169E+03  0.77292015508E+02 0.  0.
          5    1    5    5  501    0  0.15475216401E+02  0.92119300390E+02  0.73018860118E+02  0.11865619141E+03  0.47000000000E+01 0. -1.
        -11    1    6    6    0    0  0.20672733357E+02  0.46907069419E+02  0.89338661772E+02  0.10300015317E+03  0.00000000000E+00 0.  1.
         12    1    6    6    0    0  0.33926617224E+02 -0.84348934906E+01  0.22023295631E+03  0.22299039852E+03  0.00000000000E+00 0. -1.
         -5    1    3    3    0  503 -0.95533753236E+02 -0.81842185118E+02 -0.20489078057E+02  0.12754110550E+03  0.47000000000E+01 0.  1.
         11    1    4    4    0    0  0.12086327406E+02  0.12760010850E+02 -0.40807668513E+02  0.44431554064E+02  0.00000000000E+00 0. -1.
        -12    1    4    4    0    0  0.13372858848E+02 -0.61509302050E+02 -0.65116370575E+01  0.63282138156E+02  0.00000000000E+00 0.  1.
</event>
<event>
12    1  0.8451514E-002  0.1968019E+03  0.7818608E-02  0.1152683E+00
         21   -1    0    0  503  502  0.00000000000E+00  0.00000000000E+00  0.89501865140E+03  0.89501865140E+03  0.00000000000E+00 0.  1.
         21   -1    0    0  501  503 -0.00000000000E+00 -0.00000000000E+00 -0.18538561298E+03  0.18538561298E+03  0.00000000000E+00 0. -1.
          6    2    1    2  501    0  0.92667681518E+02 -0.21610387175E+02 -0.11830874065E+03  0.22962565616E+03  0.17226919579E+03 0.  0.
         24    2    3    3    0    0  0.62581392993E+02  0.86910121323E+01  0.29159621993E+01  0.10101431086E+03  0.78761816398E+02 0.  0.
         -6    2    1    2    0  502 -0.92667681518E+02  0.21610387175E+02  0.82794177907E+03  0.85077860823E+03  0.17112084226E+03 0.  0.
        -24    2    5    5    0    0 -0.55749878821E+02 -0.54196662656E+02  0.51513364219E+03  0.52677142704E+03  0.77975251214E+02 0.  0.
          5    1    3    3  501    0  0.30086288526E+02 -0.30301399307E+02 -0.12122470285E+03  0.12861134530E+03  0.47000000000E+01 0. -1.
        -13    1    4    4    0    0 -0.84446322635E+01 -0.18483250869E+01  0.24545759740E+02  0.26023497861E+02  0.00000000000E+00 0.  1.
         14    1    4    4    0    0  0.71026025256E+02  0.10539337219E+02 -0.21629797541E+02  0.74990813000E+02  0.00000000000E+00 0. -1.
         -5    1    5    5    0  502 -0.36917802698E+02  0.75807049831E+02  0.31280813689E+03  0.32400718119E+03  0.47000000000E+01 0.  1.
         13    1    6    6    0    0  0.18458542395E+02 -0.84251493486E+01  0.15033724995E+03  0.15170032845E+03  0.00000000000E+00 0. -1.
        -14    1    6    6    0    0 -0.74208421216E+02 -0.45771513308E+02  0.36479639223E+03  0.37507109859E+03  0.00000000000E+00 0.  1.
</event>
<event>
12    1  0.8451514E-002  0.1727814E+03  0.7818608E-02  0.1175374E+00
         21   -1    0    0  501  502  0.00000000000E+00  0.00000000000E+00  0.18686952390E+03  0.18686952390E+03  0.00000000000E+00 0. -1.
         21   -1    0    0  502  503 -0.00000000000E+00 -0.00000000000E+00 -0.18459740880E+03  0.18459740880E+03  0.00000000000E+00 0. -1.
         -6    2    1    2    0  503 -0.71025993838E-01 -0.49641301483E+01 -0.68929302395E+02  0.18458980627E+03  0.17116512558E+03 0.  0.
        -24    2    3    3    0    0  0.28721401542E+01  0.26535585971E+01  0.29883067044E+02  0.85329211049E+02  0.79829731304E+02 0.  0.
          6    2    1    2  501    0  0.71025993838E-01  0.49641301483E+01  0.71201417493E+02  0.18687712643E+03  0.17271007758E+03 0.  0.
         24    2    5    5    0    0 -0.61697619076E+02  0.30921152210E+02  0.39414947879E+02  0.11256964257E+03  0.79722471476E+02 0.  0.
          5    1    5    5  501    0  0.61768645070E+02 -0.25957022061E+02  0.31786469614E+02  0.74307483866E+02  0.47000000000E+01 0. -1.
        -13    1    6    6    0    0 -0.52502950462E+02 -0.18119674984E+02  0.21396488399E+02  0.59520518685E+02  0.00000000000E+00 0.  1.
         14    1    6    6    0    0 -0.91946686136E+01  0.49040827194E+02  0.18018459480E+02  0.53049123883E+02  0.00000000000E+00 0. -1.
         -5    1    3    3    0  503 -0.29431661481E+01 -0.76176887454E+01 -0.98812369439E+02  0.99260595217E+02  0.47000000000E+01 0.  1.
         11    1    4    4    0    0 -0.31135571476E+02  0.10954197293E+02 -0.77791388122E+01  0.33910665728E+02  0.00000000000E+00 0. -1.
        -12    1    4    4    0    0  0.34007711630E+02 -0.83006386955E+01  0.37662205856E+02  0.51418545322E+02  0.00000000000E+00 0.  1.
</event>
<event>
12    1  0.8451514E-002  0.3270842E+03  0.7818608E-02  0.1072454E+00
         21   -1    0    0  503  502  0.00000000000E+00  0.00000000000E+00  0.84634197835E+02  0.84634197835E+02  0.00000000000E+00 0. -1.
         21   -1    0    0  501  503 -0.00000000000E+00 -0.00000000000E+00 -0.12927738233E+04  0.12927738233E+04  0.00000000000E+00 0. -1.
          6    2    1    2  501    0 -0.16852991947E+03  0.22097208244E+03 -0.50042192560E+03  0.59783455141E+03  0.17249073093E+03 0.  0.
         24    2    3    3    0    0 -0.14928208141E+03  0.24399815286E+03 -0.45970032074E+03  0.54703082820E+03  0.78090355874E+02 0.  0.
         -6    2    1    2    0  502  0.16852991947E+03 -0.22097208244E+03 -0.70771769987E+03  0.77957346974E+03  0.17216113683E+03 0.  0.
        -24    2    5    5    0    0  0.80953409854E+02 -0.20686124392E+03 -0.46916547972E+03  0.52501893228E+03  0.78635889341E+02 0.  0.
          5    1    3    3  501    0 -0.19247838057E+02 -0.23026070423E+02 -0.40721604861E+02  0.50803723205E+02  0.47000000000E+01 0. -1.
        -13    1    4    4    0    0 -0.42351953791E+02  0.10588127427E+03 -0.12307451440E+03  0.16778518506E+03  0.00000000000E+00 0.  1.
         14    1    4    4    0    0 -0.10693012762E+03  0.13811687859E+03 -0.33662580634E+03  0.37924564314E+03  0.00000000000E+00 0. -1.
         -5    1    5    5    0  502  0.87576509614E+02 -0.14110838525E+02 -0.23855222016E+03  0.25455453746E+03  0.47000000000E+01 0.  1.
         13    1    6    6    0    0  0.64426421500E+02 -0.12106338292E+03 -0.35971149824E+03  0.38496684070E+03  0.00000000000E+00 0. -1.
        -14    1    6    6    0    0  0.16526988354E+02 -0.85797860992E+02 -0.10945398148E+03  0.14005209158E+03  0.00000000000E+00 0.  1.
</event>
<event>
12    1  0.8451514E-002  0.1946099E+03  0.7818608E-02  0.1157470E+00
         21   -1    0    0  501  502  0.00000000000E+00  0.00000000000E+00  0.35418147185E+03  0.35418147185E+03  0.00000000000E+00 0. -1.
         21   -1    0    0  502  503 -0.00000000000E+00 -0.00000000000E+00 -0.10241510740E+03  0.10241510740E+03  0.00000000000E+00 0.  1.
         -6    2    1    2    0  503 -0.31453682994E+02  0.92867414816E+02  0.92252484497E+02  0.21536839012E+03  0.16810512085E+03 0.  0.
        -24    2    3    3    0    0 -0.62005644280E+02  0.38498605183E+02  0.10685659834E+03  0.15114409611E+03  0.78098416473E+02 0.  0.
          6    2    1    2  501    0  0.31453682994E+02 -0.92867414816E+02  0.15951387995E+03  0.24122818914E+03  0.15209428138E+03 0.  0.
         24    2    5    5    0    0  0.64170505740E+02 -0.45972160821E+02  0.58434016900E+02  0.12500089436E+03  0.77326553537E+02 0.  0.
          5    1    5    5  501    0 -0.32716822746E+02 -0.46895253995E+02  0.10107986305E+03  0.11622729478E+03  0.47000000000E+01 0. -1.
        -11    1    6    6    0    0 -0.34731895323E+01 -0.41867965113E+02  0.29388563520E+02  0.51270627205E+02  0.00000000000E+00 0.  1.
         12    1    6    6    0    0  0.67643695272E+02 -0.41041957080E+01  0.29045453380E+02  0.73730267154E+02  0.00000000000E+00 0. -1.
         -5    1    3    3    0  503  0.30551961287E+02  0.54368809633E+02 -0.14604113846E+02  0.64224294006E+02  0.47000000000E+01 0.  1.
         11    1    4    4    0    0 -0.51066065316E+02 -0.12614933695E+02  0.38963675391E+02  0.65460274816E+02  0.00000000000E+00 0. -1.
        -12    1    4    4    0    0 -0.10939578964E+02  0.51113538878E+02  0.67892922952E+02  0.85683821294E+02  0.00000000000E+00 0.  1.
</event>
<event>
12    1  0.8451514E-002  0.1842648E+03  0.7818608E-02  0.1166224E+00
         21   -1    0    0  503  502  0.00000000000E+00  0.00000000000E+00  0.21391547223E+03  0.21391547223E+03  0.00000000000E+00 0.  1.
         21   -1    0    0  501  503 -0.00000000000E+00 -0.00000000000E+00 -0.19786964501E+03  0.19786964501E+03  0.00000000000E+00 0.  1.
          6    2    1    2  501    0  0.10171404431E+02 -0.29283803749E+02 -0.93391964320E+02  0.19747189317E+03  0.17120774212E+03 0.  0.
         24    2    3    3    0    0  0.47217014701E+02 -0.21851161271E+02 -0.11840280724E+03  0.15191694088E+03  0.79703277470E+02 0.  0.
         -6    2    1    2    0  502 -0.10171404431E+02  0.29283803749E+02  0.10943779154E+03  0.21431322407E+03  0.18163845729E+03 0.  0.
        -24    2    5    5    0    0  0.53222800413E+02  0.53682493846E+02  0.94766603592E+02  0.14466083688E+03  0.78940306185E+02 0.  0.
          5    1    3    3  501    0 -0.37045610271E+02 -0.74326424781E+01  0.25010842915E+02  0.45554952287E+02  0.47000000000E+01 0. -1.
        -13    1    4    4    0    0  0.80491153316E+01 -0.46382273447E+02 -0.74787833554E+02  0.88370377364E+02  0.00000000000E+00 0.  1.
         14    1    4    4    0    0  0.39167899370E+02  0.24531112177E+02 -0.43614973681E+02  0.63546563517E+02  0.00000000000E+00 0. -1.
         -5    1    5    5    0  502 -0.63394204844E+02 -0.24398690098E+02  0.14671187949E+02  0.69652387196E+02  0.47000000000E+01 0.  1.
         11    1    6    6    0    0  0.43890035024E+02  0.49076400463E+02  0.19483501003E+02  0.68661743847E+02  0.00000000000E+00 0. -1.
        -12    1    6    6    0    0  0.93327653895E+01  0.46060933828E+01  0.75283102589E+02  0.75999093031E+02  0.00000000000E+00 0.  1.
</event>
<event>
12    1  0.8451514E-002  0.2086232E+03  0.7818608E-02  0.1143395E+00
         21   -1    0    0  501  502  0.00000000000E+00  0.00000000000E+00  0.28229943975E+03  0.28229943975E+03  0.00000000000E+00 0.  1.
         21   -1    0    0  502  503 -0.00000000000E+00 -0.00000000000E+00 -0.22403569407E+03  0.22403569407E+03  0.00000000000E+00 0.  1.
         -6    2    1    2    0  503 -0.81103758248E+02  0.85127060577E+02 -0.11509437919E+03  0.23508490385E+03  0.16790997543E+03 0.  0.
        -24    2    3    3    0    0 -0.22583204880E+02  0.10813630559E+03 -0.10246344732E+03  0.17077541028E+03  0.80386696614E+02 0.  0.
          6    2    1    2  501    0  0.81103758248E+02 -0.85127060577E+02  0.17335812487E+03  0.27125022997E+03  0.17233459245E+03 0.  0.
         24    2    5    5    0    0  0.73695484246E+02  0.66784030058E+01  0.12828175540E+03  0.16859987803E+03  0.80585883623E+02 0.  0.
          5    1    5    5  501    0  0.74082740012E+01 -0.91805463583E+02  0.45076369473E+02  0.10265035193E+03  0.47000000000E+01 0. -1.
        -11    1    6    6    0    0  0.78089165191E+02 -0.19043169258E+02  0.11194954092E+03  0.13781603581E+03  0.00000000000E+00 0.  1.
         12    1    6    6    0    0 -0.43936809446E+01  0.25721572263E+02  0.16332214484E+02  0.30783842221E+02  0.00000000000E+00 0. -1.
         -5    1    3    3    0  503 -0.58520553367E+02 -0.23009245010E+02 -0.12630931876E+02  0.64309493564E+02  0.47000000000E+01 0.  1.
         11    1    4    4    0    0  0.12680965773E+02 -0.80547498731E+01 -0.14087531050E+02  0.20594766800E+02  0.00000000000E+00 0. -1.
        -12    1    4    4    0    0 -0.35264170654E+02  0.11619105546E+03 -0.88375916268E+02  0.15018064348E+03  0.00000000000E+00 0.  1.
</event>
<event>
12    1  0.8451514E-002  0.2905654E+03  0.7818608E-02  0.1090054E+00
         21   -1    0    0  501  502  0.00000000000E+00  0.00000000000E+00  0.42754390574E+03  0.42754390574E+03  0.00000000000E+00 0. -1.
         21   -1    0    0  502  503 -0.00000000000E+00 -0.00000000000E+00 -0.24787853114E+03  0.24787853114E+03  0.00000000000E+00 0. -1.
         -6    2    1    2    0  503  0.12664380626E+03 -0.19693563386E+03 -0.62456075815E+02  0.29720196558E+03  0.17206379453E+03 0.  0.
        -24    2    3    3    0    0  0.14828414688E+03 -0.19920649611E+03 -0.75202749118E+02  0.27154989280E+03  0.80077927667E+02 0.  0.
          6    2    1    2  501    0 -0.12664380626E+03  0.19693563386E+03  0.24212145041E+03  0.37822047130E+03  0.17206286820E+03 0.  0.
         24    2    5    5    0    0 -0.76089884356E+02  0.26190333847E+02  0.95478933046E+02  0.14749168160E+03  0.78498187226E+02 0.  0.
          5    1    5    5  501    0 -0.50553921907E+02  0.17074530002E+03  0.14664251736E+03  0.23072878970E+03  0.47000000000E+01 0. -1.
        -13    1    6    6    0    0 -0.12183590587E+02  0.20629183457E+02  0.77138602500E+02  0.80773554368E+02  0.00000000000E+00 0.  1.
         14    1    6    6    0    0 -0.63906293769E+02  0.55611503899E+01  0.18340330546E+02  0.66718127233E+02  0.00000000000E+00 0. -1.
         -5    1    3    3    0  503 -0.21640340617E+02  0.22708622428E+01  0.12746673303E+02  0.25652072775E+02  0.47000000000E+01 0.  1.
         13    1    4    4    0    0  0.78674396809E+02 -0.13958792096E+03 -0.12947891598E+02  0.16075477065E+03  0.00000000000E+00 0. -1.
        -14    1    4    4    0    0  0.69609750071E+02 -0.59618575150E+02 -0.62254857520E+02  0.11079512215E+03  0.00000000000E+00 0.  1.
</event>
<event>
12    1  0.8451514E-002  0.2038394E+03  0.7818608E-02  0.1146562E+00
         21   -1    0    0  501  502  0.00000000000E+00  0.00000000000E+00  0.63131212056E+02  0.63131212056E+02  0.00000000000E+00 0. -1.
         21   -1    0    0  502  503 -0.00000000000E+00 -0.00000000000E+00 -0.73757654967E+03  0.73757654967E+03  0.00000000000E+00 0.  1.
         -6    2    1    2    0  503 -0.51951639851E+01 -0.10842981926E+03 -0.46879993284E+03  0.51115542959E+03  0.17240209028E+03 0.  0.
        -24    2    3    3    0    0 -0.53404607864E+02 -0.15901480939E+02 -0.22315136019E+03  0.24422668419E+03  0.82129376487E+02 0.  0.
          6    2    1    2  501    0  0.51951639851E+01  0.10842981926E+03 -0.20564540478E+03  0.28955233214E+03  0.17252972239E+03 0.  0.
         24    2    5    5    0    0 -0.14806670956E+02  0.98090004337E+01 -0.30577977573E+02  0.87570072088E+02  0.80112738180E+02 0.  0.
          5    1    5    5  501    0  0.20001834941E+02  0.98620818830E+02 -0.17506742720E+03  0.20198226005E+03  0.47000000000E+01 0. -1.
        -11    1    6    6    0    0 -0.21021255697E+02 -0.22136706909E+02 -0.43000753108E+02  0.52735109290E+02  0.00000000000E+00 0.  1.
         12    1    6    6    0    0  0.62145847415E+01  0.31945707343E+02  0.12422775535E+02  0.34834962798E+02  0.00000000000E+00 0. -1.
         -5    1    3    3    0  503  0.48209443878E+02 -0.92528338325E+02 -0.24564857265E+03  0.26692874539E+03  0.47000000000E+01 0.  1.
         13    1    4    4    0    0 -0.52678442639E+02 -0.41845406421E+02 -0.19328621677E+03  0.20465976143E+03  0.00000000000E+00 0. -1.
        -14    1    4    4    0    0 -0.72616522474E+00  0.25943925482E+02 -0.29865143419E+02  0.39566922761E+02  0.00000000000E+00 0.  1.
</event>
<event>
12    1  0.8451514E-002  0.2059531E+03  0.7818608E-02  0.1144872E+00
         21   -1    0    0  501  502  0.00000000000E+00  0.00000000000E+00  0.34368267093E+02  0.34368267093E+02  0.00000000000E+00 0. -1.
         21   -1    0    0  502  503 -0.00000000000E+00 -0.00000000000E+00 -0.16175880960E+04  0.16175880960E+04  0.00000000000E+00 0.  1.
         -6    2    1    2    0  503  0.10818541489E+03  0.31733730828E+02 -0.11951046857E+04  0.12127208569E+04  0.17235299069E+03 0.  0.
        -24    2    3    3    0    0  0.10971584102E+03 -0.25566998172E+02 -0.99614617380E+03  0.10056163055E+04  0.79156283656E+02 0.  0.
          6    2    1    2  501    0 -0.10818541489E+03 -0.31733730828E+02 -0.38811514321E+03  0.43923550616E+03  0.17199811573E+03 0.  0.
         24    2    5    5    0    0 -0.64946649805E+01  0.94894646080E+01 -0.83868848017E+02  0.11577258928E+03  0.78975174254E+02 0.  0.
          5    1    5    5  501    0 -0.10169074991E+03 -0.41223195436E+02 -0.30424629520E+03  0.32346291689E+03  0.47000000000E+01 0. -1.
        -11    1    6    6    0    0  0.86755180479E+01 -0.17145481874E+02 -0.82907726820E+02  0.85105366039E+02  0.00000000000E+00 0.  1.
         12    1    6    6    0    0 -0.15170183028E+02  0.26634946482E+02 -0.96112119700E+00  0.30667223238E+02  0.00000000000E+00 0. -1.
         -5    1    3    3    0  503 -0.15304261306E+01  0.57300729000E+02 -0.19895851186E+03  0.20710455135E+03  0.47000000000E+01 0.  1.
         11    1    4    4    0    0  0.34098581138E+02 -0.40799867311E+02 -0.25615108866E+03  0.26161177847E+03  0.00000000000E+00 0. -1.
        -12    1    4    4    0    0  0.75617259883E+02  0.15232869139E+02 -0.73999508514E+03  0.74400452708E+03  0.00000000000E+00 0.  1.
</event>
<event>
12    1  0.8451514E-002  0.3376130E+03  0.7818608E-02  0.1068213E+00
         21   -1    0    0  501  502  0.00000000000E+00  0.00000000000E+00  0.28566946141E+03  0.28566946141E+03  0.00000000000E+00 0. -1.
         21   -1    0    0  502  503 -0.00000000000E+00 -0.00000000000E+00 -0.43966646093E+03  0.43966646093E+03  0.00000000000E+00 0.  1.
         -6    2    1    2    0  503 -0.25964208448E+03  0.13135801448E+03 -0.19261898244E+03  0.38552102240E+03  0.16387631407E+03 0.  0.
        -24    2    3    3    0    0 -0.20711477463E+03  0.11192071455E+03 -0.79792255096E+02  0.25946989265E+03  0.74397883031E+02 0.  0.
          6    2    1    2  501    0  0.25964208448E+03 -0.13135801448E+03  0.38621982922E+02  0.33981489994E+03  0.17121205756E+03 0.  0.
         24    2    5    5    0    0  0.16162878739E+03 -0.15216477218E+02  0.16979301150E+02  0.18623769213E+03  0.89670369743E+02 0.  0.
          5    1    5    5  501    0  0.98013297096E+02 -0.11614153726E+03  0.21642681772E+02  0.15357720781E+03  0.47000000000E+01 0. -1.
        -13    1    6    6    0    0  0.34441863349E+02  0.29787216654E+02 -0.14331263133E+02  0.47737881498E+02  0.00000000000E+00 0.  1.
         14    1    6    6    0    0  0.12718692404E+03 -0.45003693872E+02  0.31310564282E+02  0.13849981063E+03  0.00000000000E+00 0. -1.
         -5    1    3    3    0  503 -0.52527309850E+02  0.19437299928E+02 -0.11282672735E+03  0.12605112976E+03  0.47000000000E+01 0.  1.
         11    1    4    4    0    0 -0.21239410502E+02  0.30959909137E+02  0.82431399603E+01  0.38439275340E+02  0.00000000000E+00 0. -1.
        -12    1    4    4    0    0 -0.18587536413E+03  0.80960805417E+02 -0.88035395056E+02  0.22103061731E+03  0.00000000000E+00 0.  1.
</event>
<event>
12    1  0.8451514E-002  0.1703461E+03  0.7818608E-02  0.1177694E+00
         21   -1    0    0  501  502  0.00000000000E+00  0.00000000000E+00  0.15841363983E+03  0.15841363983E+03  0.00000000000E+00 0.  1.
         21   -1    0    0  502  503 -0.00000000000E+00 -0.00000000000E+00 -0.69308667696E+03  0.69308667696E+03  0.00000000000E+00 0.  1.
         -6    2    1    2    0  503  0.11765523356E+01  0.19984403644E+01 -0.63298532030E+03  0.65550606751E+03  0.17033029911E+03 0.  0.
        -24    2    3    3    0    0  0.62461163703E+02 -0.25574954318E+02 -0.32103900327E+03  0.33636865136E+03  0.74312534171E+02 0.  0.
          6    2    1    2  501    0 -0.11765523356E+01 -0.19984403644E+01  0.98312283162E+02  0.19599424927E+03  0.16953779133E+03 0.  0.
         24    2    5    5    0    0 -0.21476740858E+02 -0.47973983435E+02  0.10889197474E+03  0.14442034028E+03  0.78974800032E+02 0.  0.
          5    1    5    5  501    0  0.20300188523E+02  0.45975543071E+02 -0.10579691579E+02  0.51573908991E+02  0.47000000000E+01 0. -1.
        -11    1    6    6    0    0  0.26920689245E+02 -0.30000106092E+01  0.44927967849E+02  0.52461851551E+02  0.00000000000E+00 0.  1.
         12    1    6    6    0    0 -0.48397430103E+02 -0.44973972826E+02  0.63964006891E+02  0.91958488732E+02  0.00000000000E+00 0. -1.
         -5    1    3    3    0  503 -0.61284611367E+02  0.27573394683E+02 -0.31194631702E+03  0.31913741615E+03  0.47000000000E+01 0.  1.
         11    1    4    4    0    0  0.11352479616E+02 -0.43325680598E+02 -0.17465444717E+03  0.18030576615E+03  0.00000000000E+00 0. -1.
        -12    1    4    4    0    0  0.51108684087E+02  0.17750726279E+02 -0.14638455610E+03  0.15606288520E+03  0.00000000000E+00 0.  1.
</event>
<event>
12    1  0.8451514E-002  0.1730094E+03  0.7818608E-02  0.1174809E+00
         21   -1    0    0  503  502  0.00000000000E+00  0.00000000000E+00  0.71374167623E+02  0.71374167623E+02  0.00000000000E+00 0. -1.
         21   -1    0    0  501  503 -0.00000000000E+00 -0.00000000000E+00 -0.47925420359E+03  0.47925420359E+03  0.00000000000E+00 0. -1.
          6    2    1    2  501    0  0.10524344575E+02 -0.12890053151E+02 -0.30188003079E+03  0.34794225620E+03  0.17220727441E+03 0.  0.
         24    2    3    3    0    0 -0.29036047545E+02 -0.51537376523E+02 -0.26012606391E+03  0.27848634228E+03  0.79936727945E+02 0.  0.
         -6    2    1    2    0  502 -0.10524344575E+02  0.12890053151E+02 -0.10600000518E+03  0.20268611501E+03  0.17195564784E+03 0.  0.
        -24    2    5    5    0    0  0.25658676336E+02 -0.52400152061E+02 -0.51238284181E+02  0.10998790583E+03  0.77896303228E+02 0.  0.
          5    1    3    3  501    0  0.39560392120E+02  0.38647323372E+02 -0.41753966880E+02  0.69455913922E+02  0.47000000000E+01 0. -1.
        -13    1    4    4    0    0  0.17845410635E+01 -0.47185065751E+01  0.52348365872E+01  0.72699659697E+01  0.00000000000E+00 0.  1.
         14    1    4    4    0    0 -0.30820588608E+02 -0.46818869948E+02 -0.26536090050E+03  0.27121637631E+03  0.00000000000E+00 0. -1.
         -5    1    5    5    0  502 -0.36183020911E+02  0.65290205211E+02 -0.54761720997E+02  0.92698209181E+02  0.47000000000E+01 0.  1.
         13    1    6    6    0    0  0.44651884606E+02 -0.56521606816E+01 -0.13537287391E+02  0.46999956055E+02  0.00000000000E+00 0. -1.
        -14    1    6    6    0    0 -0.18993208270E+02 -0.46747991379E+02 -0.37700996790E+02  0.62987949779E+02  0.00000000000E+00 0.  1.
</event>
<event>
12    1  0.8451514E-002  0.1953825E+03  0.7818608E-02  0.1154026E+00
         21   -1    0    0  501  502  0.00000000000E+00  0.00000000000E+00  0.63651952090E+02  0.63651952090E+02  0.00000000000E+00 0.  1.
         21   -1    0    0  502  503 -0.00000000000E+00 -0.00000000000E+00 -0.10795267797E+04  0.10795267797E+04  0.00000000000E+00 0.  1.
         -6    2    1    2    0  503  0.80010915482E+02 -0.46343658020E+02 -0.89193432397E+03  0.91308331574E+03  0.17211862765E+03 0.  0.
        -24    2    3    3    0    0  0.10004600875E+03  0.56998782930E+01 -0.45500578082E+03  0.47258521535E+03  0.79150696191E+02 0.  0.
          6    2    1    2  501    0 -0.80010915482E+02  0.46343658020E+02 -0.12394050361E+03  0.23009541602E+03  0.17039122865E+03 0.  0.
         24    2    5    5    0    0 -0.77830531611E+02  0.27261060570E+02 -0.12557383630E+02  0.11697075462E+03  0.81998246799E+02 0.  0.
          5    1    5    5  501    0 -0.21803838708E+01  0.19082597450E+02 -0.11138311998E+03  0.11312466140E+03  0.47000000000E+01 0. -1.
        -13    1    6    6    0    0 -0.28768284098E+02  0.50286444776E+02  0.90292376891E+01  0.58633333791E+02  0.00000000000E+00 0.  1.
         14    1    6    6    0    0 -0.49062247513E+02 -0.23025384206E+02 -0.21586621319E+02  0.58337420828E+02  0.00000000000E+00 0. -1.
         -5    1    3    3    0  503 -0.20035093268E+02 -0.52043536313E+02 -0.43692854315E+03  0.44049810039E+03  0.47000000000E+01 0.  1.
         13    1    4    4    0    0  0.10616905661E+01  0.11754068482E+02 -0.69720249679E+01  0.13707459462E+02  0.00000000000E+00 0. -1.
        -14    1    4    4    0    0  0.98984318183E+02 -0.60541901893E+01 -0.44803375585E+03  0.45887775589E+03  0.00000000000E+00 0.  1.
</event>
<event>
12    1  0.8451514E-002  0.1878661E+03  0.7818608E-02  0.1160788E+00
         21   -1    0    0  501  502  0.00000000000E+00  0.00000000000E+00  0.18626234438E+04  0.18626234438E+04  0.00000000000E+00 0. -1.
         21   -1    0    0  502  503 -0.00000000000E+00 -0.00000000000E+00 -0.20089647441E+02  0.20089647441E+02  0.00000000000E+00 0. -1.
         -6    2    1    2    0  503 -0.45220880002E+02 -0.59684814241E+02  0.11578491256E+04  0.11727224213E+04  0.17045842535E+03 0.  0.
        -24    2    3    3    0    0 -0.76136116238E+02 -0.53778820060E+02  0.10979879928E+04  0.11049280423E+04  0.81237163734E+02 0.  0.
          6    2    1    2  501    0  0.45220880002E+02  0.59684814241E+02  0.68468467077E+03  0.70999066993E+03  0.17229755647E+03 0.  0.
         24    2    5    5    0    0 -0.92257530527E+00 -0.25544550280E+02  0.41411874185E+03  0.42255150256E+03  0.80012903802E+02 0.  0.
          5    1    5    5  501    0  0.46143455307E+02  0.85229364521E+02  0.27056592893E+03  0.28743916737E+03  0.47000000000E+01 0. -1.
        -11    1    6    6    0    0  0.32961367342E+02  0.81246962955E+01  0.12568044031E+03  0.13018462084E+03  0.00000000000E+00 0.  1.
         12    1    6    6    0    0 -0.33883942647E+02 -0.33669246575E+02  0.28843830153E+03  0.29236688172E+03  0.00000000000E+00 0. -1.
         -5    1    3    3    0  503  0.30915236236E+02 -0.59059941806E+01  0.59861132806E+02  0.67794378968E+02  0.47000000000E+01 0.  1.
         11    1    4    4    0    0  0.10725179166E+02 -0.10785214562E+01  0.33887147749E+03  0.33904287477E+03  0.00000000000E+00 0. -1.
        -12    1    4    4    0    0 -0.86861295404E+02 -0.52700298604E+02  0.75911651527E+03  0.76588516755E+03  0.00000000000E+00 0.  1.
</event>
<event>
12    1  0.8451514E-002  0.3556543E+03  0.7818608E-02  0.1060492E+00
         21   -1    0    0  503  502  0.00000000000E+00  0.00000000000E+00  0.47448578048E+03  0.47448578048E+03  0.00000000000E+00 0.  1.
         21   -1    0    0  501  503 -0.00000000000E+00 -0.00000000000E+00 -0.35096954008E+03  0.35096954008E+03  0.00000000000E+00 0.  1.
          6    2    1    2  501    0 -0.77644573045E+02  0.29952269388E+03  0.26579516426E+03  0.44400116075E+03  0.17534947257E+03 0.  0.
         24    2    3    3    0    0 -0.45620466737E+02  0.30768431632E+03  0.22579872803E+03  0.39190547593E+03  0.76511247489E+02 0.  0.
         -6    2    1    2    0  502  0.77644573045E+02 -0.29952269388E+03 -0.14227892386E+03  0.38145415981E+03  0.17181810146E+03 0.  0.
        -24    2    5    5    0    0 -0.12305218973E+02 -0.89578420651E+02 -0.78269961815E+02  0.14420576641E+03  0.80581662208E+02 0.  0.
          5    1    3    3  501    0 -0.32024106307E+02 -0.81616224356E+01  0.39996436228E+02  0.52095684816E+02  0.47000000000E+01 0. -1.
        -11    1    4    4    0    0 -0.17596507377E+01  0.99578679268E+02  0.33204893017E+02  0.10498368757E+03  0.00000000000E+00 0.  1.
         12    1    4    4    0    0 -0.43860816000E+02  0.20810563705E+03  0.19259383501E+03  0.28692178836E+03  0.00000000000E+00 0. -1.
         -5    1    5    5    0  502  0.89949792018E+02 -0.20994427323E+03 -0.64008962042E+02  0.23724839340E+03  0.47000000000E+01 0.  1.
         11    1    6    6    0    0 -0.15815957009E+02  0.57802612392E+01  0.49924605322E+01  0.17563615183E+02  0.00000000000E+00 0. -1.
        -12    1    6    6    0    0  0.35107380364E+01 -0.95358681890E+02 -0.83262422347E+02  0.12664215123E+03  0.00000000000E+00 0.  1.
</event>
<event>
12    1  0.8451514E-002  0.2049358E+03  0.7818608E-02  0.1146919E+00
         21   -1    0    0  503  502  0.00000000000E+00  0.00000000000E+00  0.19318930727E+03  0.19318930727E+03  0.00000000000E+00 0.  1.
         21   -1    0    0  501  503 -0.00000000000E+00 -0.00000000000E+00 -0.21581873993E+03  0.21581873993E+03  0.00000000000E+00 0.  1.
          6    2    1    2  501    0  0.97861940617E+02  0.23574814782E+02  0.19346805015E+02  0.20584700830E+03  0.17851039367E+03 0.  0.
         24    2    3    3    0    0  0.10548221385E+03  0.86737425404E+01  0.72960534072E+02  0.14948538606E+03  0.76294887534E+02 0.  0.
         -6    2    1    2    0  502 -0.97861940617E+02 -0.23574814782E+02 -0.41976237679E+02  0.20316103890E+03  0.17140499376E+03 0.  0.
        -24    2    5    5    0    0 -0.58116332675E+02  0.49527062072E+02 -0.79439285630E+00  0.11020065975E+03  0.79455121594E+02 0.  0.
          5    1    3    3  501    0 -0.76202732369E+01  0.14901072242E+02 -0.53613729057E+02  0.56361622241E+02  0.47000000000E+01 0. -1.
        -11    1    4    4    0    0  0.10069417013E+03  0.11945716519E+02  0.29450353685E+02  0.10559043221E+03  0.00000000000E+00 0.  1.
         12    1    4    4    0    0  0.47880437242E+01 -0.32719739786E+01  0.43510180387E+02  0.43894953853E+02  0.00000000000E+00 0. -1.
         -5    1    5    5    0  502 -0.39745607942E+02 -0.73101876854E+02 -0.41181844822E+02  0.92960379158E+02  0.47000000000E+01 0.  1.
         13    1    6    6    0    0  0.75666339638E+01 -0.97539454776E+01 -0.16224062589E+02  0.20386603660E+02  0.00000000000E+00 0. -1.
        -14    1    6    6    0    0 -0.65682966639E+02  0.59281007549E+02  0.15429669732E+02  0.89814056086E+02  0.00000000000E+00 0.  1.
</event>
<event>
12    1  0.8451514E-002  0.1753046E+03  0.7818608E-02  0.1172591E+00
         21   -1    0    0  501  502  0.00000000000E+00  0.00000000000E+00  0.12620861068E+04  0.12620861068E+04  0.00000000000E+00 0. -1.
         21   -1    0    0  502  503 -0.00000000000E+00 -0.00000000000E+00 -0.72179243896E+02  0.72179243896E+02  0.00000000000E+00 0. -1.
         -6    2    1    2    0  503  0.25281776753E+02  0.16439817933E+02  0.50993910740E+02  0.18193969381E+03  0.17202394427E+03 0.  0.
        -24    2    3    3    0    0  0.35003266361E+02 -0.12894043349E+02 -0.39310398642E+02  0.86378503623E+02  0.67264057541E+02 0.  0.
          6    2    1    2  501    0 -0.25281776753E+02 -0.16439817933E+02  0.11389129522E+04  0.11523256569E+04  0.17269125934E+03 0.  0.
         24    2    5    5    0    0 -0.35968516843E+02 -0.53069138301E+02  0.10563862595E+04  0.10612835868E+04  0.79125562839E+02 0.  0.
          5    1    5    5  501    0  0.10686740090E+02  0.36629320368E+02  0.82526692708E+02  0.91042070131E+02  0.47000000000E+01 0. -1.
        -11    1    6    6    0    0 -0.53543714347E+01  0.20893656749E+02  0.19695722052E+03  0.19813470393E+03  0.00000000000E+00 0.  1.
         12    1    6    6    0    0 -0.30614145408E+02 -0.73962795050E+02  0.85942903895E+03  0.86314888284E+03  0.00000000000E+00 0. -1.
         -5    1    3    3    0  503 -0.97214896082E+01  0.29333861282E+02  0.90304309382E+02  0.95561190192E+02  0.47000000000E+01 0.  1.
         13    1    4    4    0    0  0.83363387571E+01  0.27374348304E+02 -0.14918028279E+02  0.32270684168E+02  0.00000000000E+00 0. -1.
        -14    1    4    4    0    0  0.26666927604E+02 -0.40268391653E+02 -0.24392370363E+02  0.54107819454E+02  0.00000000000E+00 0.  1.
</event>
<event>
12    1  0.8451514E-002  0.2541210E+03  0.7818608E-02  0.1110991E+00
         21   -1    0    0  503  502  0.00000000000E+00  0.00000000000E+00  0.68873030539E+03  0.68873030539E+03  0.00000000000E+00 0. -1.
         21   -1    0    0  501  503 -0.00000000000E+00 -0.00000000000E+00 -0.99220783626E+02  0.99220783626E+02  0.00000000000E+00 0.  1.
          6    2    1    2  501    0 -0.17718358828E+03  0.55852492636E+02  0.19628929707E+03  0.31976346455E+03  0.17089663611E+03 0.  0.
         24    2    3    3    0    0 -0.18046896983E+03  0.79081776072E+02  0.20391108328E+03  0.29465221278E+03  0.80107554162E+02 0.  0.
         -6    2    1    2    0  502  0.17718358828E+03 -0.55852492636E+02  0.39322022470E+03  0.46818762446E+03  0.17338968163E+03 0.  0.
        -24    2    5    5    0    0  0.18379750629E+03 -0.59560441246E+02  0.40353364640E+03  0.45455129572E+03  0.80302597604E+02 0.  0.
          5    1    3    3  501    0  0.32853815448E+01 -0.23229283436E+02 -0.76217862121E+01  0.25111251779E+02  0.47000000000E+01 0. -1.
        -11    1    4    4    0    0 -0.15186819861E+03  0.39869897009E+02  0.11962930926E+03  0.19739485827E+03  0.00000000000E+00 0.  1.
         12    1    4    4    0    0 -0.28600771210E+02  0.39211879064E+02  0.84281774021E+02  0.97257354507E+02  0.00000000000E+00 0. -1.
         -5    1    5    5    0  502 -0.66139180124E+01  0.37079486098E+01 -0.10313421702E+02  0.13636328742E+02  0.47000000000E+01 0.  1.
         13    1    6    6    0    0  0.14669001363E+03 -0.28473584573E+02  0.22909263997E+03  0.27351808497E+03  0.00000000000E+00 0. -1.
        -14    1    6    6    0    0  0.37107492663E+02 -0.31086856673E+02  0.17444100644E+03  0.18103321075E+03  0.00000000000E+00 0.  1.
</event>
<event>
12    1  0.8451514E-002  0.1758737E+03  0.7818608E-02  0.1172012E+00
         21   -1    0    0  503  502  0.00000000000E+00  0.00000000000E+00  0.45062234329E+02  0.45062234329E+02  0.00000000000E+00 0. -1.
         21   -1    0    0  501  503 -0.00000000000E+00 -0.00000000000E+00 -0.16370244943E+04  0.16370244943E+04  0.00000000000E+00 0. -1.
          6    2    1    2  501    0  0.35741892446E+01 -0.21081552403E+02 -0.14382807221E+04  0.14489937818E+04  0.17456900512E+03 0.  0.
         24    2    3    3    0    0 -0.14484162167E+02  0.23163312908E+02 -0.37933973489E+03  0.38896462348E+03  0.81538419388E+02 0.  0.
         -6    2    1    2    0  502 -0.35741892446E+01  0.21081552403E+02 -0.15368153790E+03  0.23309294682E+03  0.17394568143E+03 0.  0.
        -24    2    5    5    0    0  0.51523132807E+02  0.21145542733E+02 -0.14797531515E+03  0.17750185068E+03  0.80674939801E+02 0.  0.
          5    1    3    3  501    0  0.18058351412E+02 -0.44244865311E+02 -0.10589409872E+04  0.10600291583E+04  0.47000000000E+01 0. -1.
        -11    1    4    4    0    0 -0.16364591602E+02 -0.24852028200E+02 -0.23407093606E+03  0.23595471234E+03  0.00000000000E+00 0.  1.
         12    1    4    4    0    0  0.18804294348E+01  0.48015341108E+02 -0.14526879882E+03  0.15300991114E+03  0.00000000000E+00 0. -1.
         -5    1    5    5    0  502 -0.55097322052E+02 -0.63990329801E-01 -0.57062227561E+01  0.55591096141E+02  0.47000000000E+01 0.  1.
         11    1    6    6    0    0  0.90623803051E+01  0.27653175199E+02 -0.67293071180E+01  0.29868183903E+02  0.00000000000E+00 0. -1.
        -12    1    6    6    0    0  0.42460752502E+02 -0.65076324654E+01 -0.14124600803E+03  0.14763366678E+03  0.00000000000E+00 0.  1.
</event>
<event>
12    1  0.8451514E-002  0.1715372E+03  0.7818608E-02  0.1176533E+00
         21   -1    0    0  501  502  0.00000000000E+00  0.00000000000E+00  0.28658991005E+03  0.28658991005E+03  0.00000000000E+00 0.  1.
         21   -1    0    0  502  503 -0.00000000000E+00 -0.00000000000E+00 -0.10731260423E+03  0.10731260423E+03  0.00000000000E+00 0.  1.
         -6    2    1    2    0  503 -0.19296361092E+02 -0.86276797705E+01  0.13307726049E+03  0.21625269287E+03  0.16914160784E+03 0.  0.
        -24    2    3    3    0    0  0.28506810197E+02  0.33143083126E+02  0.30035606636E+02  0.95134518150E+02  0.78976811096E+02 0.  0.
          6    2    1    2  501    0  0.19296361092E+02  0.86276797705E+01  0.46200045339E+02  0.17764982141E+03  0.17022992818E+03 0.  0.
         24    2    5    5    0    0  0.73424614396E+02  0.66143944129E+01  0.30410505268E+01  0.10823289295E+03  0.79184511844E+02 0.  0.
          5    1    5    5  501    0 -0.54128253304E+02  0.20132853575E+01  0.43158994812E+02  0.69416928460E+02  0.47000000000E+01 0. -1.
        -13    1    6    6    0    0  0.63966496024E+02 -0.16362867763E+02 -0.25150386813E+02  0.70654072861E+02  0.00000000000E+00 0.  1.
         14    1    6    6    0    0  0.94581183718E+01  0.22977262176E+02  0.28191437339E+02  0.37578820092E+02  0.00000000000E+00 0. -1.
         -5    1    3    3    0  503 -0.47803171289E+02 -0.41770762896E+02  0.10304165385E+03  0.12111817472E+03  0.47000000000E+01 0.  1.
         13    1    4    4    0    0  0.65230214213E+01  0.48687686606E+02  0.42969919893E+02  0.65264497632E+02  0.00000000000E+00 0. -1.
        -14    1    4    4    0    0  0.21983788776E+02 -0.15544603480E+02 -0.12934313258E+02  0.29870020518E+02  0.00000000000E+00 0.  1.
</event>
<event>
12    1  0.8451514E-002  0.1764439E+03  0.7818608E-02  0.1172568E+00
         21   -1    0    0  503  502  0.00000000000E+00  0.00000000000E+00  0.59680178589E+02  0.59680178589E+02  0.00000000000E+00 0.  1.
         21   -1    0    0  501  503 -0.00000000000E+00 -0.00000000000E+00 -0.67088129542E+03  0.67088129542E+03  0.00000000000E+00 0.  1.
          6    2    1    2  501    0  0.35586350511E+02 -0.41605948683E+01 -0.48288009629E+03  0.51239013391E+03  0.16759105896E+03 0.  0.
         24    2    3    3    0    0 -0.26480659002E+02 -0.41519343086E+02 -0.32659903438E+03  0.34007109825E+03  0.80971238464E+02 0.  0.
         -6    2    1    2    0  502 -0.35586350511E+02  0.41605948683E+01 -0.12832102054E+03  0.21817134010E+03  0.17276790916E+03 0.  0.
        -24    2    5    5    0    0  0.25193878823E+02 -0.36500834904E+02 -0.10945271117E+03  0.14250304259E+03  0.79750728441E+02 0.  0.
          5    1    3    3  501    0  0.62067009513E+02  0.37358748218E+02 -0.15628106191E+03  0.17231903565E+03  0.47000000000E+01 0. -1.
        -13    1    4    4    0    0 -0.49890206537E+00 -0.60731580281E+02 -0.24217259280E+03  0.24967206181E+03  0.00000000000E+00 0.  1.
         14    1    4    4    0    0 -0.25981756936E+02  0.19212237195E+02 -0.84426441581E+02  0.90399036442E+02  0.00000000000E+00 0. -1.
         -5    1    5    5    0  502 -0.60780229334E+02  0.40661429772E+02 -0.18868309376E+02  0.75668297508E+02  0.47000000000E+01 0.  1.
         11    1    6    6    0    0  0.73735463997E+01 -0.50023002510E+02 -0.10896805127E+03  0.12012787422E+03  0.00000000000E+00 0. -1.
        -12    1    6    6    0    0  0.17820332423E+02  0.13522167606E+02 -0.48465989596E+00  0.22375168371E+02  0.00000000000E+00 0.  1.
</event>
<event>
12    1  0.8451514E-002  0.1767628E+03  0.7818608E-02  0.1171151E+00
         21   -1    0    0  503  502  0.00000000000E+00  0.00000000000E+00  0.30546598551E+03  0.30546598551E+03  0.00000000000E+00 0. -1.
         21   -1    0    0  501  503 -0.00000000000E+00 -0.00000000000E+00 -0.12183747553E+03  0.12183747553E+03  0.00000000000E+00 0. -1.
          6    2    1    2  501    0 -0.27193483874E+01  0.37518303959E+02  0.54825179993E+01  0.17684779799E+03  0.17271383170E+03 0.  0.
         24    2    3    3    0    0 -0.80819150768E+01  0.47289594776E+02  0.68995891083E+02  0.11219276101E+03  0.74331416720E+02 0.  0.
         -6    2    1    2    0  502  0.27193483874E+01 -0.37518303959E+02  0.17814599198E+03  0.25045566306E+03  0.17197972761E+03 0.  0.
        -24    2    5    5    0    0 -0.28311408136E+02 -0.32483137760E+02  0.14040719712E+02  0.83300372575E+02  0.69893634844E+02 0.  0.
          5    1    3    3  501    0  0.53625666894E+01 -0.97712908168E+01 -0.63513373084E+02  0.64655036975E+02  0.47000000000E+01 0. -1.
        -11    1    4    4    0    0 -0.90318969486E+01  0.66623928533E+02  0.43102104673E+02  0.79863098130E+02  0.00000000000E+00 0.  1.
         12    1    4    4    0    0  0.94998187185E+00 -0.19334333757E+02  0.25893786410E+02  0.32329662881E+02  0.00000000000E+00 0. -1.
         -5    1    5    5    0  502  0.31030756524E+02 -0.50351661987E+01  0.16410527227E+03  0.16715529048E+03  0.47000000000E+01 0.  1.
         13    1    6    6    0    0  0.80878805947E+01  0.17501222057E+02 -0.21041671914E+01  0.19394177104E+02  0.00000000000E+00 0. -1.
        -14    1    6    6    0    0 -0.36399288731E+02 -0.49984359817E+02  0.16144886904E+02  0.63906195471E+02  0.00000000000E+00 0.  1.
</event>
<event>
12    1  0.8451514E-002  0.2596807E+03  0.7818608E-02  0.1107837E+00
         21   -1    0    0  501  502  0.00000000000E+00  0.00000000000E+00  0.91469700309E+03  0.91469700309E+03  0.00000000000E+00 0.  1.
         21   -1    0    0  502  503 -0.00000000000E+00 -0.00000000000E+00 -0.10412400233E+03  0.10412400233E+03  0.00000000000E+00 0.  1.
         -6    2    1    2    0  503  0.14257971455E+03 -0.11726866933E+03  0.12764064621E+03  0.28935482750E+03  0.18262849127E+03 0.  0.
        -24    2    3    3    0    0  0.50676499773E+02 -0.15188232279E+02  0.11853600788E+03  0.15161739267E+03  0.78347039298E+02 0.  0.
          6    2    1    2  501    0 -0.14257971455E+03  0.11726866933E+03  0.68293235454E+03  0.72946617792E+03  0.17788588487E+03 0.  0.
         24    2    5    5    0    0 -0.31409554697E+02  0.11895957688E+03  0.39024838120E+03  0.41634054520E+03  0.76861625628E+02 0.  0.
          5    1    5    5  501    0 -0.11117015985E+03 -0.16909075476E+01  0.29268397335E+03  0.31312563271E+03  0.47000000000E+01 0. -1.
        -13    1    6    6    0    0 -0.20476475603E+02  0.10685505058E+02  0.16013350743E+03  0.16179062480E+03  0.00000000000E+00 0.  1.
         14    1    6    6    0    0 -0.10933079094E+02  0.10827407182E+03  0.23011487377E+03  0.25454992040E+03  0.00000000000E+00 0. -1.
         -5    1    3    3    0  503  0.91903214775E+02 -0.10208043705E+03  0.91046383340E+01  0.13773743483E+03  0.47000000000E+01 0.  1.
         11    1    4    4    0    0  0.24888950233E+02  0.38125574662E+01 -0.35237462114E+01  0.25424638159E+02  0.00000000000E+00 0. -1.
        -12    1    4    4    0    0  0.25787549539E+02 -0.19000789745E+02  0.12205975409E+03  0.12619275451E+03  0.00000000000E+00 0.  1.
</event>
<event>
12    1  0.8451514E-002  0.2516773E+03  0.7818608E-02  0.1112462E+00
         21   -1    0    0  503  502  0.00000000000E+00  0.00000000000E+00  0.22142622303E+03  0.22142622303E+03  0.00000000000E+00 0.  1.
         21   -1    0    0  501  503 -0.00000000000E+00 -0.00000000000E+00 -0.47798932059E+03  0.47798932059E+03  0.00000000000E+00 0. -1.
          6    2    1    2  501    0 -0.35358615279E+02 -0.17986587985E+03  0.93994267381E+02  0.26865666811E+03  0.17245149060E+03 0.  0.
         24    2    3    3    0    0 -0.70808417736E+02 -0.82265735683E+02  0.94381073861E+02  0.16471093104E+03  0.80252229947E+02 0.  0.
         -6    2    1    2    0  502  0.35358615279E+02  0.17986587985E+03 -0.35055736494E+03  0.43075887551E+03  0.17047221563E+03 0.  0.
        -24    2    5    5    0    0  0.48818204129E+02  0.87972506238E+02 -0.98535193006E+02  0.16212749648E+03  0.80335309469E+02 0.  0.
          5    1    3    3  501    0  0.35449802457E+02 -0.97600144170E+02 -0.38680648048E+00  0.10394573707E+03  0.47000000000E+01 0. -1.
        -13    1    4    4    0    0  0.12488673332E+02  0.52876408570E+01  0.52191228025E+01  0.14531529522E+02  0.00000000000E+00 0.  1.
         14    1    4    4    0    0 -0.83297091068E+02 -0.87553376540E+02  0.89161951059E+02  0.15017940152E+03  0.00000000000E+00 0. -1.
         -5    1    5    5    0  502 -0.13459588850E+02  0.91893373615E+02 -0.25202217194E+03  0.26863137902E+03  0.47000000000E+01 0.  1.
         13    1    6    6    0    0  0.64664619293E+02  0.40658954692E+02 -0.74663745099E+02  0.10681450471E+03  0.00000000000E+00 0. -1.
        -14    1    6    6    0    0 -0.15846415165E+02  0.47313551546E+02 -0.23871447907E+02  0.55312991771E+02  0.00000000000E+00 0.  1.
</event>
<event>
12    1  0.8451514E-002  0.1954032E+03  0.7818608E-02  0.1155519E+00
         21   -1    0    0  503  502  0.00000000000E+00  0.00000000000E+00  0.15411275384E+03  0.15411275384E+03  0.00000000000E+00 0.  1.
         21   -1    0    0  501  503 -0.00000000000E+00 -0.00000000000E+00 -0.36620706084E+03  0.36620706084E+03  0.00000000000E+00 0. -1.
          6    2    1    2  501    0  0.73160845915E+01 -0.75088459201E+02 -0.26182487467E+03  0.32670272730E+03  0.18025150548E+03 0.  0.
         24    2    3    3    0    0  0.43164517498E+02  0.77889197657E+01 -0.71231529008E+02  0.11574850597E+03  0.79999644167E+02 0.  0.
         -6    2    1    2    0  502 -0.73160845915E+01  0.75088459201E+02  0.49730567670E+02  0.19361708738E+03  0.17123856273E+03 0.  0.
        -24    2    5    5    0    0  0.10055362702E+02  0.19231371573E+02  0.90262529886E+02  0.12229590273E+03  0.79611604378E+02 0.  0.
          5    1    3    3  501    0 -0.35848432906E+02 -0.82877378967E+02 -0.19059334566E+03  0.21095422133E+03  0.47000000000E+01 0. -1.
        -13    1    4    4    0    0 -0.20379930437E+02  0.16483904692E+02 -0.28274183040E+02  0.38555026976E+02  0.00000000000E+00 0.  1.
         14    1    4    4    0    0  0.63544447935E+02 -0.86949849267E+01 -0.42957345967E+02  0.77193478991E+02  0.00000000000E+00 0. -1.
         -5    1    5    5    0  502 -0.17371447293E+02  0.55857087628E+02 -0.40531962216E+02  0.71321184654E+02  0.47000000000E+01 0.  1.
         11    1    6    6    0    0  0.27185961240E+02  0.10955157925E+02 -0.74630505348E+00  0.29319770548E+02  0.00000000000E+00 0. -1.
        -12    1    6    6    0    0 -0.17130598539E+02  0.82762136482E+01  0.91008834940E+02  0.92976132183E+02  0.00000000000E+00 0.  1.
</event>
<event>
12    1  0.8451514E-002  0.2444796E+03  0.7818608E-02  0.1116973E+00
         21   -1    0    0  503  502  0.00000000000E+00  0.00000000000E+00  0.88097642653E+03  0.88097642653E+03  0.00000000000E+00 0. -1.
         21   -1    0    0  501  503 -0.00000000000E+00 -0.00000000000E+00 -0.72733751188E+02  0.72733751188E+02  0.00000000000E+00 0. -1.
          6    2    1    2  501    0 -0.69661287490E+02 -0.15993199005E+03  0.53110328032E+03  0.58467166212E+03  0.17128724909E+03 0.  0.
         24    2    3    3    0    0 -0.89606597839E+02 -0.11456087971E+03  0.25598425439E+03  0.30508460683E+03  0.79969627296E+02 0.  0.
         -6    2    1    2    0  502  0.69661287490E+02  0.15993199005E+03  0.27713939503E+03  0.36903851560E+03  0.17015359328E+03 0.  0.
        -24    2    5    5    0    0  0.18450515071E+02  0.16106732834E+03  0.16095447213E+03  0.24197609586E+03  0.79768308879E+02 0.  0.
          5    1    3    3  501    0  0.19945310349E+02 -0.45371110344E+02  0.27511902593E+03  0.27958705529E+03  0.47000000000E+01 0. -1.
        -11    1    4    4    0    0 -0.75779843884E+02 -0.55642491648E+02  0.97523163728E+02  0.13546010143E+03  0.00000000000E+00 0.  1.
         12    1    4    4    0    0 -0.13826753955E+02 -0.58918388061E+02  0.15846109066E+03  0.16962450540E+03  0.00000000000E+00 0. -1.
         -5    1    5    5    0  502  0.51210772419E+02 -0.11353382846E+01  0.11618492289E+03  0.12706241975E+03  0.47000000000E+01 0.  1.
         11    1    6    6    0    0 -0.61162235711E+01 -0.43741855056E+00 -0.58680133236E+01  0.84872319472E+01  0.00000000000E+00 0. -1.
        -12    1    6    6    0    0  0.24566738642E+02  0.16150474689E+03  0.16682248546E+03  0.23348886391E+03  0.00000000000E+00 0.  1.
</event>
<event>
12    1  0.8451514E-002  0.3885932E+03  0.7818608E-02  0.1047810E+00
         21   -1    0    0  501  502  0.00000000000E+00  0.00000000000E+00  0.23614519785E+03  0.23614519785E+03  0.00000000000E+00 0. -1.
         21   -1    0    0  502  503 -0.00000000000E+00 -0.00000000000E+00 -0.82676089648E+03  0.82676089648E+03  0.00000000000E+00 0.  1.
         -6    2    1    2    0  503  0.30090841273E+03  0.17617982620E+03 -0.42228534487E+02  0.39079514788E+03  0.17132540521E+03 0.  0.
        -24    2    3    3    0    0  0.12336524168E+03  0.12739887778E+03 -0.64037281772E+02  0.20532582434E+03  0.81292458269E+02 0.  0.
          6    2    1    2  501    0 -0.30090841273E+03 -0.17617982620E+03 -0.54838716415E+03  0.67211094645E+03  0.17152095653E+03 0.  0.
         24    2    5    5    0    0 -0.92932865028E+02 -0.38476015713E+02 -0.26379455707E+03  0.29365195281E+03  0.80789726221E+02 0.  0.
          5    1    5    5  501    0 -0.20797554770E+03 -0.13770381049E+03 -0.28459260708E+03  0.37845899364E+03  0.47000000000E+01 0. -1.
        -11    1    6    6    0    0 -0.40519917666E+02 -0.48909703729E+02 -0.20301828862E+03  0.21272152773E+03  0.00000000000E+00 0.  1.
         12    1    6    6    0    0 -0.52412947361E+02  0.10433688017E+02 -0.60776268447E+02  0.80930425077E+02  0.00000000000E+00 0. -1.
         -5    1    3    3    0  503  0.17754317105E+03  0.48780948425E+02  0.21808747285E+02  0.18546932354E+03  0.47000000000E+01 0.  1.
         11    1    4    4    0    0  0.91247364620E+02  0.40498499736E+02 -0.16463601285E+02  0.10117934670E+03  0.00000000000E+00 0. -1.
        -12    1    4    4    0    0  0.32117877059E+02  0.86900378040E+02 -0.47573680487E+02  0.10414647764E+03  0.00000000000E+00 0.  1.
</event>
<event>
12    1  0.8451514E-002  0.2895246E+03  0.7818608E-02  0.1091502E+00
         21   -1    0    0  501  502  0.00000000000E+00  0.00000000000E+00  0.17788324541E+04  0.17788324541E+04  0.00000000000E+00 0. -1.
         21   -1    0    0  502  503 -0.00000000000E+00 -0.00000000000E+00 -0.60419973996E+02  0.60419973996E+02  0.00000000000E+00 0.  1.
         -6    2    1    2    0  503  0.23307416429E+03 -0.45644548216E+02  0.40243852561E+03  0.49180596974E+03  0.15332760397E+03 0.  0.
        -24    2    3    3    0    0  0.16709017625E+03 -0.60721748194E+02  0.36552226756E+03  0.41456537974E+03  0.81557760458E+02 0.  0.
          6    2    1    2  501    0 -0.23307416429E+03  0.45644548216E+02  0.13159739545E+04  0.13474464584E+04  0.16558236135E+03 0.  0.
         24    2    5    5    0    0 -0.71410401769E+02 -0.28200306369E+02  0.42803863303E+03  0.44188615679E+03  0.78432145452E+02 0.  0.
          5    1    5    5  501    0 -0.16166376252E+03  0.73844854584E+02  0.88793532150E+03  0.90556030160E+03  0.47000000000E+01 0. -1.
        -11    1    6    6    0    0 -0.88573187041E+02 -0.26439732021E+02  0.35488341150E+03  0.36672401700E+03  0.00000000000E+00 0.  1.
         12    1    6    6    0    0  0.17162785272E+02 -0.17605743472E+01  0.73155221528E+02  0.75162139786E+02  0.00000000000E+00 0. -1.
         -5    1    3    3    0  503  0.65983988033E+02  0.15077199978E+02  0.36916258054E+02  0.77240590007E+02  0.47000000000E+01 0.  1.
         11    1    4    4    0    0  0.16915007113E+03 -0.67598809878E+02  0.31777727287E+03  0.36628368898E+03  0.00000000000E+00 0. -1.
        -12    1    4    4    0    0 -0.20598948802E+01  0.68770616839E+01  0.47744994691E+02  0.48281690757E+02  0.00000000000E+00 0.  1.
</event>
<event>
12    1  0.8451514E-002  0.1774087E+03  0.7818608E-02  0.1170362E+00
         21   -1    0    0  503  502  0.00000000000E+00  0.00000000000E+00  0.22562194320E+02  0.22562194320E+02  0.00000000000E+00 0. -1.
         21   -1    0    0  501  503 -0.00000000000E+00 -0.00000000000E+00 -0.14695376307E+04  0.14695376307E+04  0.00000000000E+00 0. -1.
          6    2    1    2  501    0 -0.41027424150E+02 -0.79312522006E+01 -0.89271074562E+03  0.91016829834E+03  0.17241723133E+03 0.  0.
         24    2    3    3    0    0 -0.75223669361E+02 -0.51541796864E+02 -0.59116925456E+03  0.60354047242E+03  0.80404334854E+02 0.  0.
         -6    2    1    2    0  502  0.41027424150E+02  0.79312522006E+01 -0.55426469074E+03  0.58193152667E+03  0.17230438192E+03 0.  0.
        -24    2    5    5    0    0  0.19359831247E+02 -0.52728316396E+02 -0.33507158862E+03  0.35342162784E+03  0.97359124413E+02 0.  0.
          5    1    3    3  501    0  0.34196245211E+02  0.43610544663E+02 -0.30154149107E+03  0.30662782592E+03  0.47000000000E+01 0. -1.
        -11    1    4    4    0    0 -0.45092578163E+02  0.15429681249E+02 -0.20707712266E+03  0.21249082427E+03  0.00000000000E+00 0.  1.
         12    1    4    4    0    0 -0.30131091199E+02 -0.66971478113E+02 -0.38409213189E+03  0.39104964815E+03  0.00000000000E+00 0. -1.
         -5    1    5    5    0  502  0.21667592903E+02  0.60659568596E+02 -0.21919310212E+03  0.22850989883E+03  0.47000000000E+01 0.  1.
         13    1    6    6    0    0 -0.87892322502E+01  0.86057987094E+01 -0.71394548070E+00  0.12321529658E+02  0.00000000000E+00 0. -1.
        -14    1    6    6    0    0  0.28149063497E+02 -0.61334115105E+02 -0.33435764314E+03  0.34110009818E+03  0.00000000000E+00 0.  1.
</event>
<event>
12    1  0.8451514E-002  0.1886489E+03  0.7818608E-02  0.1161077E+00
         21   -1    0    0  501  502  0.00000000000E+00  0.00000000000E+00  0.99040149829E+02  0.99040149829E+02  0.00000000000E+00 0.  1.
         21   -1    0    0  502  503 -0.00000000000E+00 -0.00000000000E+00 -0.34836508318E+03  0.34836508318E+03  0.00000000000E+00 0.  1.
         -6    2    1    2    0  503  0.26294291063E+02  0.53995757106E+02 -0.11520811342E+03  0.21594092513E+03  0.17248374481E+03 0.  0.
        -24    2    3    3    0    0  0.67969915682E+02 -0.17729629816E+02 -0.56256575033E+02  0.11406471253E+03  0.70083572961E+02 0.  0.
          6    2    1    2  501    0 -0.26294291063E+02 -0.53995757106E+02 -0.13411681994E+03  0.23146430788E+03  0.17883364590E+03 0.  0.
         24    2    5    5    0    0  0.12777013199E+01  0.33415934225E+01 -0.14607865436E+03  0.16655697384E+03  0.79934057257E+02 0.  0.
          5    1    5    5  501    0 -0.27571992383E+02 -0.57337350528E+02  0.11961834417E+02  0.64907334040E+02  0.47000000000E+01 0. -1.
        -11    1    6    6    0    0  0.37750794750E+02 -0.71216794692E+01 -0.98326614017E+02  0.10556497453E+03  0.00000000000E+00 0.  1.
         12    1    6    6    0    0 -0.36473093430E+02  0.10463272892E+02 -0.47752040340E+02  0.60991999316E+02  0.00000000000E+00 0. -1.
         -5    1    3    3    0  503 -0.41675624619E+02  0.71725386921E+02 -0.58951538383E+02  0.10187621260E+03  0.47000000000E+01 0.  1.
         11    1    4    4    0    0  0.75173798858E+02 -0.20038318497E+02 -0.24717066272E+02  0.81630678105E+02  0.00000000000E+00 0. -1.
        -12    1    4    4    0    0 -0.72038831751E+01  0.23086886812E+01 -0.31539508760E+02  0.32434034425E+02  0.00000000000E+00 0.  1.
</event>
<event>
12    1  0.8451514E-002  0.1754158E+03  0.7818608E-02  0.1172378E+00
         21   -1    0    0  503  502  0.00000000000E+00  0.00000000000E+00  0.33221099808E+03  0.33221099808E+03  0.00000000000E+00 0. -1.
         21   -1    0    0  501  503 -0.00000000000E+00 -0.00000000000E+00 -0.14735064402E+03  0.14735064402E+03  0.00000000000E+00 0. -1.
          6    2    1    2  501    0 -0.18888160863E+02  0.34319880550E+02 -0.53918152427E+02  0.18327483101E+03  0.17072750130E+03 0.  0.
         24    2    3    3    0    0  0.45519526115E+02 -0.16097412052E+02 -0.31125228295E+02  0.98234482203E+02  0.79687387489E+02 0.  0.
         -6    2    1    2    0  502  0.18888160863E+02 -0.34319880550E+02  0.23877850648E+03  0.29628681108E+03  0.17098562057E+03 0.  0.
        -24    2    5    5    0    0 -0.42937802877E+02 -0.31310641377E+02  0.20240585802E+03  0.22433846246E+03  0.80843077635E+02 0.  0.
          5    1    3    3  501    0 -0.64407686978E+02  0.50417292602E+02 -0.22792924131E+02  0.85040348809E+02  0.47000000000E+01 0. -1.
        -13    1    4    4    0    0  0.35549637224E+02  0.11847494737E+02  0.17433459578E+02  0.41328747273E+02  0.00000000000E+00 0.  1.
         14    1    4    4    0    0  0.99698888913E+01 -0.27944906789E+02 -0.48558687874E+02  0.56905734931E+02  0.00000000000E+00 0. -1.
         -5    1    5    5    0  502  0.61825963740E+02 -0.30092391728E+01  0.36372648465E+02  0.71948348620E+02  0.47000000000E+01 0.  1.
         11    1    6    6    0    0  0.81774378881E+01 -0.35746795883E+02  0.13340161641E+03  0.13834990122E+03  0.00000000000E+00 0. -1.
        -12    1    6    6    0    0 -0.51115240765E+02  0.44361545060E+01  0.69004241608E+02  0.85988561246E+02  0.00000000000E+00 0.  1.
</event>
<event>
12    1  0.8451514E-002  0.1933995E+03  0.7818608E-02  0.1156299E+00
         21   -1    0    0  501  502  0.00000000000E+00  0.00000000000E+00  0.63989535414E+03  0.63989535414E+03  0.00000000000E+00 0. -1.
         21   -1    0    0  502  503 -0.00000000000E+00 -0.00000000000E+00 -0.14717513808E+03  0.14717513808E+03  0.00000000000E+00 0.  1.
         -6    2    1    2    0  503 -0.76091496017E+02 -0.31623461017E+02 -0.62173429564E+02  0.19943938374E+03  0.17064751211E+03 0.  0.
        -24    2    3    3    0    0 -0.41933968146E+02 -0.50072477693E+02  0.25498339421E+02  0.10344182125E+03  0.76054811576E+02 0.  0.
          6    2    1    2  501    0  0.76091496017E+02  0.31623461017E+02  0.55489364562E+03  0.58763110848E+03  0.17496686158E+03 0.  0.
         24    2    5    5    0    0  0.54049552419E+02 -0.34219731102E+02  0.19124931895E+03  0.21738732454E+03  0.81170208566E+02 0.  0.
          5    1    5    5  501    0  0.22041943598E+02  0.65843192119E+02  0.36364432667E+03  0.37024378394E+03  0.47000000000E+01 0. -1.
        -13    1    6    6    0    0  0.33237090127E+01  0.20883337217E+02  0.15121801701E+02  0.25996724824E+02  0.00000000000E+00 0.  1.
         14    1    6    6    0    0  0.50725843406E+02 -0.55103068318E+02  0.17612751725E+03  0.19139059971E+03  0.00000000000E+00 0. -1.
         -5    1    3    3    0  503 -0.34157527871E+02  0.18449016676E+02 -0.87671768985E+02  0.95997562487E+02  0.47000000000E+01 0.  1.
         13    1    4    4    0    0 -0.22618982305E+02  0.16859288416E+02 -0.25895999528E+01  0.28329489836E+02  0.00000000000E+00 0. -1.
        -14    1    4    4    0    0 -0.19314985841E+02 -0.66931766109E+02  0.28087939374E+02  0.75112331416E+02  0.00000000000E+00 0.  1.
</event>
<event>
12    1  0.8451514E-002  0.2061937E+03  0.7818608E-02  0.1144712E+00
         21   -1    0    0  503  502  0.00000000000E+00  0.00000000000E+00  0.34269956585E+03  0.34269956585E+03  0.00000000000E+00 0. -1.
         21   -1    0    0  501  503 -0.00000000000E+00 -0.00000000000E+00 -0.13550666779E+03  0.13550666779E+03  0.00000000000E+00 0.  1.
          6    2    1    2  501    0 -0.82633855202E+02 -0.77747576600E+02  0.33138378502E+02  0.20837141571E+03  0.17160260797E+03 0.  0.
         24    2    3    3    0    0 -0.87192491419E+01 -0.24063400523E+02 -0.39781312244E+02  0.91389660510E+02  0.78194914757E+02 0.  0.
         -6    2    1    2    0  502  0.82633855202E+02  0.77747576600E+02  0.17405451956E+03  0.26983481794E+03  0.17217088459E+03 0.  0.
        -24    2    5    5    0    0  0.95295772089E+01  0.10137052408E+03  0.10907290414E+03  0.16910260139E+03  0.79573836062E+02 0.  0.
          5    1    3    3  501    0 -0.73914606060E+02 -0.53684176077E+02  0.72919690746E+02  0.11698175520E+03  0.47000000000E+01 0. -1.
        -11    1    4    4    0    0 -0.24690742851E+02  0.13135743121E+02  0.76852991895E+01  0.29004212686E+02  0.00000000000E+00 0.  1.
         12    1    4    4    0    0  0.15971493710E+02 -0.37199143645E+02 -0.47466611433E+02  0.62385447824E+02  0.00000000000E+00 0. -1.
         -5    1    5    5    0  502  0.73104277993E+02 -0.23622947475E+02  0.64981615411E+02  0.10073221654E+03  0.47000000000E+01 0.  1.
         13    1    6    6    0    0 -0.11910602672E+02  0.66847285282E+02  0.19347197081E+02  0.70602663126E+02  0.00000000000E+00 0. -1.
        -14    1    6    6    0    0  0.21440179881E+02  0.34523238794E+02  0.89725707064E+02  0.98499938265E+02  0.00000000000E+00 0.  1.
</event>
<event>
12    1  0.8451514E-002  0.1891276E+03  0.7818608E-02  0.1159864E+00
         21   -1    0    0  503  502  0.00000000000E+00  0.00000000000E+00  0.14258789779E+04  0.14258789779E+04  0.00000000000E+00 0. -1.
         21   -1    0    0  501  503 -0.00000000000E+00 -0.00000000000E+00 -0.24851117802E+02  0.24851117802E+02  0.00000000000E+00 0.  1.
          6    2    1    2  501    0  0.69314648952E+02 -0.81586593496E+01  0.64513506738E+03  0.67153616877E+03  0.17288865351E+03 0.  0.
         24    2    3    3    0    0 -0.41488859484E+01 -0.26235879730E+02  0.16453888350E+03  0.18499895660E+03  0.80287203965E+02 0.  0.
         -6    2    1    2    0  502 -0.69314648952E+02  0.81586593496E+01  0.75589279274E+03  0.77919392696E+03  0.17577877408E+03 0.  0.
        -24    2    5    5    0    0 -0.40491540372E+02  0.19359079559E+02  0.73509566627E+03  0.74163289036E+03  0.87403470692E+02 0.  0.
          5    1    3    3  501    0  0.73463534900E+02  0.18077220381E+02  0.48059618389E+03  0.48653721217E+03  0.47000000000E+01 0. -1.
        -13    1    4    4    0    0 -0.39762981037E+02 -0.26827590364E+02  0.80243626461E+02  0.93487185503E+02  0.00000000000E+00 0.  1.
         14    1    4    4    0    0  0.35614095088E+02  0.59171063345E+00  0.84295257038E+02  0.91511771098E+02  0.00000000000E+00 0. -1.
         -5    1    5    5    0  502 -0.28823108580E+02 -0.11200420209E+02  0.20797126462E+02  0.37561036596E+02  0.47000000000E+01 0.  1.
         11    1    6    6    0    0  0.83701744901E+01  0.42539493607E+02  0.28032890735E+03  0.28366170808E+03  0.00000000000E+00 0. -1.
        -12    1    6    6    0    0 -0.48861714862E+02 -0.23180414048E+02  0.45476675893E+03  0.45797118228E+03  0.00000000000E+00 0.  1.
</event>
<event>
12    1  0.8451514E-002  0.2069331E+03  0.7818608E-02  0.1144093E+00
         21   -1    0    0  503  502  0.00000000000E+00  0.00000000000E+00  0.21233128838E+03  0.21233128838E+03  0.00000000000E+00 0. -1.
         21   -1    0    0  501  503 -0.00000000000E+00 -0.00000000000E+00 -0.45968664335E+03  0.45968664335E+03  0.00000000000E+00 0.  1.
          6    2    1    2  501    0 -0.63609113638E+02  0.99023771523E+02 -0.37563700105E+03  0.42886414354E+03  0.17020420206E+03 0.  0.
         24    2    3    3    0    0 -0.84698774295E+02  0.11395015385E+03 -0.23402730556E+03  0.28483995623E+03  0.78781349235E+02 0.  0.
         -6    2    1    2    0  502  0.63609113638E+02 -0.99023771523E+02  0.12828164608E+03  0.24315378818E+03  0.16975204659E+03 0.  0.
        -24    2    5    5    0    0  0.17505831231E+02 -0.12798274366E+03  0.87538342968E+02  0.17499044419E+03  0.79200108994E+02 0.  0.
          5    1    3    3  501    0  0.21089660657E+02 -0.14926382326E+02 -0.14160969549E+03  0.14402418732E+03  0.47000000000E+01 0. -1.
        -11    1    4    4    0    0 -0.39510173008E+02  0.54212569905E+02 -0.18109613748E+03  0.19312138027E+03  0.00000000000E+00 0.  1.
         12    1    4    4    0    0 -0.45188601287E+02  0.59737583945E+02 -0.52931168081E+02  0.91718575960E+02  0.00000000000E+00 0. -1.
         -5    1    5    5    0  502  0.46103282407E+02  0.28958972140E+02  0.40743303111E+02  0.68163343995E+02  0.47000000000E+01 0.  1.
         13    1    6    6    0    0  0.26918527919E+02 -0.30402182472E+02  0.61259751323E+02  0.73495965716E+02  0.00000000000E+00 0. -1.
        -14    1    6    6    0    0 -0.94126966880E+01 -0.97580561191E+02  0.26278591645E+02  0.10149447847E+03  0.00000000000E+00 0.  1.
</event>
<event>
12    1  0.8451514E-002  0.2144347E+03  0.7818608E-02  0.1138424E+00
         21   -1    0    0  501  502  0.00000000000E+00  0.00000000000E+00  0.57688998953E+02  0.57688998953E+02  0.00000000000E+00 0.  1.
         21   -1    0    0  502  503 -0.00000000000E+00 -0.00000000000E+00 -0.79217196430E+03  0.79217196430E+03  0.00000000000E+00 0.  1.
         -6    2    1    2    0  503 -0.11146309680E+03 -0.55313966984E+02 -0.35158356408E+03  0.41181701220E+03  0.17463846115E+03 0.  0.
        -24    2    3    3    0    0 -0.28650153956E+02 -0.37210155672E+02 -0.29765318508E+03  0.31123715704E+03  0.77882747280E+02 0.  0.
          6    2    1    2  501    0  0.11146309680E+03  0.55313966984E+02 -0.38289940126E+03  0.43804395105E+03  0.17258880228E+03 0.  0.
         24    2    5    5    0    0  0.36310727695E+02  0.23530595618E+02 -0.32444856891E+03  0.33756185772E+03  0.82516519826E+02 0.  0.
          5    1    5    5  501    0  0.75152369103E+02  0.31783371366E+02 -0.58450832352E+02  0.10048209333E+03  0.47000000000E+01 0. -1.
        -11    1    6    6    0    0  0.36107650931E+02  0.37873805562E+02 -0.31720485184E+03  0.32149199933E+03  0.00000000000E+00 0.  1.
         12    1    6    6    0    0  0.20307676370E+00 -0.14343209944E+02 -0.72437170713E+01  0.16069858390E+02  0.00000000000E+00 0. -1.
         -5    1    3    3    0  503 -0.82812942842E+02 -0.18103811312E+02 -0.53930379003E+02  0.10057985517E+03  0.47000000000E+01 0.  1.
         13    1    4    4    0    0 -0.14562523557E+02  0.24031762319E+02 -0.93459278632E+02  0.97592158778E+02  0.00000000000E+00 0. -1.
        -14    1    4    4    0    0 -0.14087630399E+02 -0.61241917991E+02 -0.20419390645E+03  0.21364499826E+03  0.00000000000E+00 0.  1.
</event>
<event>
12    1  0.8451514E-002  0.1806929E+03  0.7818608E-02  0.1167207E+00
         21   -1    0    0  503  502  0.00000000000E+00  0.00000000000E+00  0.71787549826E+02  0.71787549826E+02  0.00000000000E+00 0.  1.
         21   -1    0    0  501  503 -0.00000000000E+00 -0.00000000000E+00 -0.47506794500E+03  0.47506794500E+03  0.00000000000E+00 0.  1.
          6    2    1    2  501    0 -0.33879573889E+02 -0.37330052088E+02 -0.25898327373E+03  0.31561628714E+03  0.17320492579E+03 0.  0.
         24    2    3    3    0    0 -0.70752085001E+02 -0.33079466948E+02 -0.25411128455E+03  0.27788730851E+03  0.80924054715E+02 0.  0.
         -6    2    1    2    0  502  0.33879573889E+02  0.37330052088E+02 -0.14429712144E+03  0.23123920769E+03  0.17351816504E+03 0.  0.
        -24    2    5    5    0    0 -0.30299411712E+02  0.12011457083E+02 -0.33624399591E+02  0.10073819310E+03  0.89192229764E+02 0.  0.
          5    1    3    3  501    0  0.36872511112E+02 -0.42505851395E+01 -0.48719891839E+01  0.37728978628E+02  0.47000000000E+01 0. -1.
        -11    1    4    4    0    0 -0.35583867177E+02 -0.42336732290E+02 -0.22383961759E+03  0.23057056383E+03  0.00000000000E+00 0.  1.
         12    1    4    4    0    0 -0.35168217824E+02  0.92572653423E+01 -0.30271666964E+02  0.47316744682E+02  0.00000000000E+00 0. -1.
         -5    1    5    5    0  502  0.64178985601E+02  0.25318595005E+02 -0.11067272185E+03  0.13050101458E+03  0.47000000000E+01 0.  1.
         11    1    6    6    0    0 -0.15541242925E+02  0.17548078911E+02  0.28352863946E+02  0.36787908327E+02  0.00000000000E+00 0. -1.
        -12    1    6    6    0    0 -0.14758168787E+02 -0.55366218286E+01 -0.61977263537E+02  0.63950284775E+02  0.00000000000E+00 0.  1.
</event>
<event>
12    1  0.8451514E-002  0.1729367E+03  0.7818608E-02  0.1174854E+00
         21   -1    0    0  501  502  0.00000000000E+00  0.00000000000E+00  0.10419487524E+04  0.10419487524E+04  0.00000000000E+00 0. -1.
         21   -1    0    0  502  503 -0.00000000000E+00 -0.00000000000E+00 -0.31199635689E+03  0.31199635689E+03  0.00000000000E+00 0. -1.
         -6    2    1    2    0  503 -0.75066987122E+01  0.20804299522E+02 -0.28014410637E+03  0.32915144286E+03  0.17137906114E+03 0.  0.
        -24    2    3    3    0    0 -0.54255525820E+02  0.47902299916E+02 -0.12790425721E+03  0.16753827466E+03  0.80444279135E+02 0.  0.
          6    2    1    2  501    0  0.75066987122E+01 -0.20804299522E+02  0.10100965019E+04  0.10247936664E+04  0.17151660623E+03 0.  0.
         24    2    5    5    0    0  0.31858175923E+02 -0.46353839012E+02  0.33764812874E+03  0.35140323142E+03  0.79462887210E+02 0.  0.
          5    1    5    5  501    0 -0.24351477211E+02  0.25549539490E+02  0.67244837313E+03  0.67339043499E+03  0.47000000000E+01 0. -1.
        -13    1    6    6    0    0  0.13287808478E+02  0.21278275767E+02  0.59989240146E+02  0.65023378927E+02  0.00000000000E+00 0.  1.
         14    1    6    6    0    0  0.18570367446E+02 -0.67632114779E+02  0.27765888859E+03  0.28637985249E+03  0.00000000000E+00 0. -1.
         -5    1    3    3    0  503  0.46748827108E+02 -0.27098000394E+02 -0.15223984917E+03  0.16161316820E+03  0.47000000000E+01 0.  1.
         11    1    4    4    0    0 -0.45964613125E+02 -0.11407074601E+02 -0.45522789132E+02  0.65690116007E+02  0.00000000000E+00 0. -1.
        -12    1    4    4    0    0 -0.82909126949E+01  0.59309374518E+02 -0.82381468076E+02  0.10184815865E+03  0.00000000000E+00 0.  1.
</event>
<event>
12    1  0.8451514E-002  0.2509928E+03  0.7818608E-02  0.1112827E+00
         21   -1    0    0  503  502  0.00000000000E+00  0.00000000000E+00  0.57059187230E+03  0.57059187230E+03  0.00000000000E+00 0.  1.
         21   -1    0    0  501  503 -0.00000000000E+00 -0.00000000000E+00 -0.12811343545E+03  0.12811343545E+03  0.00000000000E+00 0.  1.
          6    2    1    2  501    0  0.62833249842E+02  0.17206010210E+03  0.89499265938E+02  0.26558677105E+03  0.17021609305E+03 0.  0.
         24    2    3    3    0    0  0.58210869091E+02  0.15481442244E+03  0.96792241257E+01  0.18365930957E+03  0.79253037379E+02 0.  0.
         -6    2    1    2    0  502 -0.62833249842E+02 -0.17206010210E+03  0.35297917091E+03  0.43311853670E+03  0.17159450957E+03 0.  0.
        -24    2    5    5    0    0 -0.18422278361E+02 -0.13314618923E+02  0.14972676329E+03  0.17138184836E+03  0.80230760219E+02 0.  0.
          5    1    3    3  501    0  0.46223807519E+01  0.17245679661E+02  0.79820041812E+02  0.81927461487E+02  0.47000000000E+01 0. -1.
        -13    1    4    4    0    0  0.14409571023E+01  0.10483353518E+03 -0.10525535823E+02  0.10537045772E+03  0.00000000000E+00 0.  1.
         14    1    4    4    0    0  0.56769911988E+02  0.49980887263E+02  0.20204759949E+02  0.78288851846E+02  0.00000000000E+00 0. -1.
         -5    1    5    5    0  502 -0.44410971482E+02 -0.15874548318E+03  0.20325240761E+03  0.26173668833E+03  0.47000000000E+01 0.  1.
         11    1    6    6    0    0 -0.37889122500E+02  0.19165889245E+01  0.13961249514E+03  0.14467518003E+03  0.00000000000E+00 0. -1.
        -12    1    6    6    0    0  0.19466844140E+02 -0.15231207848E+02  0.10114268151E+02  0.26706668334E+02  0.00000000000E+00 0.  1.
</event>
<event>
12    1  0.8451514E-002  0.1794855E+03  0.7818608E-02  0.1168313E+00
         21   -1    0    0  501  502  0.00000000000E+00  0.00000000000E+00  0.41947125435E+02  0.41947125435E+02  0.00000000000E+00 0.  1.
         21   -1    0    0  502  503 -0.00000000000E+00 -0.00000000000E+00 -0.91183776715E+03  0.91183776715E+03  0.00000000000E+00 0.  1.
         -6    2    1    2    0  503  0.46862140703E+02 -0.19546620913E+02 -0.62453121012E+03  0.64981095066E+03  0.17215373525E+03 0.  0.
        -24    2    3    3    0    0  0.19832519163E+02 -0.78686509830E+02 -0.40233740041E+03  0.41825036253E+03  0.80455492912E+02 0.  0.
          6    2    1    2  501    0 -0.46862140703E+02  0.19546620913E+02 -0.24535943159E+03  0.30397394193E+03  0.17210687400E+03 0.  0.
         24    2    5    5    0    0 -0.63565455796E+02  0.20317057890E+01 -0.63775443548E+02  0.12072381859E+03  0.80388047479E+02 0.  0.
          5    1    5    5  501    0  0.16703315092E+02  0.17514915125E+02 -0.18158398805E+03  0.18325012333E+03  0.47000000000E+01 0. -1.
        -13    1    6    6    0    0 -0.70906994296E+02 -0.23593030093E+02 -0.38825195257E+02  0.84212996003E+02  0.00000000000E+00 0.  1.
         14    1    6    6    0    0  0.73415385003E+01  0.25624735882E+02 -0.24950248291E+02  0.36510822592E+02  0.00000000000E+00 0. -1.
         -5    1    3    3    0  503  0.27029621541E+02  0.59139888916E+02 -0.22219380972E+03  0.23156058814E+03  0.47000000000E+01 0.  1.
         11    1    4    4    0    0  0.26109766746E+02 -0.80712934585E+02 -0.21992436207E+03  0.23571810020E+03  0.00000000000E+00 0. -1.
        -12    1    4    4    0    0 -0.62772475836E+01  0.20264247559E+01 -0.18241303834E+03  0.18253226233E+03  0.00000000000E+00 0.  1.
</event>
<event>
12    1  0.8451514E-002  0.2783863E+03  0.7818608E-02  0.1096695E+00
         21   -1    0    0  501  502  0.00000000000E+00  0.00000000000E+00  0.43566597918E+03  0.43566597918E+03  0.00000000000E+00 0. -1.
         21   -1    0    0  502  503 -0.00000000000E+00 -0.00000000000E+00 -0.37392004490E+03  0.37392004490E+03  0.00000000000E+00 0.  1.
         -6    2    1    2    0  503  0.12929820274E+03  0.17678579823E+03 -0.26261918266E+03  0.38271104118E+03  0.17183614943E+03 0.  0.
        -24    2    3    3    0    0  0.92610916381E+02  0.19972641546E+03 -0.22567714480E+03  0.32562309972E+03  0.81442043933E+02 0.  0.
          6    2    1    2  501    0 -0.12929820274E+03 -0.17678579823E+03  0.32436511694E+03  0.42687498290E+03  0.17040621541E+03 0.  0.
         24    2    5    5    0    0 -0.40009542072E+02 -0.16403115330E+03  0.22698437775E+03  0.29405840165E+03  0.80258663860E+02 0.  0.
          5    1    5    5  501    0 -0.89288660668E+02 -0.12754644925E+02  0.97380739190E+02  0.13281658126E+03  0.47000000000E+01 0. -1.
        -11    1    6    6    0    0 -0.34877795931E+02 -0.16514914380E+02  0.36891867910E+02  0.53387385812E+02  0.00000000000E+00 0.  1.
         12    1    6    6    0    0 -0.51317461411E+01 -0.14751623892E+03  0.19009250984E+03  0.24067101583E+03  0.00000000000E+00 0. -1.
         -5    1    3    3    0  503  0.36687286360E+02 -0.22940617227E+02 -0.36942037864E+02  0.57087941465E+02  0.47000000000E+01 0.  1.
         11    1    4    4    0    0  0.29544583184E+02  0.14659232211E+03 -0.16842769946E+03  0.22523339282E+03  0.00000000000E+00 0. -1.
        -12    1    4    4    0    0  0.63066333197E+02  0.53134093345E+02 -0.57249445346E+02  0.10038970690E+03  0.00000000000E+00 0.  1.
</event>
<event>
12    1  0.8451514E-002  0.3437450E+03  0.7818608E-02  0.1065307E+00
         21   -1    0    0  501  502  0.00000000000E+00  0.00000000000E+00  0.10130251398E+04  0.10130251398E+04  0.00000000000E+00 0. -1.
         21   -1    0    0  502  503 -0.00000000000E+00 -0.00000000000E+00 -0.13631045705E+03  0.13631045705E+03  0.00000000000E+00 0.  1.
         -6    2    1    2    0  503  0.26944725285E+03  0.12510926509E+03  0.21886140432E+03  0.40750574242E+03  0.17293485921E+03 0.  0.
        -24    2    3    3    0    0  0.28238701918E+03  0.10191828593E+03  0.17435462197E+03  0.35546534714E+03  0.76330290225E+02 0.  0.
          6    2    1    2  501    0 -0.26944725285E+03 -0.12510926509E+03  0.65785327843E+03  0.74182985444E+03  0.17113283352E+03 0.  0.
         24    2    5    5    0    0 -0.75505180307E+02 -0.22340790580E+01  0.26605122694E+03  0.28769025431E+03  0.79223757232E+02 0.  0.
          5    1    5    5  501    0 -0.19394207254E+03 -0.12287518603E+03  0.39180205149E+03  0.45413960012E+03  0.47000000000E+01 0. -1.
        -11    1    6    6    0    0 -0.91888315798E+01  0.48890102015E+01 -0.27272028929E+01  0.10759864412E+02  0.00000000000E+00 0.  1.
         12    1    6    6    0    0 -0.66316348727E+02 -0.71230892595E+01  0.26877842983E+03  0.27693038990E+03  0.00000000000E+00 0. -1.
         -5    1    3    3    0  503 -0.12939766327E+02  0.23190979157E+02  0.44506782346E+02  0.52040395287E+02  0.47000000000E+01 0.  1.
         11    1    4    4    0    0  0.50635659744E+02  0.35294912519E+02  0.68236872567E+02  0.92010714948E+02  0.00000000000E+00 0. -1.
        -12    1    4    4    0    0  0.23175135943E+03  0.66623373412E+02  0.10611774941E+03  0.26345463219E+03  0.00000000000E+00 0.  1.
</event>
<event>
12    1  0.8451514E-002  0.1966435E+03  0.7818608E-02  0.1152751E+00
         21   -1    0    0  501  502  0.00000000000E+00  0.00000000000E+00  0.37106838326E+03  0.37106838326E+03  0.00000000000E+00 0. -1.
         21   -1    0    0  502  503 -0.00000000000E+00 -0.00000000000E+00 -0.41558019961E+03  0.41558019961E+03  0.00000000000E+00 0. -1.
         -6    2    1    2    0  503 -0.90445102601E+02  0.24636374856E+02 -0.36290264172E+03  0.41242755140E+03  0.17207815152E+03 0.  0.
        -24    2    3    3    0    0  0.69780578158E+01  0.74546352328E+01 -0.24356755614E+03  0.25734874236E+03  0.82455781556E+02 0.  0.
          6    2    1    2  501    0  0.90445102601E+02 -0.24636374856E+02  0.31839082537E+03  0.37422103147E+03  0.17286235900E+03 0.  0.
         24    2    5    5    0    0  0.95190957458E+02  0.23748140905E+02  0.29330907186E+03  0.31931412058E+03  0.79410348131E+02 0.  0.
          5    1    5    5  501    0 -0.47458548568E+01 -0.48384515761E+02  0.25081753516E+02  0.54906910887E+02  0.47000000000E+01 0. -1.
        -13    1    6    6    0    0 -0.65336690132E+01 -0.31213782489E+01 -0.47655669635E+00  0.72566479336E+01  0.00000000000E+00 0.  1.
         14    1    6    6    0    0  0.10172462647E+03  0.26869519154E+02  0.29378562855E+03  0.31205747265E+03  0.00000000000E+00 0. -1.
         -5    1    3    3    0  503 -0.97423160417E+02  0.17181739623E+02 -0.11933508558E+03  0.15507880904E+03  0.47000000000E+01 0.  1.
         13    1    4    4    0    0 -0.10441641022E+02  0.37549397925E+02 -0.68056581294E+02  0.78426292843E+02  0.00000000000E+00 0. -1.
        -14    1    4    4    0    0  0.17419698837E+02 -0.30094762692E+02 -0.17551097484E+03  0.17892244951E+03  0.00000000000E+00 0.  1.
</event>
<event>
12    1  0.8451514E-002  0.2070509E+03  0.7818608E-02  0.1145018E+00
         21   -1    0    0  503  502  0.00000000000E+00  0.00000000000E+00  0.11160825525E+04  0.11160825525E+04  0.00000000000E+00 0. -1.
         21   -1    0    0  501  503 -0.00000000000E+00 -0.00000000000E+00 -0.39930724256E+02  0.39930724256E+02  0.00000000000E+00 0. -1.
          6    2    1    2  501    0 -0.37350556559E+02  0.99396564538E+02  0.38666370987E+03  0.43610775566E+03  0.17148296971E+03 0.  0.
         24    2    3    3    0    0 -0.75592605639E+02  0.52984327983E+02  0.16920427698E+03  0.21043709968E+03  0.84451788217E+02 0.  0.
         -6    2    1    2    0  502  0.37350556559E+02 -0.99396564538E+02  0.68948811837E+03  0.71990552109E+03  0.17775081661E+03 0.  0.
        -24    2    5    5    0    0  0.83027841131E+01 -0.10762595954E+03  0.67047262753E+03  0.68391698239E+03  0.80972903747E+02 0.  0.
          5    1    3    3  501    0  0.38242049080E+02  0.46412236555E+02  0.21745943289E+03  0.22567065599E+03  0.47000000000E+01 0. -1.
        -11    1    4    4    0    0 -0.50291785446E+02 -0.12468431089E+02  0.95625231109E+02  0.10876079386E+03  0.00000000000E+00 0.  1.
         12    1    4    4    0    0 -0.25300820192E+02  0.65452759072E+02  0.73579045869E+02  0.10167630581E+03  0.00000000000E+00 0. -1.
         -5    1    5    5    0  502  0.29047772445E+02  0.82293950008E+01  0.19015490844E+02  0.35988538706E+02  0.47000000000E+01 0.  1.
         13    1    6    6    0    0  0.39545172982E+02 -0.40313140232E+02  0.20805794344E+03  0.21558543042E+03  0.00000000000E+00 0. -1.
        -14    1    6    6    0    0 -0.31242388869E+02 -0.67312819307E+02  0.46241468409E+03  0.46833155197E+03  0.00000000000E+00 0.  1.
</event>
<event>
12    1  0.8451514E-002  0.2334974E+03  0.7818608E-02  0.1124305E+00
         21   -1    0    0  503  502  0.00000000000E+00  0.00000000000E+00  0.57390827073E+03  0.57390827073E+03  0.00000000000E+00 0. -1.
         21   -1    0    0  501  503 -0.00000000000E+00 -0.00000000000E+00 -0.94814403772E+02  0.94814403772E+02  0.00000000000E+00 0.  1.
          6    2    1    2  501    0 -0.14163905946E+03 -0.72225780882E+02  0.24752082935E+03  0.33986540324E+03  0.17018738134E+03 0.  0.
         24    2    3    3    0    0 -0.57981221107E+02  0.83741489691E+01  0.49776658269E+02  0.11047527746E+03  0.79341810218E+02 0.  0.
         -6    2    1    2    0  502  0.14163905946E+03  0.72225780882E+02  0.23157303761E+03  0.32885727126E+03  0.17100539911E+03 0.  0.
        -24    2    5    5    0    0  0.25080476936E+02  0.22391753112E+02  0.31389781724E+02  0.91866217801E+02  0.79521460284E+02 0.  0.
          5    1    3    3  501    0 -0.83657838355E+02 -0.80599929851E+02  0.19774417108E+03  0.22939012579E+03  0.47000000000E+01 0. -1.
        -11    1    4    4    0    0 -0.11062283641E+02  0.37182801775E+02  0.37729576580E+02  0.54115208732E+02  0.00000000000E+00 0.  1.
         12    1    4    4    0    0 -0.46918937466E+02 -0.28808652806E+02  0.12047081689E+02  0.56360068724E+02  0.00000000000E+00 0. -1.
         -5    1    5    5    0  502  0.11655858253E+03  0.49834027770E+02  0.20018325588E+03  0.23699105346E+03  0.47000000000E+01 0.  1.
         11    1    6    6    0    0  0.42289946679E+02  0.68902586966E+01  0.47257738071E+02  0.63790352426E+02  0.00000000000E+00 0. -1.
        -12    1    6    6    0    0 -0.17209469743E+02  0.15501494415E+02 -0.15867956347E+02  0.28075865375E+02  0.00000000000E+00 0.  1.
</event>
<event>
12    1  0.8451514E-002  0.2401793E+03  0.7818608E-02  0.1119733E+00
         21   -1    0    0  503  502  0.00000000000E+00  0.00000000000E+00  0.28955902026E+03  0.28955902026E+03  0.00000000000E+00 0.  1.
         21   -1    0    0  501  503 -0.00000000000E+00 -0.00000000000E+00 -0.21149843973E+03  0.21149843973E+03  0.00000000000E+00 0.  1.
          6    2    1    2  501    0  0.14189431466E+03 -0.89726388475E+02 -0.22089623290E+02  0.24083414261E+03  0.17125510640E+03 0.  0.
         24    2    3    3    0    0  0.63385699578E+02  0.69601162261E+01  0.25007819863E+02  0.10759697818E+03  0.82979084900E+02 0.  0.
         -6    2    1    2    0  502 -0.14189431466E+03  0.89726388475E+02  0.10015020382E+03  0.26022331738E+03  0.17175939643E+03 0.  0.
        -24    2    5    5    0    0 -0.10029907465E-01  0.39248642335E+02  0.31738281665E+02  0.94749953340E+02  0.80185903431E+02 0.  0.
          5    1    3    3  501    0  0.78508615079E+02 -0.96686504701E+02 -0.47097443153E+02  0.13323716443E+03  0.47000000000E+01 0. -1.
        -13    1    4    4    0    0  0.29883113862E+02 -0.27888301423E+02  0.39792692104E+02  0.57045737748E+02  0.00000000000E+00 0.  1.
         14    1    4    4    0    0  0.33502585716E+02  0.34848417649E+02 -0.14784872241E+02  0.50551240435E+02  0.00000000000E+00 0. -1.
         -5    1    5    5    0  502 -0.14188428475E+03  0.50477746140E+02  0.68411922156E+02  0.16547336404E+03  0.47000000000E+01 0.  1.
         11    1    6    6    0    0 -0.19791406525E+02 -0.17670029835E+02  0.20321272891E+02  0.33419812366E+02  0.00000000000E+00 0. -1.
        -12    1    6    6    0    0  0.19781376618E+02  0.56918672170E+02  0.11417008774E+02  0.61330140974E+02  0.00000000000E+00 0.  1.
</event>
<event>
12    1  0.8451514E-002  0.2208279E+03  0.7818608E-02  0.1133268E+00
         21   -1    0    0  503  502  0.00000000000E+00  0.00000000000E+00  0.13506643817E+03  0.13506643817E+03  0.00000000000E+00 0.  1.
         21   -1    0    0  501  503 -0.00000000000E+00 -0.00000000000E+00 -0.21946282011E+04  0.21946282011E+04  0.00000000000E+00 0.  1.
          6    2    1    2  501    0  0.11167893999E+03 -0.83007445727E+02 -0.20945114751E+04  0.21061204335E+04  0.17147168717E+03 0.  0.
         24    2    3    3    0    0  0.35687425790E+02  0.30738320402E+01 -0.52092136407E+03  0.52833951586E+03  0.80625899517E+02 0.  0.
         -6    2    1    2    0  502 -0.11167893999E+03  0.83007445727E+02  0.34949712194E+02  0.22357420572E+03  0.17146871843E+03 0.  0.
        -24    2    5    5    0    0 -0.13805187372E+03  0.10062060053E+03  0.17932390060E+02  0.18727773057E+03  0.74622735580E+02 0.  0.
          5    1    3    3  501    0  0.75991514195E+02 -0.86081277768E+02 -0.15735901111E+04  0.15777809177E+04  0.47000000000E+01 0. -1.
        -13    1    4    4    0    0  0.24521175849E+02  0.29973196183E+02 -0.45010513206E+03  0.45176798300E+03  0.00000000000E+00 0.  1.
         14    1    4    4    0    0  0.11166249941E+02 -0.26899364143E+02 -0.70816232006E+02  0.76571532860E+02  0.00000000000E+00 0. -1.
         -5    1    5    5    0  502  0.26372933735E+02 -0.17613154801E+02  0.17017322135E+02  0.36296475153E+02  0.47000000000E+01 0.  1.
         13    1    6    6    0    0 -0.11491053309E+03  0.10721680352E+03 -0.17627346432E+00  0.15716203309E+03  0.00000000000E+00 0. -1.
        -14    1    6    6    0    0 -0.23141340629E+02 -0.65962029924E+01  0.18108663524E+02  0.30115697479E+02  0.00000000000E+00 0.  1.
</event>
<event>
12    1  0.8451514E-002  0.1750866E+03  0.7818608E-02  0.1173132E+00
         21   -1    0    0  501  502  0.00000000000E+00  0.00000000000E+00  0.63815839684E+02  0.63815839684E+02  0.00000000000E+00 0.  1.
         21   -1    0    0  502  503 -0.00000000000E+00 -0.00000000000E+00 -0.75888989742E+03  0.75888989742E+03  0.00000000000E+00 0.  1.
         -6    2    1    2    0  503  0.17785128271E+00  0.30725968863E+02 -0.59788254632E+03  0.62245216809E+03  0.17040846684E+03 0.  0.
        -24    2    3    3    0    0 -0.56496460016E+02 -0.39272964151E+01 -0.44286815120E+03  0.45373827106E+03  0.80863747298E+02 0.  0.
          6    2    1    2  501    0 -0.17785128271E+00 -0.30725968863E+02 -0.97191511415E+02  0.20025356902E+03  0.17236932795E+03 0.  0.
         24    2    5    5    0    0 -0.12442149641E+02 -0.25907744275E+02  0.15423999032E+02  0.86772418617E+02  0.80408547962E+02 0.  0.
          5    1    5    5  501    0  0.12264298359E+02 -0.48182245875E+01 -0.11261551045E+03  0.11348115040E+03  0.47000000000E+01 0. -1.
        -13    1    6    6    0    0 -0.35723825462E+02  0.14421492156E+02  0.33787809094E+01  0.38672823818E+02  0.00000000000E+00 0.  1.
         14    1    6    6    0    0  0.23281675821E+02 -0.40329236431E+02  0.12045218123E+02  0.48099594799E+02  0.00000000000E+00 0. -1.
         -5    1    3    3    0  503  0.56674311298E+02  0.34653265278E+02 -0.15501439512E+03  0.16871389703E+03  0.47000000000E+01 0.  1.
         11    1    4    4    0    0 -0.12595501860E+02 -0.95915327717E+01 -0.10247184840E+02  0.18858657565E+02  0.00000000000E+00 0. -1.
        -12    1    4    4    0    0 -0.43900958156E+02  0.56642363566E+01 -0.43262096636E+03  0.43487961350E+03  0.00000000000E+00 0.  1.
</event>
<event>
12    1  0.8451514E-002  0.1937803E+03  0.7818608E-02  0.1155380E+00
         21   -1    0    0  503  502  0.00000000000E+00  0.00000000000E+00  0.55056517471E+02  0.55056517471E+02  0.00000000000E+00 0. -1.
         21   -1    0    0  501  503 -0.00000000000E+00 -0.00000000000E+00 -0.90785918434E+03  0.90785918434E+03  0.00000000000E+00 0. -1.
          6    2    1    2  501    0 -0.87144834804E+02  0.84763523558E+01 -0.66785808735E+03  0.69504388581E+03  0.17142201601E+03 0.  0.
         24    2    3    3    0    0 -0.45460818450E+02  0.20015375023E+02 -0.63079256775E+03  0.63788927964E+03  0.80846572515E+02 0.  0.
         -6    2    1    2    0  502  0.87144834804E+02 -0.84763523558E+01 -0.18494457952E+03  0.26787181600E+03  0.17287203804E+03 0.  0.
        -24    2    5    5    0    0 -0.18360716879E+02 -0.15798705581E+02 -0.10518740186E+03  0.13532621751E+03  0.81621569532E+02 0.  0.
          5    1    3    3  501    0 -0.41684016354E+02 -0.11539022668E+02 -0.37065519599E+02  0.57154606172E+02  0.47000000000E+01 0. -1.
        -13    1    4    4    0    0  0.91934365875E+01 -0.75637061147E+01 -0.15428591732E+02  0.19487697896E+02  0.00000000000E+00 0.  1.
         14    1    4    4    0    0 -0.54654255038E+02  0.27579081138E+02 -0.61536397602E+03  0.61840158174E+03  0.00000000000E+00 0. -1.
         -5    1    5    5    0  502  0.10550555168E+03  0.73223532250E+01 -0.79757177656E+02  0.13254559850E+03  0.47000000000E+01 0.  1.
         13    1    6    6    0    0 -0.27890215869E+02  0.25437597220E+02 -0.26971889319E+02  0.46394162424E+02  0.00000000000E+00 0. -1.
        -14    1    6    6    0    0  0.95294989897E+01 -0.41236302801E+02 -0.78215512541E+02  0.88932055085E+02  0.00000000000E+00 0.  1.
</event>
<event>
12    1  0.8451514E-002  0.1815746E+03  0.7818608E-02  0.1167273E+00
         21   -1    0    0  501  502  0.00000000000E+00  0.00000000000E+00  0.57652996768E+03  0.57652996768E+03  0.00000000000E+00 0.  1.
         21   -1    0    0  502  503 -0.00000000000E+00 -0.00000000000E+00 -0.80320874123E+02  0.80320874123E+02  0.00000000000E+00 0. -1.
         -6    2    1    2    0  503  0.43081512606E+02 -0.18960046561E+02  0.65107343698E+02  0.18907092235E+03  0.17115299408E+03 0.  0.
        -24    2    3    3    0    0  0.32723686944E+01  0.27591407309E+02  0.87553662593E+02  0.12366654155E+03  0.82799610575E+02 0.  0.
          6    2    1    2  501    0 -0.43081512606E+02  0.18960046561E+02  0.43110174986E+03  0.46777991945E+03  0.17536771144E+03 0.  0.
         24    2    5    5    0    0 -0.17587435650E+02 -0.57051322486E+02  0.20780001608E+03  0.23047540939E+03  0.79836685565E+02 0.  0.
          5    1    5    5  501    0 -0.25494076955E+02  0.76011369047E+02  0.22330173378E+03  0.23730451005E+03  0.47000000000E+01 0. -1.
        -13    1    6    6    0    0  0.30422273962E+02 -0.25241851287E+02  0.60004435718E+02  0.71855397259E+02  0.00000000000E+00 0.  1.
         14    1    6    6    0    0 -0.48009709612E+02 -0.31809471199E+02  0.14779558036E+03  0.15862001214E+03  0.00000000000E+00 0. -1.
         -5    1    3    3    0  503  0.39809143911E+02 -0.46551453870E+02 -0.22446318895E+02  0.65404380804E+02  0.47000000000E+01 0.  1.
         13    1    4    4    0    0  0.34449138477E+02  0.35410571354E+02  0.30149224184E+02  0.57875965861E+02  0.00000000000E+00 0. -1.
        -14    1    4    4    0    0 -0.31176769783E+02 -0.78191640446E+01  0.57404438409E+02  0.65790575689E+02  0.00000000000E+00 0.  1.
</event>
<event>
12    1  0.8451514E-002  0.1835388E+03  0.7818608E-02  0.1167113E+00
         21   -1    0    0  501  502  0.00000000000E+00  0.00000000000E+00  0.21238202840E+03  0.21238202840E+03  0.00000000000E+00 0. -1.
         21   -1    0    0  502  503 -0.00000000000E+00 -0.00000000000E+00 -0.15592011161E+03  0.15592011161E+03  0.00000000000E+00 0. -1.
         -6    2    1    2    0  503 -0.60210449254E+02 -0.58208136764E+01 -0.10766094060E+02  0.17283834106E+03  0.16154876443E+03 0.  0.
        -24    2    3    3    0    0 -0.18335158237E+01 -0.34617570756E+02  0.34371562110E+02  0.93487111840E+02  0.79728901993E+02 0.  0.
          6    2    1    2  501    0  0.60210449254E+02  0.58208136764E+01  0.67228010844E+02  0.19546379895E+03  0.17328390343E+03 0.  0.
         24    2    5    5    0    0 -0.28197717761E+02  0.23404931779E+02  0.68794746773E+02  0.10518783390E+03  0.70631870273E+02 0.  0.
          5    1    5    5  501    0  0.88408167015E+02 -0.17584118103E+02 -0.15667359292E+01  0.90275965051E+02  0.47000000000E+01 0. -1.
        -11    1    6    6    0    0 -0.17449644461E+02 -0.23281901198E+02  0.13647213601E+02  0.32136948429E+02  0.00000000000E+00 0.  1.
         12    1    6    6    0    0 -0.10748073300E+02  0.46686832977E+02  0.55147533171E+02  0.73050885470E+02  0.00000000000E+00 0. -1.
         -5    1    3    3    0  503 -0.58376933430E+02  0.28796757080E+02 -0.45137656169E+02  0.79351229225E+02  0.47000000000E+01 0.  1.
         11    1    4    4    0    0  0.79452860866E+01  0.19608253527E+02 -0.93664245313E+01  0.23137439052E+02  0.00000000000E+00 0. -1.
        -12    1    4    4    0    0 -0.97788019103E+01 -0.54225824283E+02  0.43737986641E+02  0.70349672788E+02  0.00000000000E+00 0.  1.
</event>
<event>
12    1  0.8451514E-002  0.1838670E+03  0.7818608E-02  0.1164136E+00
         21   -1    0    0  501  502  0.00000000000E+00  0.00000000000E+00  0.15942473617E+03  0.15942473617E+03  0.00000000000E+00 0.  1.
         21   -1    0    0  502  503 -0.00000000000E+00 -0.00000000000E+00 -0.21214333880E+03  0.21214333880E+03  0.00000000000E+00 0.  1.
         -6    2    1    2    0  503  0.68076589612E+02 -0.52004699871E+01 -0.20580877007E+02  0.18491358709E+03  0.17061065398E+03 0.  0.
        -24    2    3    3    0    0  0.58604920718E+01  0.53429947364E+02 -0.20755805406E+02  0.99295310816E+02  0.80868106502E+02 0.  0.
          6    2    1    2  501    0 -0.68076589612E+02  0.52004699871E+01 -0.32137725625E+02  0.18665448788E+03  0.17072081741E+03 0.  0.
         24    2    5    5    0    0 -0.93776239928E+02 -0.41465304918E+02 -0.16458412805E+02  0.13092211467E+03  0.79726821519E+02 0.  0.
          5    1    5    5  501    0  0.25699650316E+02  0.46665774905E+02 -0.15679312820E+02  0.55732373217E+02  0.47000000000E+01 0. -1.
        -13    1    6    6    0    0 -0.77437358858E+02  0.76884226126E+01 -0.13986438303E+02  0.79065016572E+02  0.00000000000E+00 0.  1.
         14    1    6    6    0    0 -0.16338881071E+02 -0.49153727531E+02 -0.24719745016E+01  0.51857098094E+02  0.00000000000E+00 0. -1.
         -5    1    3    3    0  503  0.62216097540E+02 -0.58630417351E+02  0.17492839897E+00  0.85618276272E+02  0.47000000000E+01 0.  1.
         11    1    4    4    0    0 -0.14300392669E+02 -0.11813528035E+02  0.13457521638E+02  0.22916491087E+02  0.00000000000E+00 0. -1.
        -12    1    4    4    0    0  0.20160884740E+02  0.65243475399E+02 -0.34213327044E+02  0.76378819728E+02  0.00000000000E+00 0.  1.
</event>
<event>
12    1  0.8451514E-002  0.2240722E+03  0.7818608E-02  0.1130988E+00
         21   -1    0    0  501  502  0.00000000000E+00  0.00000000000E+00  0.86473232652E+03  0.86473232652E+03  0.00000000000E+00 0.  1.
         21   -1    0    0  502  503 -0.00000000000E+00 -0.00000000000E+00 -0.61366524783E+02  0.61366524783E+02  0.00000000000E+00 0.  1.
         -6    2    1    2    0  503  0.13818636371E+03  0.42040170678E+02  0.29232092528E+03  0.36832036666E+03  0.17130534749E+03 0.  0.
        -24    2    3    3    0    0  0.16965830960E+02 -0.19043712905E+02  0.75052361022E+02  0.11209121647E+03  0.79253274341E+02 0.  0.
          6    2    1    2  501    0 -0.13818636371E+03 -0.42040170678E+02  0.51104487646E+03  0.55777848464E+03  0.17054947992E+03 0.  0.
         24    2    5    5    0    0 -0.42230298890E+02 -0.41860912314E+01  0.10536882699E+03  0.13916691669E+03  0.80398504309E+02 0.  0.
          5    1    5    5  501    0 -0.95956064825E+02 -0.37854079447E+02  0.40567604947E+03  0.41861156795E+03  0.47000000000E+01 0. -1.
        -13    1    6    6    0    0 -0.34599388640E+02 -0.17935837571E+02  0.11452212894E+03  0.12097160816E+03  0.00000000000E+00 0.  1.
         14    1    6    6    0    0 -0.76309102492E+01  0.13749746340E+02 -0.91533019543E+01  0.18195308525E+02  0.00000000000E+00 0. -1.
         -5    1    3    3    0  503  0.12122053276E+03  0.61083883583E+02  0.21726856425E+03  0.25622915019E+03  0.47000000000E+01 0.  1.
         11    1    4    4    0    0  0.43931595412E+02 -0.29666895023E+02  0.38881172716E+02  0.65740819340E+02  0.00000000000E+00 0. -1.
        -12    1    4    4    0    0 -0.26965764452E+02  0.10623182118E+02  0.36171188306E+02  0.46350397132E+02  0.00000000000E+00 0.  1.
</event>
<event>
12    1  0.8451514E-002  0.2252252E+03  0.7818608E-02  0.1130253E+00
         21   -1    0    0  503  502  0.00000000000E+00  0.00000000000E+00  0.11791615470E+03  0.11791615470E+03  0.00000000000E+00 0. -1.
         21   -1    0    0  501  503 -0.00000000000E+00 -0.00000000000E+00 -0.54754123586E+03  0.54754123586E+03  0.00000000000E+00 0.  1.
          6    2    1    2  501    0  0.14538911069E+03 -0.19161236111E+02 -0.36984613795E+03  0.43243395473E+03  0.16943380116E+03 0.  0.
         24    2    3    3    0    0  0.11939449392E+03 -0.74106812639E+02 -0.24635326527E+03  0.29471207527E+03  0.80114987004E+02 0.  0.
         -6    2    1    2    0  502 -0.14538911069E+03  0.19161236111E+02 -0.59778943210E+02  0.23302343582E+03  0.17094225082E+03 0.  0.
        -24    2    5    5    0    0 -0.57985600767E+02 -0.50662082007E+02 -0.46133027142E+02  0.12022729083E+03  0.79983553419E+02 0.  0.
          5    1    3    3  501    0  0.25994616772E+02  0.54945576528E+02 -0.12349287268E+03  0.13772187946E+03  0.47000000000E+01 0. -1.
        -13    1    4    4    0    0  0.65317096942E+02 -0.53822232446E-01 -0.13862734220E+03  0.15324446501E+03  0.00000000000E+00 0.  1.
         14    1    4    4    0    0  0.54077396977E+02 -0.74052990406E+02 -0.10772592307E+03  0.14146761026E+03  0.00000000000E+00 0. -1.
         -5    1    5    5    0  502 -0.87403509924E+02  0.69823318118E+02 -0.13645916068E+02  0.11279614499E+03  0.47000000000E+01 0.  1.
         11    1    6    6    0    0 -0.74023819374E+02 -0.20522108497E+02 -0.30004386075E+02  0.82467848012E+02  0.00000000000E+00 0. -1.
        -12    1    6    6    0    0  0.16038218607E+02 -0.30139973510E+02 -0.16128641067E+02  0.37759442819E+02  0.00000000000E+00 0.  1.
</event>
<event>
12    1  0.8451514E-002  0.2519774E+03  0.7818608E-02  0.1112297E+00
         21   -1    0    0  503  502  0.00000000000E+00  0.00000000000E+00  0.16911727136E+03  0.16911727136E+03  0.00000000000E+00 0. -1.
         21   -1    0    0  501  503 -0.00000000000E+00 -0.00000000000E+00 -0.40884556939E+03  0.40884556939E+03  0.00000000000E+00 0. -1.
          6    2    1    2  501    0  0.10103967678E+02  0.18215336306E+03 -0.20486003334E+03  0.32358442006E+03  0.17163130777E+03 0.  0.
         24    2    3    3    0    0  0.17533907920E+02  0.22018501321E+02 -0.10520120419E+03  0.13476612067E+03  0.79387414561E+02 0.  0.
         -6    2    1    2    0  502 -0.10103967678E+02 -0.18215336306E+03 -0.34868264682E+02  0.25437842069E+03  0.17381210314E+03 0.  0.
        -24    2    5    5    0    0  0.19562974333E+02 -0.49141036832E+02  0.34300491211E+02  0.10147710229E+03  0.79520608191E+02 0.  0.
          5    1    3    3  501    0 -0.74299402427E+01  0.16013486174E+03 -0.99658829156E+02  0.18881829939E+03  0.47000000000E+01 0. -1.
        -13    1    4    4    0    0  0.11766323631E+02 -0.44592787092E-01  0.11144583867E+02  0.16206483575E+02  0.00000000000E+00 0.  1.
         14    1    4    4    0    0  0.57675842892E+01  0.22063094109E+02 -0.11634578805E+03  0.11855963709E+03  0.00000000000E+00 0. -1.
         -5    1    5    5    0  502 -0.29666942011E+02 -0.13301232623E+03 -0.69168755894E+02  0.15290131840E+03  0.47000000000E+01 0.  1.
         13    1    6    6    0    0 -0.77665674894E+01 -0.63515037203E+02  0.28544469404E+02  0.70066156274E+02  0.00000000000E+00 0. -1.
        -14    1    6    6    0    0  0.27329541822E+02  0.14374000371E+02  0.57560218072E+01  0.31410946021E+02  0.00000000000E+00 0.  1.
</event>
<event>
12    1  0.8451514E-002  0.1754570E+03  0.7818608E-02  0.1172627E+00
         21   -1    0    0  501  502  0.00000000000E+00  0.00000000000E+00  0.18168256050E+03  0.18168256050E+03  0.00000000000E+00 0.  1.
         21   -1    0    0  502  503 -0.00000000000E+00 -0.00000000000E+00 -0.21726484236E+03  0.21726484236E+03  0.00000000000E+00 0.  1.
         -6    2    1    2    0  503 -0.15777411472E+02 -0.16798280204E+02  0.77053188097E+02  0.19163079006E+03  0.17393693389E+03 0.  0.
        -24    2    3    3    0    0  0.42289609526E+02 -0.86166333859E+01 -0.55447393387E+01  0.90224548192E+02  0.79038392679E+02 0.  0.
          6    2    1    2  501    0  0.15777411472E+02  0.16798280204E+02 -0.11263546995E+03  0.20731661280E+03  0.17251759308E+03 0.  0.
         24    2    5    5    0    0 -0.55679567905E+02  0.27398322102E+02 -0.79441447472E+02  0.12767746465E+03  0.78356295641E+02 0.  0.
          5    1    5    5  501    0  0.71456979376E+02 -0.10600041898E+02 -0.33194022482E+02  0.79639148152E+02  0.47000000000E+01 0. -1.
        -11    1    6    6    0    0 -0.29944834273E+02  0.53343705511E+02 -0.62301429943E+02  0.87313871694E+02  0.00000000000E+00 0.  1.
         12    1    6    6    0    0 -0.25734733632E+02 -0.25945383409E+02 -0.17140017529E+02  0.40363592955E+02  0.00000000000E+00 0. -1.
         -5    1    3    3    0  503 -0.58067020998E+02 -0.81816468184E+01  0.82597927436E+02  0.10140624186E+03  0.47000000000E+01 0.  1.
         13    1    4    4    0    0  0.37795054661E+02 -0.17240954957E+02 -0.38026506335E+02  0.56318130906E+02  0.00000000000E+00 0. -1.
        -14    1    4    4    0    0  0.44945548649E+01  0.86243215709E+01  0.32481766996E+02  0.33906417286E+02  0.00000000000E+00 0.  1.
</event>
<event>
12    1  0.8451514E-002  0.1828360E+03  0.7818608E-02  0.1165485E+00
         21   -1    0    0  503  502  0.00000000000E+00  0.00000000000E+00  0.39653688408E+03  0.39653688408E+03  0.00000000000E+00 0.  1.
         21   -1    0    0  501  503 -0.00000000000E+00 -0.00000000000E+00 -0.30261005290E+03  0.30261005290E+03  0.00000000000E+00 0.  1.
          6    2    1    2  501    0  0.51807728109E+02 -0.29338518429E+02  0.34434061639E+03  0.38908874839E+03  0.17109881552E+03 0.  0.
         24    2    3    3    0    0 -0.13672470769E+02 -0.61315437856E+02  0.17006976809E+03  0.20013743618E+03  0.84762892610E+02 0.  0.
         -6    2    1    2    0  502 -0.51807728109E+02  0.29338518429E+02 -0.25041378521E+03  0.31005818859E+03  0.17287055022E+03 0.  0.
        -24    2    5    5    0    0 -0.19586866752E+02  0.37685808712E+02 -0.44464490411E+02  0.10138364968E+03  0.80608237714E+02 0.  0.
          5    1    3    3  501    0  0.65480198877E+02  0.31976919427E+02  0.17427084830E+03  0.18895131222E+03  0.47000000000E+01 0. -1.
        -13    1    4    4    0    0 -0.36273684581E+02 -0.64697822979E+02  0.15741525351E+03  0.17401479974E+03  0.00000000000E+00 0.  1.
         14    1    4    4    0    0  0.22601213812E+02  0.33823851229E+01  0.12654514579E+02  0.26122636432E+02  0.00000000000E+00 0. -1.
         -5    1    5    5    0  502 -0.32220861356E+02 -0.83472902831E+01 -0.20594929480E+03  0.20867453891E+03  0.47000000000E+01 0.  1.
         11    1    6    6    0    0  0.20652544650E+02 -0.14350357643E+02 -0.94530866818E+01  0.26866730594E+02  0.00000000000E+00 0. -1.
        -12    1    6    6    0    0 -0.40239411402E+02  0.52036166355E+02 -0.35011403729E+02  0.74516919085E+02  0.00000000000E+00 0.  1.
</event>
<event>
12    1  0.8451514E-002  0.1757278E+03  0.7818608E-02  0.1172159E+00
         21   -1    0    0  503  502  0.00000000000E+00  0.00000000000E+00  0.36596611581E+02  0.36596611581E+02  0.00000000000E+00 0. -1.
         21   -1    0    0  501  503 -0.00000000000E+00 -0.00000000000E+00 -0.10313146028E+04  0.10313146028E+04  0.00000000000E+00 0. -1.
          6    2    1    2  501    0  0.31303413095E+02 -0.91943715594E+01 -0.72612524320E+03  0.74694030844E+03  0.17203928454E+03 0.  0.
         24    2    3    3    0    0  0.11910865523E+02 -0.27432539382E+02 -0.15968676439E+03  0.17985712059E+03  0.77164163777E+02 0.  0.
         -6    2    1    2    0  502 -0.31303413095E+02  0.91943715594E+01 -0.26859274804E+03  0.32097090596E+03  0.17267257464E+03 0.  0.
        -24    2    5    5    0    0 -0.32149321391E+02 -0.18651708716E+02 -0.51016864197E+02  0.10156836501E+03  0.79573533498E+02 0.  0.
          5    1    3    3  501    0  0.19392547572E+02  0.18238167823E+02 -0.56643847881E+03  0.56708318785E+03  0.47000000000E+01 0. -1.
        -13    1    4    4    0    0 -0.30467166073E+02 -0.51981512176E+01 -0.91291024195E+02  0.96381118915E+02  0.00000000000E+00 0.  1.
         14    1    4    4    0    0  0.42378031597E+02 -0.22234388165E+02 -0.68395740194E+02  0.83476001675E+02  0.00000000000E+00 0. -1.
         -5    1    5    5    0  502  0.84590829631E+00  0.27846080275E+02 -0.21757588384E+03  0.21940254095E+03  0.47000000000E+01 0.  1.
         13    1    6    6    0    0 -0.30534555085E+02 -0.44245136009E+02 -0.12331034097E+02  0.55154741560E+02  0.00000000000E+00 0. -1.
        -14    1    6    6    0    0 -0.16147663066E+01  0.25593427293E+02 -0.38685830100E+02  0.46413623445E+02  0.00000000000E+00 0.  1.
</event>
<event>
12    1  0.8451514E-002  0.2068098E+03  0.7818608E-02  0.1144325E+00
         21   -1    0    0  501  502  0.00000000000E+00  0.00000000000E+00  0.67888819032E+03  0.67888819032E+03  0.00000000000E+00 0.  1.
         21   -1    0    0  502  503 -0.00000000000E+00 -0.00000000000E+00 -0.97450055941E+02  0.97450055941E+02  0.00000000000E+00 0.  1.
         -6    2    1    2    0  503 -0.17079596189E+02  0.11272272264E+03  0.58422959669E+02  0.21391922568E+03  0.17131861572E+03 0.  0.
        -24    2    3    3    0    0  0.47413200690E+01 -0.27879158455E+01  0.52540816082E+02  0.96124702873E+02  0.80306715517E+02 0.  0.
          6    2    1    2  501    0  0.17079596189E+02 -0.11272272264E+03  0.52301517471E+03  0.56241902058E+03  0.17254610088E+03 0.  0.
         24    2    5    5    0    0 -0.30218225946E+01 -0.12254283397E+03  0.51823663884E+03  0.53906466278E+03  0.83639818551E+02 0.  0.
          5    1    5    5  501    0  0.20101418784E+02  0.98201113251E+01  0.47785358713E+01  0.23354357808E+02  0.47000000000E+01 0. -1.
        -11    1    6    6    0    0  0.33605233927E+02 -0.65104981258E+02  0.18587675864E+03  0.19979524452E+03  0.00000000000E+00 0.  1.
         12    1    6    6    0    0 -0.36627056521E+02 -0.57437852708E+02  0.33235988020E+03  0.33926941825E+03  0.00000000000E+00 0. -1.
         -5    1    3    3    0  503 -0.21820916259E+02  0.11551063849E+03  0.58821435868E+01  0.11779452281E+03  0.47000000000E+01 0.  1.
         11    1    4    4    0    0 -0.12090682939E+01  0.37254892071E+02  0.37677570018E+02  0.52999887847E+02  0.00000000000E+00 0. -1.
        -12    1    4    4    0    0  0.59503883630E+01 -0.40042807916E+02  0.14863246064E+02  0.43124815026E+02  0.00000000000E+00 0.  1.
</event>
<event>
12    1  0.8451514E-002  0.2020842E+03  0.7818608E-02  0.1148096E+00
         21   -1    0    0  501  502  0.00000000000E+00  0.00000000000E+00  0.25503404519E+02  0.25503404519E+02  0.00000000000E+00 0. -1.
         21   -1    0    0  502  503 -0.00000000000E+00 -0.00000000000E+00 -0.25707560811E+04  0.25707560811E+04  0.00000000000E+00 0. -1.
         -6    2    1    2    0  503 -0.87081514618E+02  0.60635815777E+02 -0.20704504631E+04  0.20802409166E+04  0.17139795435E+03 0.  0.
        -24    2    3    3    0    0  0.41837346882E+01  0.87806619808E+01 -0.52393293416E+03  0.53015806078E+03  0.80419190811E+02 0.  0.
          6    2    1    2  501    0  0.87081514618E+02 -0.60635815777E+02 -0.47480221350E+03  0.51601856900E+03  0.17198293307E+03 0.  0.
         24    2    5    5    0    0  0.14308663825E+02  0.25886339457E+02 -0.15691812353E+03  0.17859545803E+03  0.79988747377E+02 0.  0.
          5    1    5    5  501    0  0.72772850793E+02 -0.86522155234E+02 -0.31788408997E+03  0.33742311097E+03  0.47000000000E+01 0. -1.
        -11    1    6    6    0    0 -0.17732846870E+02  0.47404156095E+00 -0.12621926531E+03  0.12745972505E+03  0.00000000000E+00 0.  1.
         12    1    6    6    0    0  0.32041510694E+02  0.25412297896E+02 -0.30698858216E+02  0.51135732983E+02  0.00000000000E+00 0. -1.
         -5    1    3    3    0  503 -0.91265249306E+02  0.51855153796E+02 -0.15465175289E+04  0.15500828558E+04  0.47000000000E+01 0.  1.
         13    1    4    4    0    0 -0.22515702963E+02  0.23508008705E+02 -0.43355016147E+03  0.43477042892E+03  0.00000000000E+00 0. -1.
        -14    1    4    4    0    0  0.26699437651E+02 -0.14727346724E+02 -0.90382772690E+02  0.95387631858E+02  0.00000000000E+00 0.  1.
</event>
<event>
12    1  0.8451514E-002  0.2143413E+03  0.7818608E-02  0.1139114E+00
         21   -1    0    0  503  502  0.00000000000E+00  0.00000000000E+00  0.73568962067E+02  0.73568962067E+02  0.00000000000E+00 0. -1.
         21   -1    0    0  501  503 -0.00000000000E+00 -0.00000000000E+00 -0.66963581792E+03  0.66963581792E+03  0.00000000000E+00 0.  1.
          6    2    1    2  501    0  0.51378709161E+02  0.10916917305E+03 -0.41152446941E+03  0.46399847025E+03  0.17715674239E+03 0.  0.
         24    2    3    3    0    0  0.10160468673E+02 -0.12926310758E+02 -0.12220680814E+03  0.14724454425E+03  0.80474388612E+02 0.  0.
         -6    2    1    2    0  502 -0.51378709161E+02 -0.10916917305E+03 -0.18454238644E+03  0.27920630973E+03  0.17129679186E+03 0.  0.
        -24    2    5    5    0    0 -0.16816198428E+02 -0.68952765497E+02 -0.19721180062E+03  0.22448400495E+03  0.80394687498E+02 0.  0.
          5    1    3    3  501    0  0.41218240488E+02  0.12209548381E+03 -0.28931766127E+03  0.31675392600E+03  0.47000000000E+01 0. -1.
        -11    1    4    4    0    0  0.20204973887E+01 -0.10450084120E+02 -0.13304253752E+03  0.13346761201E+03  0.00000000000E+00 0.  1.
         12    1    4    4    0    0  0.81399712845E+01 -0.24762266381E+01  0.10835729374E+02  0.13776932240E+02  0.00000000000E+00 0. -1.
         -5    1    5    5    0  502 -0.34562510733E+02 -0.40216407553E+02  0.12669414177E+02  0.54722304779E+02  0.47000000000E+01 0.  1.
         13    1    6    6    0    0 -0.14432475513E+02 -0.57886378537E+01  0.18199975752E+01  0.15656215022E+02  0.00000000000E+00 0. -1.
        -14    1    6    6    0    0 -0.23837229149E+01 -0.63164127643E+02 -0.19903179819E+03  0.20882778993E+03  0.00000000000E+00 0.  1.
</event>
<event>
12    1  0.8451514E-002  0.1772677E+03  0.7818608E-02  0.1170638E+00
         21   -1    0    0  501  502  0.00000000000E+00  0.00000000000E+00  0.70618167718E+03  0.70618167718E+03  0.00000000000E+00 0. -1.
         21   -1    0    0  502  503 -0.00000000000E+00 -0.00000000000E+00 -0.71794925983E+02  0.71794925983E+02  0.00000000000E+00 0. -1.
         -6    2    1    2    0  503  0.39910575208E+02 -0.69804273667E+01  0.76979163677E+02  0.19326055233E+03  0.17257540111E+03 0.  0.
        -24    2    3    3    0    0  0.64096288098E+02  0.38019723058E+02  0.10311747210E+02  0.10913804247E+03  0.79062928704E+02 0.  0.
          6    2    1    2  501    0 -0.39910575208E+02  0.69804273667E+01  0.55740758752E+03  0.58471605083E+03  0.17189549469E+03 0.  0.
         24    2    5    5    0    0 -0.42258748174E+02  0.44254719260E+02  0.52614835892E+03  0.53578634487E+03  0.80564444919E+02 0.  0.
          5    1    5    5  501    0  0.23481729665E+01 -0.37274291893E+02  0.31259228599E+02  0.48929705957E+02  0.47000000000E+01 0. -1.
        -13    1    6    6    0    0  0.17376688885E+02  0.32549274447E+02  0.13527835396E+03  0.14021996161E+03  0.00000000000E+00 0.  1.
         14    1    6    6    0    0 -0.59635437059E+02  0.11705444812E+02  0.39087000496E+03  0.39556638326E+03  0.00000000000E+00 0. -1.
         -5    1    3    3    0  503 -0.24185712891E+02 -0.45000150425E+02  0.66667416467E+02  0.84122509857E+02  0.47000000000E+01 0.  1.
         11    1    4    4    0    0  0.11346154916E+02 -0.22445844842E+02  0.14051543221E+02  0.28809669366E+02  0.00000000000E+00 0. -1.
        -12    1    4    4    0    0  0.52750133182E+02  0.60465567900E+02 -0.37397960112E+01  0.80328373109E+02  0.00000000000E+00 0.  1.
</event>
<event>
12    1  0.8451514E-002  0.1990608E+03  0.7818608E-02  0.1150926E+00
         21   -1    0    0  503  502  0.00000000000E+00  0.00000000000E+00  0.87320027575E+03  0.87320027575E+03  0.00000000000E+00 0.  1.
         21   -1    0    0  501  503 -0.00000000000E+00 -0.00000000000E+00 -0.55735111556E+02  0.55735111556E+02  0.00000000000E+00 0.  1.
          6    2    1    2  501    0  0.94982111474E+02  0.33850315826E+02  0.61141072768E+03  0.64243300176E+03  0.16949819600E+03 0.  0.
         24    2    3    3    0    0  0.13177579947E+03  0.23734724525E+02  0.44199419634E+03  0.46870864609E+03  0.80004542651E+02 0.  0.
         -6    2    1    2    0  502 -0.94982111474E+02 -0.33850315826E+02  0.20605443651E+03  0.28650238554E+03  0.17163257480E+03 0.  0.
        -24    2    5    5    0    0  0.14720722279E+02 -0.36298442358E+02  0.95733722447E+02  0.13083140235E+03  0.80110134470E+02 0.  0.
          5    1    3    3  501    0 -0.36793687992E+02  0.10115591301E+02  0.16941653134E+03  0.17372435567E+03  0.47000000000E+01 0. -1.
        -11    1    4    4    0    0  0.69364019779E+02  0.52528974176E+02  0.23410969535E+03  0.24975590048E+03  0.00000000000E+00 0.  1.
         12    1    4    4    0    0  0.62411779687E+02 -0.28794249651E+02  0.20788450100E+03  0.21895274561E+03  0.00000000000E+00 0. -1.
         -5    1    5    5    0  502 -0.10970283375E+03  0.24481265320E+01  0.11032071407E+03  0.15567098320E+03  0.47000000000E+01 0.  1.
         13    1    6    6    0    0  0.14002301966E+02  0.15732523185E+02  0.69372587240E+02  0.72499190386E+02  0.00000000000E+00 0. -1.
        -14    1    6    6    0    0  0.71842031309E+00 -0.52030965543E+02  0.26361135206E+02  0.58332211962E+02  0.00000000000E+00 0.  1.
</event>
<event>
12    1  0.8451514E-002  0.2431976E+03  0.7818608E-02  0.1117871E+00
         21   -1    0    0  503  502  0.00000000000E+00  0.00000000000E+00  0.85232706875E+03  0.85232706875E+03  0.00000000000E+00 0. -1.
         21   -1    0    0  501  503 -0.00000000000E+00 -0.00000000000E+00 -0.72848392047E+02  0.72848392047E+02  0.00000000000E+00 0.  1.
          6    2    1    2  501    0  0.18719186362E+02 -0.16796379939E+03  0.28338890630E+03  0.37268101728E+03  0.17326171701E+03 0.  0.
         24    2    3    3    0    0 -0.32449299540E+02 -0.70124768236E+02  0.21559499778E+03  0.24303228416E+03  0.81320648754E+02 0.  0.
         -6    2    1    2    0  502 -0.18719186362E+02  0.16796379939E+03  0.49608977040E+03  0.55249444352E+03  0.17487939838E+03 0.  0.
        -24    2    5    5    0    0  0.19691531013E+02  0.12961386946E+02  0.17680842768E+03  0.19547372019E+03  0.79956245797E+02 0.  0.
          5    1    3    3  501    0  0.51168485902E+02 -0.97839031156E+02  0.67793908515E+02  0.12964873312E+03  0.47000000000E+01 0. -1.
        -13    1    4    4    0    0 -0.56105017715E+02 -0.55452359414E+02  0.12113404637E+03  0.14455516029E+03  0.00000000000E+00 0.  1.
         14    1    4    4    0    0  0.23655718175E+02 -0.14672408821E+02  0.94460951415E+02  0.98477123867E+02  0.00000000000E+00 0. -1.
         -5    1    5    5    0  502 -0.38410717375E+02  0.15500241245E+03  0.31928134272E+03  0.35702072333E+03  0.47000000000E+01 0.  1.
         13    1    6    6    0    0  0.73151221665E+01  0.44668339768E+02  0.69878052822E+02  0.83256914764E+02  0.00000000000E+00 0. -1.
        -14    1    6    6    0    0  0.12376408847E+02 -0.31706952822E+02  0.10693037486E+03  0.11221680543E+03  0.00000000000E+00 0.  1.
</event>
<event>
12    1  0.8451514E-002  0.1782182E+03  0.7818608E-02  0.1170658E+00
         21   -1    0    0  501  502  0.00000000000E+00  0.00000000000E+00  0.35272084379E+03  0.35272084379E+03  0.00000000000E+00 0. -1.
         21   -1    0    0  502  503 -0.00000000000E+00 -0.00000000000E+00 -0.13537524506E+03  0.13537524506E+03  0.00000000000E+00 0. -1.
         -6    2    1    2    0  503  0.19675090749E+02 -0.97077900762E+01 -0.36919420648E+02  0.17759256618E+03  0.17232157600E+03 0.  0.
        -24    2    3    3    0    0  0.35539076101E+02 -0.61228870801E+02  0.92233369600E+01  0.10647764601E+03  0.78996320206E+02 0.  0.
          6    2    1    2  501    0 -0.19675090749E+02  0.97077900762E+01  0.25426501938E+03  0.31050352268E+03  0.17686262220E+03 0.  0.
         24    2    5    5    0    0 -0.10495157385E+02  0.20643885249E+02  0.27359454881E+03  0.28601699450E+03  0.80096352460E+02 0.  0.
          5    1    5    5  501    0 -0.91799333632E+01 -0.10936095173E+02 -0.19329529430E+02  0.24486528177E+02  0.47000000000E+01 0. -1.
        -13    1    6    6    0    0 -0.68969297883E+00  0.47523370903E+02  0.10838350236E+03  0.11834665201E+03  0.00000000000E+00 0.  1.
         14    1    6    6    0    0 -0.98054644065E+01 -0.26879485654E+02  0.16521104644E+03  0.16767034248E+03  0.00000000000E+00 0. -1.
         -5    1    3    3    0  503 -0.15863985353E+02  0.51521080724E+02 -0.46142757608E+02  0.71114920164E+02  0.47000000000E+01 0.  1.
         13    1    4    4    0    0  0.68801391343E+01  0.19221372551E+02 -0.11473892535E+01  0.20447835566E+02  0.00000000000E+00 0. -1.
        -14    1    4    4    0    0  0.28658936967E+02 -0.80450243351E+02  0.10370726214E+02  0.86029810447E+02  0.00000000000E+00 0.  1.
</event>
<event>
12    1  0.8451514E-002  0.4335110E+03  0.7818608E-02  0.1032796E+00
         21   -1    0    0  503  502  0.00000000000E+00  0.00000000000E+00  0.10767447156E+04  0.10767447156E+04  0.00000000000E+00 0.  1.
         21   -1    0    0  501  503 -0.00000000000E+00 -0.00000000000E+00 -0.21000923220E+03  0.21000923220E+03  0.00000000000E+00 0.  1.
          6    2    1    2  501    0 -0.31807064707E+03 -0.23908696367E+03  0.16798164561E+03  0.46444701910E+03  0.17076793482E+03 0.  0.
         24    2    3    3    0    0 -0.26728172830E+03 -0.18391391389E+03  0.19208283594E+03  0.38553860974E+03  0.80500644310E+02 0.  0.
         -6    2    1    2    0  502  0.31807064707E+03  0.23908696367E+03  0.69875383779E+03  0.82230692870E+03  0.17204722152E+03 0.  0.
        -24    2    5    5    0    0  0.74569944263E+02  0.31045428385E+02  0.12057438496E+03  0.16133231319E+03  0.70465862367E+02 0.  0.
          5    1    3    3  501    0 -0.50788918768E+02 -0.55173049782E+02 -0.24101190330E+02  0.78908409356E+02  0.47000000000E+01 0. -1.
        -13    1    4    4    0    0 -0.78511920602E+02 -0.66890601046E+02  0.21179446674E+02  0.10529502907E+03  0.00000000000E+00 0.  1.
         14    1    4    4    0    0 -0.18876980770E+03 -0.11702331284E+03  0.17090338926E+03  0.28024358067E+03  0.00000000000E+00 0. -1.
         -5    1    5    5    0  502  0.24350070281E+03  0.20804153528E+03  0.57817945283E+03  0.66097461551E+03  0.47000000000E+01 0.  1.
         13    1    6    6    0    0  0.25195831328E+01 -0.16021861202E+02  0.41114898808E+02  0.44198226656E+02  0.00000000000E+00 0. -1.
        -14    1    6    6    0    0  0.72050361130E+02  0.47067289588E+02  0.79459486150E+02  0.11713408653E+03  0.00000000000E+00 0.  1.
</event>
<event>
12    1  0.8451514E-002  0.2026393E+03  0.7818608E-02  0.1147728E+00
         21   -1    0    0  501  502  0.00000000000E+00  0.00000000000E+00  0.55712478213E+03  0.55712478213E+03  0.00000000000E+00 0. -1.
         21   -1    0    0  502  503 -0.00000000000E+00 -0.00000000000E+00 -0.75771138011E+02  0.75771138011E+02  0.00000000000E+00 0. -1.
         -6    2    1    2    0  503 -0.96076215698E+02  0.48294667315E+02  0.29656744483E+03  0.35865404506E+03  0.17063839131E+03 0.  0.
        -24    2    3    3    0    0 -0.12617342164E+03  0.26051945049E+02  0.16737273233E+03  0.22406599122E+03  0.74789710004E+02 0.  0.
          6    2    1    2  501    0  0.96076215698E+02 -0.48294667315E+02  0.18478619929E+03  0.27424187509E+03  0.17175462873E+03 0.  0.
         24    2    5    5    0    0  0.10629348965E+03 -0.94139776428E+01  0.19126338972E+03  0.23325230675E+03  0.80237307039E+02 0.  0.
          5    1    5    5  501    0 -0.10217273948E+02 -0.38880689672E+02 -0.64771904322E+01  0.40989568334E+02  0.47000000000E+01 0. -1.
        -11    1    6    6    0    0  0.18442402705E+01 -0.20123131529E+01 -0.78354311150E+01  0.82972650408E+01  0.00000000000E+00 0.  1.
         12    1    6    6    0    0  0.10444924938E+03 -0.74016644899E+01  0.19909882084E+03  0.22495504171E+03  0.00000000000E+00 0. -1.
         -5    1    3    3    0  503  0.30097205942E+02  0.22242722266E+02  0.12919471250E+03  0.13458805384E+03  0.47000000000E+01 0.  1.
         13    1    4    4    0    0 -0.87358258685E+02 -0.13016755278E+02  0.72071744497E+02  0.11399665624E+03  0.00000000000E+00 0. -1.
        -14    1    4    4    0    0 -0.38815162954E+02  0.39068700326E+02  0.95300987837E+02  0.11006933498E+03  0.00000000000E+00 0.  1.
</event>
<event>
12    1  0.8451514E-002  0.1799793E+03  0.7818608E-02  0.1168215E+00
         21   -1    0    0  503  502  0.00000000000E+00  0.00000000000E+00  0.11718267534E+04  0.11718267534E+04  0.00000000000E+00 0. -1.
         21   -1    0    0  501  503 -0.00000000000E+00 -0.00000000000E+00 -0.36792992831E+02  0.36792992831E+02  0.00000000000E+00 0. -1.
          6    2    1    2  501    0  0.34003039614E+02  0.42291684864E+02  0.26021972695E+03  0.31548360940E+03  0.16991412004E+03 0.  0.
         24    2    3    3    0    0 -0.21990168728E+01 -0.26658993885E+02  0.19981563146E+03  0.21681482129E+03  0.79792496666E+02 0.  0.
         -6    2    1    2    0  502 -0.34003039614E+02 -0.42291684864E+02  0.87481403362E+03  0.89313613684E+03  0.17160353202E+03 0.  0.
        -24    2    5    5    0    0 -0.77960933284E+02 -0.14914575476E+02  0.74547960377E+03  0.75373998453E+03  0.77998544628E+02 0.  0.
          5    1    3    3  501    0  0.36202056487E+02  0.68950678749E+02  0.60404095494E+02  0.98668788106E+02  0.47000000000E+01 0. -1.
        -11    1    4    4    0    0  0.47941464807E+01 -0.46718149475E+02  0.64190505859E+02  0.79536094783E+02  0.00000000000E+00 0.  1.
         12    1    4    4    0    0 -0.69931633535E+01  0.20059155589E+02  0.13562512560E+03  0.13727872651E+03  0.00000000000E+00 0. -1.
         -5    1    5    5    0  502  0.43957893670E+02 -0.27377109388E+02  0.12933442985E+03  0.13939615231E+03  0.47000000000E+01 0.  1.
         11    1    6    6    0    0  0.57086220120E+01 -0.24069015897E+02  0.24345112081E+03  0.24470462627E+03  0.00000000000E+00 0. -1.
        -12    1    6    6    0    0 -0.83669555296E+02  0.91544404208E+01  0.50202848295E+03  0.50903535826E+03  0.00000000000E+00 0.  1.
</event>
<event>
12    1  0.8451514E-002  0.1901692E+03  0.7818608E-02  0.1158549E+00
         21   -1    0    0  501  502  0.00000000000E+00  0.00000000000E+00  0.46371936469E+03  0.46371936469E+03  0.00000000000E+00 0. -1.
         21   -1    0    0  502  503 -0.00000000000E+00 -0.00000000000E+00 -0.80208045849E+02  0.80208045849E+02  0.00000000000E+00 0. -1.
         -6    2    1    2    0  503  0.26401464303E+02  0.81814485443E+02  0.14174211155E+03  0.23632915398E+03  0.16843394993E+03 0.  0.
        -24    2    3    3    0    0 -0.75476480157E+00  0.11704220585E+03  0.12159095257E+03  0.18727191932E+03  0.81160115824E+02 0.  0.
          6    2    1    2  501    0 -0.26401464303E+02 -0.81814485443E+02  0.24176920729E+03  0.30759825656E+03  0.16962809466E+03 0.  0.
         24    2    5    5    0    0 -0.60967951713E+02 -0.39695514041E+02  0.22636994727E+03  0.25078208797E+03  0.79721249662E+02 0.  0.
          5    1    5    5  501    0  0.34566487410E+02 -0.42118971402E+02  0.15399260016E+02  0.56816168587E+02  0.47000000000E+01 0. -1.
        -13    1    6    6    0    0  0.12172275716E+02 -0.12401582220E+02  0.10530695830E+03  0.10673105923E+03  0.00000000000E+00 0.  1.
         14    1    6    6    0    0 -0.73140227430E+02 -0.27293931820E+02  0.12106298897E+03  0.14405102874E+03  0.00000000000E+00 0. -1.
         -5    1    3    3    0  503  0.27156229105E+02 -0.35227720402E+02  0.20151158979E+02  0.49057234657E+02  0.47000000000E+01 0.  1.
         11    1    4    4    0    0  0.20454246056E+02  0.76737131315E+02  0.29837607455E+02  0.84836585992E+02  0.00000000000E+00 0. -1.
        -12    1    4    4    0    0 -0.21209010858E+02  0.40305074531E+02  0.91753345118E+02  0.10243533333E+03  0.00000000000E+00 0.  1.
</event>
<event>
12    1  0.8451514E-002  0.1848333E+03  0.7818608E-02  0.1163606E+00
         21   -1    0    0  501  502  0.00000000000E+00  0.00000000000E+00  0.16992543939E+03  0.16992543939E+03  0.00000000000E+00 0. -1.
         21   -1    0    0  502  503 -0.00000000000E+00 -0.00000000000E+00 -0.75349989674E+03  0.75349989674E+03  0.00000000000E+00 0. -1.
         -6    2    1    2    0  503 -0.33529884277E+02 -0.55227635577E+02 -0.68815147851E+03  0.71254179614E+03  0.17317334957E+03 0.  0.
        -24    2    3    3    0    0 -0.39989238591E+02 -0.78615082571E+02 -0.66897488275E+03  0.68126036778E+03  0.93855338438E+02 0.  0.
          6    2    1    2  501    0  0.33529884277E+02  0.55227635577E+02  0.10457702116E+03  0.21088353998E+03  0.17135101170E+03 0.  0.
         24    2    5    5    0    0  0.78569899351E+02  0.65442015638E+02  0.41350787176E+02  0.13244513624E+03  0.73320802083E+02 0.  0.
          5    1    5    5  501    0 -0.45040015074E+02 -0.10214380061E+02  0.63226233987E+02  0.78438403745E+02  0.47000000000E+01 0. -1.
        -13    1    6    6    0    0  0.86244156376E+01  0.15726918420E+02 -0.20069023957E+02  0.26916207583E+02  0.00000000000E+00 0.  1.
         14    1    6    6    0    0  0.69945483713E+02  0.49715097218E+02  0.61419811133E+02  0.10552892865E+03  0.00000000000E+00 0. -1.
         -5    1    3    3    0  503  0.64593543143E+01  0.23387446994E+02 -0.19176595762E+02  0.31281428358E+02  0.47000000000E+01 0.  1.
         11    1    4    4    0    0 -0.57822893886E+01 -0.91397564383E+02 -0.44469721134E+03  0.45402924952E+03  0.00000000000E+00 0. -1.
        -12    1    4    4    0    0 -0.34206949202E+02  0.12782481812E+02 -0.22427767141E+03  0.22723111827E+03  0.00000000000E+00 0.  1.
</event>
<event>
12    1  0.8451514E-002  0.2334449E+03  0.7818608E-02  0.1124272E+00
         21   -1    0    0  501  502  0.00000000000E+00  0.00000000000E+00  0.48847916380E+02  0.48847916380E+02  0.00000000000E+00 0. -1.
         21   -1    0    0  502  503 -0.00000000000E+00 -0.00000000000E+00 -0.12307274917E+04  0.12307274917E+04  0.00000000000E+00 0.  1.
         -6    2    1    2    0  503  0.10970078700E+03 -0.11306240985E+03 -0.78715349392E+03  0.82098497099E+03  0.17201258213E+03 0.  0.
        -24    2    3    3    0    0  0.62940908457E+01 -0.62808134799E+02 -0.22351216136E+03  0.24571800797E+03  0.80219547425E+02 0.  0.
          6    2    1    2  501    0 -0.10970078700E+03  0.11306240985E+03 -0.39472608140E+03  0.45859043709E+03  0.17227634330E+03 0.  0.
         24    2    5    5    0    0 -0.69678269780E+01  0.31381012057E+02 -0.24518716936E+03  0.25956810659E+03  0.78902062149E+02 0.  0.
          5    1    5    5  501    0 -0.10273296003E+03  0.81681397797E+02 -0.14953891204E+03  0.19902233049E+03  0.47000000000E+01 0. -1.
        -13    1    6    6    0    0 -0.25691971384E+02 -0.54468542993E+01 -0.18321014002E+03  0.18508295714E+03  0.00000000000E+00 0.  1.
         14    1    6    6    0    0  0.18724144406E+02  0.36827866356E+02 -0.61977029333E+02  0.74485149453E+02  0.00000000000E+00 0. -1.
         -5    1    3    3    0  503  0.10340669616E+03 -0.50254275055E+02 -0.56364133256E+03  0.57526696301E+03  0.47000000000E+01 0.  1.
         11    1    4    4    0    0  0.37212153984E+02 -0.58226573144E+02 -0.13164072826E+03  0.14867534954E+03  0.00000000000E+00 0. -1.
        -12    1    4    4    0    0 -0.30918063138E+02 -0.45815616552E+01 -0.91871433106E+02  0.97042658436E+02  0.00000000000E+00 0.  1.
</event>
<event>
12    1  0.8451514E-002  0.2309944E+03  0.7818608E-02  0.1126651E+00
         21   -1    0    0  503  502  0.00000000000E+00  0.00000000000E+00  0.15117379189E+03  0.15117379189E+03  0.00000000000E+00 0.  1.
         21   -1    0    0  501  503 -0.00000000000E+00 -0.00000000000E+00 -0.79383757941E+03  0.79383757941E+03  0.00000000000E+00 0. -1.
          6    2    1    2  501    0 -0.11497670882E+03  0.92384706852E+02 -0.67711371875E+03  0.71543090646E+03  0.17777462183E+03 0.  0.
         24    2    3    3    0    0 -0.87674503717E+02 -0.14377806529E+02 -0.33292810787E+03  0.35400391604E+03  0.81142514379E+02 0.  0.
         -6    2    1    2    0  502  0.11497670882E+03 -0.92384706852E+02  0.34449931229E+02  0.22958046484E+03  0.17252772079E+03 0.  0.
        -24    2    5    5    0    0  0.12682880415E+03 -0.11246696852E+03  0.57118965770E+02  0.19672099856E+03  0.81867029086E+02 0.  0.
          5    1    3    3  501    0 -0.27302205103E+02  0.10676251338E+03 -0.34418561088E+03  0.36142699042E+03  0.47000000000E+01 0. -1.
        -11    1    4    4    0    0 -0.70441062339E+02  0.24989218113E+02 -0.17411737224E+03  0.18948156533E+03  0.00000000000E+00 0.  1.
         12    1    4    4    0    0 -0.17233441377E+02 -0.39367024642E+02 -0.15881073563E+03  0.16452235071E+03  0.00000000000E+00 0. -1.
         -5    1    5    5    0  502 -0.11852095335E+02  0.20082261664E+02 -0.22669034541E+02  0.32859466283E+02  0.47000000000E+01 0.  1.
         13    1    6    6    0    0  0.50677578754E+01  0.96668469087E+01 -0.67282943244E+01  0.12821858038E+02  0.00000000000E+00 0. -1.
        -14    1    6    6    0    0  0.12176104628E+03 -0.12213381543E+03  0.63847260094E+02  0.18389914052E+03  0.00000000000E+00 0.  1.
</event>
<event>
12    1  0.8451514E-002  0.1814262E+03  0.7818608E-02  0.1166562E+00
         21   -1    0    0  503  502  0.00000000000E+00  0.00000000000E+00  0.66578896920E+02  0.66578896920E+02  0.00000000000E+00 0.  1.
         21   -1    0    0  501  503 -0.00000000000E+00 -0.00000000000E+00 -0.73715943189E+03  0.73715943189E+03  0.00000000000E+00 0.  1.
          6    2    1    2  501    0 -0.33238139757E+02  0.43481929899E+02 -0.56696387428E+03  0.59528438486E+03  0.17297402104E+03 0.  0.
         24    2    3    3    0    0 -0.41562211137E+02 -0.16003891893E+02 -0.48486880464E+03  0.49345342877E+03  0.80093612111E+02 0.  0.
         -6    2    1    2    0  502  0.33238139757E+02 -0.43481929899E+02 -0.10361666069E+03  0.20845394395E+03  0.17239832428E+03 0.  0.
        -24    2    5    5    0    0 -0.20997533731E+02 -0.48922256637E+02 -0.18091765314E+02  0.10692708463E+03  0.90949468602E+02 0.  0.
          5    1    3    3  501    0  0.83240713806E+01  0.59485821792E+02 -0.82095069642E+02  0.10183095609E+03  0.47000000000E+01 0. -1.
        -11    1    4    4    0    0 -0.21048365103E+02  0.28548016666E+02 -0.30364676103E+03  0.30571126642E+03  0.00000000000E+00 0.  1.
         12    1    4    4    0    0 -0.20513846034E+02 -0.44551908559E+02 -0.18122204361E+03  0.18774216236E+03  0.00000000000E+00 0. -1.
         -5    1    5    5    0  502  0.54235673488E+02  0.54403267388E+01 -0.85524895372E+02  0.10152685931E+03  0.47000000000E+01 0.  1.
         13    1    6    6    0    0  0.90514774497E+01 -0.66500586514E+02 -0.24658269795E+02  0.71500262377E+02  0.00000000000E+00 0. -1.
        -14    1    6    6    0    0 -0.30049011181E+02  0.17578329876E+02  0.65665044813E+01  0.35426822258E+02  0.00000000000E+00 0.  1.
</event>
<event>
12    1  0.8451514E-002  0.2902173E+03  0.7818608E-02  0.1090363E+00
         21   -1    0    0  501  502  0.00000000000E+00  0.00000000000E+00  0.22661163640E+03  0.22661163640E+03  0.00000000000E+00 0. -1.
         21   -1    0    0  502  503 -0.00000000000E+00 -0.00000000000E+00 -0.43984170802E+03  0.43984170802E+03  0.00000000000E+00 0.  1.
         -6    2    1    2    0  503 -0.13796201208E+03  0.18787731031E+03 -0.23914260539E+03  0.37605224396E+03  0.17290085010E+03 0.  0.
        -24    2    3    3    0    0 -0.16051840618E+03  0.19456915442E+03 -0.22913823304E+03  0.35005706828E+03  0.80076879570E+02 0.  0.
          6    2    1    2  501    0  0.13796201208E+03 -0.18787731031E+03  0.25912533774E+02  0.29040110045E+03  0.17125985879E+03 0.  0.
         24    2    5    5    0    0  0.75197869194E+02 -0.88947499253E+02 -0.51411717517E+02  0.14994621451E+03  0.79210639392E+02 0.  0.
          5    1    5    5  501    0  0.62764142887E+02 -0.98929811055E+02  0.77324251291E+02  0.14045488594E+03  0.47000000000E+01 0. -1.
        -11    1    6    6    0    0  0.88135011798E+02 -0.65954187833E+02 -0.55447257857E+02  0.12325637347E+03  0.00000000000E+00 0.  1.
         12    1    6    6    0    0 -0.12937142604E+02 -0.22993311420E+02  0.40355403402E+01  0.26689841038E+02  0.00000000000E+00 0. -1.
         -5    1    3    3    0  503  0.22556394098E+02 -0.66918441089E+01 -0.10004372358E+02  0.25995175678E+02  0.47000000000E+01 0.  1.
         11    1    4    4    0    0 -0.80909797540E+01 -0.38674766162E+01  0.22509953879E+01  0.92459888056E+01  0.00000000000E+00 0. -1.
        -12    1    4    4    0    0 -0.15242742642E+03  0.19843663103E+03 -0.23138922843E+03  0.34081107948E+03  0.00000000000E+00 0.  1.
</event>
<event>
12    1  0.8451514E-002  0.1834839E+03  0.7818608E-02  0.1164602E+00
         21   -1    0    0  501  502  0.00000000000E+00  0.00000000000E+00  0.14196172101E+03  0.14196172101E+03  0.00000000000E+00 0.  1.
         21   -1    0    0  502  503 -0.00000000000E+00 -0.00000000000E+00 -0.25959386277E+03  0.25959386277E+03  0.00000000000E+00 0.  1.
         -6    2    1    2    0  503 -0.74817445729E+01 -0.57483559558E+02  0.10596221742E+01  0.18348699521E+03  0.17408623866E+03 0.  0.
        -24    2    3    3    0    0 -0.46628247482E+02  0.19384984661E+02 -0.17051197709E+02  0.95218577428E+02  0.78904138361E+02 0.  0.
          6    2    1    2  501    0  0.74817445729E+01  0.57483559558E+02 -0.11869176393E+03  0.21806858857E+03  0.17351034083E+03 0.  0.
         24    2    5    5    0    0  0.16626075537E+02  0.47279057020E+02 -0.15403995357E+03  0.17986734289E+03  0.78180676141E+02 0.  0.
          5    1    5    5  501    0 -0.91443309637E+01  0.10204502538E+02  0.35348189637E+02  0.38201245679E+02  0.47000000000E+01 0. -1.
        -13    1    6    6    0    0 -0.21996066965E+02  0.20011153608E+02 -0.11430322411E+03  0.11810800257E+03  0.00000000000E+00 0.  1.
         14    1    6    6    0    0  0.38622142502E+02  0.27267903412E+02 -0.39736729464E+02  0.61759340317E+02  0.00000000000E+00 0. -1.
         -5    1    3    3    0  503  0.39146502909E+02 -0.76868544219E+02  0.18110819883E+02  0.88268417779E+02  0.47000000000E+01 0.  1.
         11    1    4    4    0    0 -0.45681807576E+01 -0.10243594911E+02 -0.38036150458E+02  0.39655368537E+02  0.00000000000E+00 0. -1.
        -12    1    4    4    0    0 -0.42060066724E+02  0.29628579572E+02  0.20984952750E+02  0.55563208891E+02  0.00000000000E+00 0.  1.
</event>
<event>
12    1  0.8451514E-002  0.1975615E+03  0.7818608E-02  0.1152196E+00
         21   -1    0    0  503  502  0.00000000000E+00  0.00000000000E+00  0.40360067269E+02  0.40360067269E+02  0.00000000000E+00 0. -1.
         21   -1    0    0  501  503 -0.00000000000E+00 -0.00000000000E+00 -0.11230816299E+04  0.11230816299E+04  0.00000000000E+00 0.  1.
          6    2    1    2  501    0 -0.28768584813E+02  0.87901702423E+02 -0.76621962108E+03  0.79127937737E+03  0.17457435253E+03 0.  0.
         24    2    3    3    0    0  0.93129326255E+01  0.10870077993E+03 -0.39450143132E+03  0.41700767633E+03  0.79758589122E+02 0.  0.
         -6    2    1    2    0  502  0.28768584813E+02 -0.87901702423E+02 -0.31650194155E+03  0.37216231980E+03  0.17256005480E+03 0.  0.
        -24    2    5    5    0    0 -0.44129797681E+02 -0.34386363413E+02 -0.11649631334E+03  0.15261185409E+03  0.81173431326E+02 0.  0.
          5    1    3    3  501    0 -0.38081517438E+02 -0.20799077507E+02 -0.37171818977E+03  0.37427170104E+03  0.47000000000E+01 0. -1.
        -13    1    4    4    0    0  0.26457126812E+02  0.25352120456E+02 -0.21807574222E+03  0.22113285354E+03  0.00000000000E+00 0.  1.
         14    1    4    4    0    0 -0.17144194186E+02  0.83348659474E+02 -0.17642568909E+03  0.19587482279E+03  0.00000000000E+00 0. -1.
         -5    1    5    5    0  502  0.72898382493E+02 -0.53515339009E+02 -0.20000562821E+03  0.21955046571E+03  0.47000000000E+01 0.  1.
         13    1    6    6    0    0 -0.69815234822E+01  0.14455814010E+02  0.47329618334E+01  0.16736581388E+02  0.00000000000E+00 0. -1.
        -14    1    6    6    0    0 -0.37148274198E+02 -0.48842177424E+02 -0.12122927518E+03  0.13587527270E+03  0.00000000000E+00 0.  1.
</event>
<event>
12    1  0.8451514E-002  0.1943101E+03  0.7818608E-02  0.1154652E+00
         21   -1    0    0  503  502  0.00000000000E+00  0.00000000000E+00  0.17882783852E+04  0.17882783852E+04  0.00000000000E+00 0.  1.
         21   -1    0    0  501  503 -0.00000000000E+00 -0.00000000000E+00 -0.29563267737E+02  0.29563267737E+02  0.00000000000E+00 0.  1.
          6    2    1    2  501    0 -0.77804835204E+02 -0.45008427110E+02  0.39327372062E+03  0.43865777934E+03  0.17227036063E+03 0.  0.
         24    2    3    3    0    0 -0.30173690409E+02 -0.93800902452E+02  0.25590392559E+03  0.28522381247E+03  0.78464916810E+02 0.  0.
         -6    2    1    2    0  502  0.77804835204E+02  0.45008427110E+02  0.13654413968E+04  0.13791838736E+04  0.17215864221E+03 0.  0.
        -24    2    5    5    0    0  0.89029875009E+02 -0.18708739902E+02  0.10616271663E+04  0.10685215882E+04  0.80061280419E+02 0.  0.
          5    1    3    3  501    0 -0.47631144795E+02  0.48792475342E+02  0.13736979503E+03  0.15343396688E+03  0.47000000000E+01 0. -1.
        -13    1    4    4    0    0 -0.20341462999E+02  0.92969760930E+01  0.47806076668E+02  0.52779066378E+02  0.00000000000E+00 0.  1.
         14    1    4    4    0    0 -0.98322274100E+01 -0.10309787854E+03  0.20809784892E+03  0.23244474609E+03  0.00000000000E+00 0. -1.
         -5    1    5    5    0  502 -0.11225039805E+02  0.63717167012E+02  0.30381423053E+03  0.31066228539E+03  0.47000000000E+01 0.  1.
         13    1    6    6    0    0  0.26158291098E+02 -0.44784147369E+02  0.38449917922E+03  0.38798130737E+03  0.00000000000E+00 0. -1.
        -14    1    6    6    0    0  0.62871583911E+02  0.26075407468E+02  0.67712798709E+03  0.68054028084E+03  0.00000000000E+00 0.  1.
</event>
<event>
12    1  0.8451514E-002  0.2044339E+03  0.7818608E-02  0.1146343E+00
         21   -1    0    0  501  502  0.00000000000E+00  0.00000000000E+00  0.33681485854E+02  0.33681485854E+02  0.00000000000E+00 0.  1.
         21   -1    0    0  502  503 -0.00000000000E+00 -0.00000000000E+00 -0.13406723796E+04  0.13406723796E+04  0.00000000000E+00 0.  1.
         -6    2    1    2    0  503  0.95053810045E+02 -0.54267943563E+02 -0.84682578349E+03  0.87082118404E+03  0.17098359709E+03 0.  0.
        -24    2    3    3    0    0  0.42698674596E+02  0.27876026292E+02 -0.55506555388E+03  0.56319346491E+03  0.80553461479E+02 0.  0.
          6    2    1    2  501    0 -0.95053810045E+02  0.54267943563E+02 -0.46016511025E+03  0.50353268142E+03  0.17266440299E+03 0.  0.
         24    2    5    5    0    0 -0.10920963628E+03  0.73087605026E+02 -0.28632247675E+03  0.32803932457E+03  0.91436836712E+02 0.  0.
          5    1    5    5  501    0  0.14155826239E+02 -0.18819661463E+02 -0.17384263351E+03  0.17549335685E+03  0.47000000000E+01 0. -1.
        -11    1    6    6    0    0 -0.11677008502E+03  0.37083465091E+02 -0.20574732681E+03  0.23946272910E+03  0.00000000000E+00 0.  1.
         12    1    6    6    0    0  0.75604487360E+01  0.36004139935E+02 -0.80575149939E+02  0.88576595471E+02  0.00000000000E+00 0. -1.
         -5    1    3    3    0  503  0.52355135449E+02 -0.82143969856E+02 -0.29176022961E+03  0.30762771912E+03  0.47000000000E+01 0.  1.
         13    1    4    4    0    0  0.11107887292E+02  0.29314143393E+02 -0.65578245702E+02  0.72685696477E+02  0.00000000000E+00 0. -1.
        -14    1    4    4    0    0  0.31590787303E+02 -0.14381171012E+01 -0.48948730818E+03  0.49050776843E+03  0.00000000000E+00 0.  1.
</event>
<event>
12    1  0.8451514E-002  0.1778834E+03  0.7818608E-02  0.1169893E+00
         21   -1    0    0  503  502  0.00000000000E+00  0.00000000000E+00  0.24974354499E+04  0.24974354499E+04  0.00000000000E+00 0.  1.
         21   -1    0    0  501  503 -0.00000000000E+00 -0.00000000000E+00 -0.18683642711E+02  0.18683642711E+02  0.00000000000E+00 0.  1.
          6    2    1    2  501    0 -0.14106800515E+02  0.43027080915E+02  0.52544431106E+03  0.55473799326E+03  0.17202379380E+03 0.  0.
         24    2    3    3    0    0  0.34403538927E+02  0.44697652158E+02  0.47263954482E+03  0.48285978253E+03  0.81141522395E+02 0.  0.
         -6    2    1    2    0  502  0.14106800515E+02 -0.43027080915E+02  0.19533074961E+04  0.19613810993E+04  0.17191658130E+03 0.  0.
        -24    2    5    5    0    0  0.32869447198E+02 -0.10780779935E+02  0.18392210846E+04  0.18412575790E+04  0.79364025365E+02 0.  0.
          5    1    3    3  501    0 -0.48510339441E+02 -0.16705712429E+01  0.52804766241E+02  0.71878210737E+02  0.47000000000E+01 0. -1.
        -13    1    4    4    0    0 -0.12913254531E+02 -0.79236352982E+01  0.21928318761E+03  0.21980594284E+03  0.00000000000E+00 0.  1.
         14    1    4    4    0    0  0.47316793458E+02  0.52621287456E+02  0.25335635721E+03  0.26305383969E+03  0.00000000000E+00 0. -1.
         -5    1    5    5    0  502 -0.18762646684E+02 -0.32246300980E+02  0.11408641152E+03  0.12012352030E+03  0.47000000000E+01 0.  1.
         13    1    6    6    0    0 -0.30062531933E+01  0.29914952172E+02  0.86999275625E+03  0.87051211241E+03  0.00000000000E+00 0. -1.
        -14    1    6    6    0    0  0.35875700391E+02 -0.40695732107E+02  0.96922832834E+03  0.97074546661E+03  0.00000000000E+00 0.  1.
</event>
<event>
12    1  0.8451514E-002  0.1834450E+03  0.7818608E-02  0.1166225E+00
         21   -1    0    0  503  502  0.00000000000E+00  0.00000000000E+00  0.28485025806E+03  0.28485025806E+03  0.00000000000E+00 0. -1.
         21   -1    0    0  501  503 -0.00000000000E+00 -0.00000000000E+00 -0.27634743315E+03  0.27634743315E+03  0.00000000000E+00 0. -1.
          6    2    1    2  501    0  0.38976653178E+02  0.25195232365E+02 -0.21109884698E+03  0.27505621464E+03  0.17011531027E+03 0.  0.
         24    2    3    3    0    0  0.41367277977E+02 -0.34823982167E+02 -0.18648899941E+03  0.20997353033E+03  0.79917301727E+02 0.  0.
         -6    2    1    2    0  502 -0.38976653178E+02 -0.25195232365E+02  0.21960167189E+03  0.28614147656E+03  0.17747695930E+03 0.  0.
        -24    2    5    5    0    0 -0.29936621465E+02 -0.55444542198E+02  0.49302039286E+02  0.11287636817E+03  0.79624649762E+02 0.  0.
          5    1    3    3  501    0 -0.23906247987E+01  0.60019214533E+02 -0.24609847572E+02  0.65082684314E+02  0.47000000000E+01 0. -1.
        -11    1    4    4    0    0  0.51037116477E+02 -0.31923326557E+02 -0.67050510330E+02  0.90109139227E+02  0.00000000000E+00 0.  1.
         12    1    4    4    0    0 -0.96698385000E+01 -0.29006556096E+01 -0.11943848908E+03  0.11986439110E+03  0.00000000000E+00 0. -1.
         -5    1    5    5    0  502 -0.90400317139E+01  0.30249309832E+02  0.17029963261E+03  0.17326510839E+03  0.47000000000E+01 0.  1.
         13    1    6    6    0    0  0.24397700324E+02 -0.18081529985E+02 -0.28890004462E+00  0.30368947478E+02  0.00000000000E+00 0. -1.
        -14    1    6    6    0    0 -0.54334321789E+02 -0.37363012213E+02  0.49590939330E+02  0.82507420694E+02  0.00000000000E+00 0.  1.
</event>
<event>
12    1  0.8451514E-002  0.1945621E+03  0.7818608E-02  0.1154498E+00
         21   -1    0    0  501  502  0.00000000000E+00  0.00000000000E+00  0.64594532029E+02  0.64594532029E+02  0.00000000000E+00 0.  1.
         21   -1    0    0  502  503 -0.00000000000E+00 -0.00000000000E+00 -0.58666016652E+03  0.58666016652E+03  0.00000000000E+00 0.  1.
         -6    2    1    2    0  503 -0.61289592300E+02  0.65191531635E+02 -0.27952715645E+03  0.34057281996E+03  0.17276592426E+03 0.  0.
        -24    2    3    3    0    0  0.28276034074E+02  0.28408768685E+01 -0.13078729607E+03  0.15603219668E+03  0.80206763442E+02 0.  0.
          6    2    1    2  501    0  0.61289592300E+02 -0.65191531635E+02 -0.24253847805E+03  0.31068187859E+03  0.17231357007E+03 0.  0.
         24    2    5    5    0    0  0.96241290225E+02 -0.43575080164E+02 -0.10943824878E+03  0.17130234927E+03  0.78781920610E+02 0.  0.
          5    1    5    5  501    0 -0.34951697924E+02 -0.21616451471E+02 -0.13310022927E+03  0.13937952932E+03  0.47000000000E+01 0. -1.
        -11    1    6    6    0    0  0.70272802216E+02 -0.12729095803E+02 -0.10979628938E+03  0.13097908907E+03  0.00000000000E+00 0.  1.
         12    1    6    6    0    0  0.25968488009E+02 -0.30845984361E+02  0.35804059838E+00  0.40323260207E+02  0.00000000000E+00 0. -1.
         -5    1    3    3    0  503 -0.89565626374E+02  0.62350654767E+02 -0.14873986037E+03  0.18454062328E+03  0.47000000000E+01 0.  1.
         13    1    4    4    0    0  0.40357498484E+02  0.30894570716E+02 -0.58131858709E+02  0.77217324356E+02  0.00000000000E+00 0. -1.
        -14    1    4    4    0    0 -0.12081464410E+02 -0.28053693847E+02 -0.72655437364E+02  0.78814872323E+02  0.00000000000E+00 0.  1.
</event>
<event>
12    1  0.8451514E-002  0.1829965E+03  0.7818608E-02  0.1166634E+00
         21   -1    0    0  503  502  0.00000000000E+00  0.00000000000E+00  0.45320997425E+02  0.45320997425E+02  0.00000000000E+00 0. -1.
         21   -1    0    0  501  503 -0.00000000000E+00 -0.00000000000E+00 -0.71162083855E+03  0.71162083855E+03  0.00000000000E+00 0. -1.
          6    2    1    2  501    0  0.97704619287E+01  0.36914117542E+02 -0.33952985317E+03  0.38242035267E+03  0.17177511736E+03 0.  0.
         24    2    3    3    0    0 -0.42643879374E+02  0.18060662359E+02 -0.98573271909E+02  0.13506457651E+03  0.79881549315E+02 0.  0.
         -6    2    1    2    0  502 -0.97704619287E+01 -0.36914117542E+02 -0.32676998796E+03  0.37452148331E+03  0.17896816037E+03 0.  0.
        -24    2    5    5    0    0  0.33552570424E+02 -0.71518455747E+02 -0.14402335838E+03  0.18349068481E+03  0.81764534830E+02 0.  0.
          5    1    3    3  501    0  0.52414341302E+02  0.18853455183E+02 -0.24095658126E+03  0.24735577616E+03  0.47000000000E+01 0. -1.
        -11    1    4    4    0    0  0.15181110287E+02 -0.13203209519E+02 -0.50382549584E+01  0.20740657275E+02  0.00000000000E+00 0.  1.
         12    1    4    4    0    0 -0.57824989661E+02  0.31263871878E+02 -0.93535016950E+02  0.11432391924E+03  0.00000000000E+00 0. -1.
         -5    1    5    5    0  502 -0.43323032353E+02  0.34604338205E+02 -0.18274662957E+03  0.19103079850E+03  0.47000000000E+01 0.  1.
         11    1    6    6    0    0  0.47184393922E+02 -0.25366945475E+02 -0.11607538102E+03  0.12784108507E+03  0.00000000000E+00 0. -1.
        -12    1    6    6    0    0 -0.13631823498E+02 -0.46151510272E+02 -0.27947977364E+02  0.55649599738E+02  0.00000000000E+00 0.  1.
</event>
<event>
12    1  0.8451514E-002  0.1848058E+03  0.7818608E-02  0.1163764E+00
         21   -1    0    0  501  502  0.00000000000E+00  0.00000000000E+00  0.36222585583E+04  0.36222585583E+04  0.00000000000E+00 0. -1.
         21   -1    0    0  502  503 -0.00000000000E+00 -0.00000000000E+00 -0.14165756356E+02  0.14165756356E+02  0.00000000000E+00 0. -1.
         -6    2    1    2    0  503  0.16862342833E+02 -0.59004091974E+02  0.73263161229E+03  0.75503051174E+03  0.17191908811E+03 0.  0.
        -24    2    3    3    0    0  0.58517436838E+02 -0.35362439531E+02  0.26884669792E+03  0.28875525893E+03  0.80163957199E+02 0.  0.
          6    2    1    2  501    0 -0.16862342833E+02  0.59004091974E+02  0.28754611897E+04  0.28813938030E+04  0.17431974299E+03 0.  0.
         24    2    5    5    0    0  0.44622602980E+02 -0.10569029751E+02  0.14589642637E+04  0.14618493516E+04  0.79523098116E+02 0.  0.
          5    1    5    5  501    0 -0.61484945812E+02  0.69573121725E+02  0.14164969260E+04  0.14195444513E+04  0.47000000000E+01 0. -1.
        -11    1    6    6    0    0  0.46033731288E+02 -0.15733420289E+02  0.41066827457E+03  0.41353969177E+03  0.00000000000E+00 0.  1.
         12    1    6    6    0    0 -0.14111283082E+01  0.51643905382E+01  0.10482959891E+04  0.10483096599E+04  0.00000000000E+00 0. -1.
         -5    1    3    3    0  503 -0.41655094005E+02 -0.23641652443E+02  0.46378491437E+03  0.46627525281E+03  0.47000000000E+01 0.  1.
         13    1    4    4    0    0  0.52466054060E+02  0.98911807536E+01  0.19279825129E+03  0.20005421261E+03  0.00000000000E+00 0. -1.
        -14    1    4    4    0    0  0.60513827782E+01 -0.45253620284E+02  0.76048446637E+02  0.88701046320E+02  0.00000000000E+00 0.  1.
</event>
<event>
12    1  0.8451514E-002  0.5644382E+03  0.7818608E-02  0.9983037E-01
         21   -1    0    0  501  502  0.00000000000E+00  0.00000000000E+00  0.11093373291E+04  0.11093373291E+04  0.00000000000E+00 0.  1.
         21   -1    0    0  502  503 -0.00000000000E+00 -0.00000000000E+00 -0.28636499422E+03  0.28636499422E+03  0.00000000000E+00 0. -1.
         -6    2    1    2    0  503 -0.44585308798E+02 -0.53474484746E+03  0.40213547888E+03  0.69303926733E+03  0.17507307344E+03 0.  0.
        -24    2    3    3    0    0 -0.68027010184E+02 -0.20048861999E+03  0.20275497813E+03  0.30310156328E+03  0.77055925420E+02 0.  0.
          6    2    1    2  501    0  0.44585308798E+02  0.53474484746E+03  0.42083685604E+03  0.70266305604E+03  0.16938656757E+03 0.  0.
         24    2    5    5    0    0  0.18455379218E+02  0.28052021190E+03  0.14427833704E+03  0.32607356736E+03  0.80470755496E+02 0.  0.
          5    1    5    5  501    0  0.26129929580E+02  0.25422463556E+03  0.27655851900E+03  0.37658948867E+03  0.47000000000E+01 0. -1.
        -13    1    6    6    0    0  0.46793319178E+01  0.16585686073E+02  0.37038914576E+02  0.40851711380E+02  0.00000000000E+00 0.  1.
         14    1    6    6    0    0  0.13776047300E+02  0.26393452582E+03  0.10723942247E+03  0.28522185598E+03  0.00000000000E+00 0. -1.
         -5    1    3    3    0  503  0.23441701386E+02 -0.33425622747E+03  0.19938050075E+03  0.38993770406E+03  0.47000000000E+01 0.  1.
         13    1    4    4    0    0 -0.34636915530E+02 -0.12605475122E+03  0.72712380967E+02  0.14958812309E+03  0.00000000000E+00 0. -1.
        -14    1    4    4    0    0 -0.33390094654E+02 -0.74433868770E+02  0.13004259717E+03  0.15351344019E+03  0.00000000000E+00 0.  1.
</event>
<event>
12    1  0.8451514E-002  0.1847474E+03  0.7818608E-02  0.1163632E+00
         21   -1    0    0  503  502  0.00000000000E+00  0.00000000000E+00  0.45455615584E+03  0.45455615584E+03  0.00000000000E+00 0.  1.
         21   -1    0    0  501  503 -0.00000000000E+00 -0.00000000000E+00 -0.77967985599E+02  0.77967985599E+02  0.00000000000E+00 0.  1.
          6    2    1    2  501    0  0.48906195341E+02 -0.45556372736E+02  0.13134615165E+03  0.22548138739E+03  0.17065416921E+03 0.  0.
         24    2    3    3    0    0  0.73719709723E+02  0.14073057935E+02  0.11389432668E+03  0.15841399075E+03  0.80563194160E+02 0.  0.
         -6    2    1    2    0  502 -0.48906195341E+02  0.45556372736E+02  0.24524201858E+03  0.30704275404E+03  0.17223358003E+03 0.  0.
        -24    2    5    5    0    0 -0.59747535632E+02  0.85693573758E+02  0.22457260357E+03  0.26037537483E+03  0.80307689222E+02 0.  0.
          5    1    3    3  501    0 -0.24813514382E+02 -0.59629430671E+02  0.17451824975E+02  0.67067396648E+02  0.47000000000E+01 0. -1.
        -13    1    4    4    0    0  0.17452187759E+02 -0.15407275664E+02 -0.48191614175E+01  0.23773668580E+02  0.00000000000E+00 0.  1.
         14    1    4    4    0    0  0.56267521964E+02  0.29480333599E+02  0.11871348810E+03  0.13464032217E+03  0.00000000000E+00 0. -1.
         -5    1    5    5    0  502  0.10841340291E+02 -0.40137201022E+02  0.20669415018E+02  0.46667379211E+02  0.47000000000E+01 0.  1.
         11    1    6    6    0    0  0.48947147693E+01  0.32965388516E+02  0.18633505742E+02  0.38182228967E+02  0.00000000000E+00 0. -1.
        -12    1    6    6    0    0 -0.64642250401E+02  0.52728185242E+02  0.20593909782E+03  0.22219314586E+03  0.00000000000E+00 0.  1.
</event>
<event>
12    1  0.8451514E-002  0.2296081E+03  0.7818608E-02  0.1126962E+00
         21   -1    0    0  503  502  0.00000000000E+00  0.00000000000E+00  0.43007432004E+03  0.43007432004E+03  0.00000000000E+00 0. -1.
         21   -1    0    0  501  503 -0.00000000000E+00 -0.00000000000E+00 -0.25813119612E+03  0.25813119612E+03  0.00000000000E+00 0. -1.
          6    2    1    2  501    0 -0.62520506104E+02  0.13823060025E+03 -0.16353177319E+03  0.28167963015E+03  0.17200075776E+03 0.  0.
         24    2    3    3    0    0  0.12565956199E+02  0.93821106518E+02 -0.38735828503E+02  0.12934349601E+03  0.79176841738E+02 0.  0.
         -6    2    1    2    0  502  0.62520506104E+02 -0.13823060025E+03  0.33547489711E+03  0.40652588600E+03  0.17234667641E+03 0.  0.
        -24    2    5    5    0    0  0.63033004589E+02 -0.94606053651E+02  0.11027640887E+03  0.17709220751E+03  0.79229404592E+02 0.  0.
          5    1    3    3  501    0 -0.75086462303E+02  0.44409493737E+02 -0.12479594469E+03  0.15233613414E+03  0.47000000000E+01 0. -1.
        -11    1    4    4    0    0 -0.22047086845E+02  0.77189263880E+02 -0.42367856905E+02  0.90770544757E+02  0.00000000000E+00 0.  1.
         12    1    4    4    0    0  0.34613043044E+02  0.16631842637E+02  0.36320284020E+01  0.38572951256E+02  0.00000000000E+00 0. -1.
         -5    1    5    5    0  502 -0.51249848527E+00 -0.43624546603E+02  0.22519848825E+03  0.22943367850E+03  0.47000000000E+01 0.  1.
         13    1    6    6    0    0  0.21547118850E+02 -0.63471763752E+02  0.10551421324E+03  0.12500476919E+03  0.00000000000E+00 0. -1.
        -14    1    6    6    0    0  0.41485885740E+02 -0.31134289900E+02  0.47621956253E+01  0.52087438316E+02  0.00000000000E+00 0.  1.
</event>
<event>
12    1  0.8451514E-002  0.1853574E+03  0.7818608E-02  0.1163044E+00
         21   -1    0    0  501  502  0.00000000000E+00  0.00000000000E+00  0.48261370534E+02  0.48261370534E+02  0.00000000000E+00 0.  1.
         21   -1    0    0  502  503 -0.00000000000E+00 -0.00000000000E+00 -0.75351825981E+03  0.75351825981E+03  0.00000000000E+00 0.  1.
         -6    2    1    2    0  503 -0.36692916053E+02 -0.56083073516E+02 -0.25377381005E+03  0.31425864921E+03  0.17281687044E+03 0.  0.
        -24    2    3    3    0    0 -0.27790315526E+01 -0.97954094621E+02 -0.14512868252E+03  0.19289478430E+03  0.80890887304E+02 0.  0.
          6    2    1    2  501    0  0.36692916053E+02  0.56083073516E+02 -0.45148307922E+03  0.48752098114E+03  0.17131274033E+03 0.  0.
         24    2    5    5    0    0 -0.36310377031E+02  0.11065481047E+02 -0.30277740559E+03  0.31578999440E+03  0.81291296452E+02 0.  0.
          5    1    5    5  501    0  0.73003293084E+02  0.45017592469E+02 -0.14870567363E+03  0.17173098673E+03  0.47000000000E+01 0. -1.
        -11    1    6    6    0    0  0.72091789552E+01 -0.12395628663E+02 -0.21147649392E+03  0.21196209885E+03  0.00000000000E+00 0.  1.
         12    1    6    6    0    0 -0.43519555986E+02  0.23461109710E+02 -0.91300911675E+02  0.10382789555E+03  0.00000000000E+00 0. -1.
         -5    1    3    3    0  503 -0.33913884501E+02  0.41871021105E+02 -0.10864512753E+03  0.12136386491E+03  0.47000000000E+01 0.  1.
         11    1    4    4    0    0 -0.31979487467E+02 -0.98744495036E+01 -0.29320316052E+02  0.44495767271E+02  0.00000000000E+00 0. -1.
        -12    1    4    4    0    0  0.29200455914E+02 -0.88079645118E+02 -0.11580836647E+03  0.14839901703E+03  0.00000000000E+00 0.  1.
</event>
<event>
12    1  0.8451514E-002  0.3218485E+03  0.7818608E-02  0.1074981E+00
         21   -1    0    0  503  502  0.00000000000E+00  0.00000000000E+00  0.14524986323E+04  0.14524986323E+04  0.00000000000E+00 0. -1.
         21   -1    0    0  501  503 -0.00000000000E+00 -0.00000000000E+00 -0.97430055623E+02  0.97430055623E+02  0.00000000000E+00 0.  1.
          6    2    1    2  501    0 -0.10309169332E+03 -0.25173108413E+03  0.27246826572E+03  0.42049967900E+03  0.16906977336E+03 0.  0.
         24    2    3    3    0    0 -0.18620419299E+02 -0.16696577114E+03  0.10387224290E+03  0.21369720481E+03  0.81564476025E+02 0.  0.
         -6    2    1    2    0  502  0.10309169332E+03  0.25173108413E+03  0.10826003110E+04  0.11294290089E+04  0.17201749030E+03 0.  0.
        -24    2    5    5    0    0  0.20336803199E+02  0.17303193201E+03  0.83773037450E+03  0.85919706380E+03  0.77934453423E+02 0.  0.
          5    1    3    3  501    0 -0.84471274025E+02 -0.84765312983E+02  0.16859602282E+03  0.20680247419E+03  0.47000000000E+01 0. -1.
        -11    1    4    4    0    0 -0.18935403513E+02 -0.14762908187E+03  0.11784120484E+03  0.18984057754E+03  0.00000000000E+00 0.  1.
         12    1    4    4    0    0  0.31498421427E+00 -0.19336689270E+02 -0.13968961942E+02  0.23856627271E+02  0.00000000000E+00 0. -1.
         -5    1    5    5    0  502  0.82754890125E+02  0.78699152118E+02  0.24486993646E+03  0.27023194513E+03  0.47000000000E+01 0.  1.
         11    1    6    6    0    0  0.42539995871E+02  0.15188866811E+03  0.74550590947E+03  0.76200976359E+03  0.00000000000E+00 0. -1.
        -12    1    6    6    0    0 -0.22203192672E+02  0.21143263900E+02  0.92224465024E+02  0.97187300210E+02  0.00000000000E+00 0.  1.
</event>
<event>
12    1  0.8451514E-002  0.1757740E+03  0.7818608E-02  0.1172116E+00
         21   -1    0    0  501  502  0.00000000000E+00  0.00000000000E+00  0.42814972856E+03  0.42814972856E+03  0.00000000000E+00 0.  1.
         21   -1    0    0  502  503 -0.00000000000E+00 -0.00000000000E+00 -0.84902882685E+02  0.84902882685E+02  0.00000000000E+00 0.  1.
         -6    2    1    2    0  503 -0.24036627451E+02 -0.22235076758E+02  0.71502391150E+02  0.18976060369E+03  0.17269723992E+03 0.  0.
        -24    2    3    3    0    0  0.22766410185E+02 -0.61868890712E+02  0.75151718467E+02  0.12814265882E+03  0.80166646122E+02 0.  0.
          6    2    1    2  501    0  0.24036627451E+02  0.22235076758E+02  0.27174445472E+03  0.32329200755E+03  0.17204800311E+03 0.  0.
         24    2    5    5    0    0 -0.21677489041E+02 -0.43344831911E+02  0.16853223398E+03  0.19265756577E+03  0.79781801024E+02 0.  0.
          5    1    5    5  501    0  0.45714116492E+02  0.65579908668E+02  0.10321222074E+03  0.13063444178E+03  0.47000000000E+01 0. -1.
        -11    1    6    6    0    0  0.29980189225E+02 -0.89513819041E+01  0.56534985936E+02  0.64615351262E+02  0.00000000000E+00 0.  1.
         12    1    6    6    0    0 -0.51657678266E+02 -0.34393450007E+02  0.11199724804E+03  0.12804221451E+03  0.00000000000E+00 0. -1.
         -5    1    3    3    0  503 -0.46803037636E+02  0.39633813954E+02 -0.36493273171E+01  0.61617944873E+02  0.47000000000E+01 0.  1.
         13    1    4    4    0    0 -0.89971200073E+00 -0.74167367997E+02  0.40803301369E+02  0.84655285481E+02  0.00000000000E+00 0. -1.
        -14    1    4    4    0    0  0.23666122185E+02  0.12298477285E+02  0.34348417098E+02  0.43487373339E+02  0.00000000000E+00 0.  1.
</event>
<event>
12    1  0.8451514E-002  0.2264986E+03  0.7818608E-02  0.1129195E+00
         21   -1    0    0  501  502  0.00000000000E+00  0.00000000000E+00  0.48762130674E+03  0.48762130674E+03  0.00000000000E+00 0.  1.
         21   -1    0    0  502  503 -0.00000000000E+00 -0.00000000000E+00 -0.10510545607E+03  0.10510545607E+03  0.00000000000E+00 0. -1.
         -6    2    1    2    0  503  0.47671775722E+02 -0.13957674976E+03  0.18390236695E+03  0.29175622379E+03  0.17189341544E+03 0.  0.
        -24    2    3    3    0    0 -0.26730649978E+02 -0.85387246267E+02  0.57949067104E+02  0.13568397455E+03  0.83943654301E+02 0.  0.
          6    2    1    2  501    0 -0.47671775722E+02  0.13957674976E+03  0.19861348371E+03  0.30097053903E+03  0.17141085781E+03 0.  0.
         24    2    5    5    0    0  0.40227464189E+02  0.64725166960E+02  0.96385073659E+02  0.14669230450E+03  0.80130853379E+02 0.  0.
          5    1    5    5  501    0 -0.87899239911E+02  0.74851582802E+02  0.10222841006E+03  0.15427823452E+03  0.47000000000E+01 0. -1.
        -11    1    6    6    0    0 -0.42482859464E+01 -0.94431946212E+01  0.44828877647E+02  0.46009239607E+02  0.00000000000E+00 0.  1.
         12    1    6    6    0    0  0.44475750135E+02  0.74168361581E+02  0.51556196013E+02  0.10068306490E+03  0.00000000000E+00 0. -1.
         -5    1    3    3    0  503  0.74402425700E+02 -0.54189503495E+02  0.12595329985E+03  0.15607224924E+03  0.47000000000E+01 0.  1.
         13    1    4    4    0    0 -0.39232956111E+01 -0.28013080295E+02 -0.21165985102E+02  0.35328796207E+02  0.00000000000E+00 0. -1.
        -14    1    4    4    0    0 -0.22807354367E+02 -0.57374165972E+02  0.79115052206E+02  0.10035517834E+03  0.00000000000E+00 0.  1.
</event>
<event>
12    1  0.8451514E-002  0.1986832E+03  0.7818608E-02  0.1151094E+00
         21   -1    0    0  501  502  0.00000000000E+00  0.00000000000E+00  0.71584500555E+02  0.71584500555E+02  0.00000000000E+00 0.  1.
         21   -1    0    0  502  503 -0.00000000000E+00 -0.00000000000E+00 -0.11066343556E+04  0.11066343556E+04  0.00000000000E+00 0.  1.
         -6    2    1    2    0  503 -0.69932012856E+02  0.69706404545E+02 -0.93523153703E+03  0.95587071467E+03  0.17111787181E+03 0.  0.
        -24    2    3    3    0    0 -0.86416334303E+01 -0.12485866680E+02 -0.24590917584E+03  0.25894927886E+03  0.79704652084E+02 0.  0.
          6    2    1    2  501    0  0.69932012856E+02 -0.69706404545E+02 -0.99818317999E+02  0.22234814147E+03  0.17241093396E+03 0.  0.
         24    2    5    5    0    0  0.66257789724E+02 -0.86132029587E+02 -0.13026932197E+03  0.18723895867E+03  0.79243360467E+02 0.  0.
          5    1    5    5  501    0  0.36742231318E+01  0.16425625042E+02  0.30451003972E+02  0.35109182795E+02  0.47000000000E+01 0. -1.
        -13    1    6    6    0    0  0.30866043222E+02 -0.21381240365E+02 -0.30817314376E-01  0.37548249140E+02  0.00000000000E+00 0.  1.
         14    1    6    6    0    0  0.35391746502E+02 -0.64750789222E+02 -0.13023850466E+03  0.14969070953E+03  0.00000000000E+00 0. -1.
         -5    1    3    3    0  503 -0.61290379426E+02  0.82192271226E+02 -0.68932236119E+03  0.69692143581E+03  0.47000000000E+01 0.  1.
         11    1    4    4    0    0  0.32075402487E+02 -0.11716551591E+02 -0.16348526751E+03  0.16701359741E+03  0.00000000000E+00 0. -1.
        -12    1    4    4    0    0 -0.40717035917E+02 -0.76931508911E+00 -0.82423908331E+02  0.91935681453E+02  0.00000000000E+00 0.  1.
</event>
<event>
12    1  0.8451514E-002  0.2146029E+03  0.7818608E-02  0.1138188E+00
         21   -1    0    0  501  502  0.00000000000E+00  0.00000000000E+00  0.45860306737E+03  0.45860306737E+03  0.00000000000E+00 0.  1.
         21   -1    0    0  502  503 -0.00000000000E+00 -0.00000000000E+00 -0.12019946328E+03  0.12019946328E+03  0.00000000000E+00 0.  1.
         -6    2    1    2    0  503  0.12528479540E+03 -0.19533853991E+02  0.49904678575E+02  0.21923886049E+03  0.17174792458E+03 0.  0.
        -24    2    3    3    0    0  0.61690852460E+02  0.24214520866E+02 -0.29513133454E+02  0.10839036592E+03  0.80531621615E+02 0.  0.
          6    2    1    2  501    0 -0.12528479540E+03  0.19533853991E+02  0.28849892551E+03  0.35956367016E+03  0.17313737745E+03 0.  0.
         24    2    5    5    0    0 -0.15221806702E+03 -0.88730836825E+01  0.21222127210E+03  0.27369909285E+03  0.81389517458E+02 0.  0.
          5    1    5    5  501    0  0.26933271621E+02  0.28406937674E+02  0.76277653405E+02  0.85864577313E+02  0.47000000000E+01 0. -1.
        -11    1    6    6    0    0 -0.12166836207E+03 -0.15411959485E+02  0.20895541940E+03  0.24228719760E+03  0.00000000000E+00 0.  1.
         12    1    6    6    0    0 -0.30549704949E+02  0.65388758022E+01  0.32658527021E+01  0.31411895248E+02  0.00000000000E+00 0. -1.
         -5    1    3    3    0  503  0.63593942938E+02 -0.43748374857E+02  0.79417812029E+02  0.11084849457E+03  0.47000000000E+01 0.  1.
         11    1    4    4    0    0 -0.17117711859E+02  0.17297512255E+02 -0.12938173138E+02  0.27561137743E+02  0.00000000000E+00 0. -1.
        -12    1    4    4    0    0  0.78808564320E+02  0.69170086104E+01 -0.16574960316E+02  0.80829228177E+02  0.00000000000E+00 0.  1.
</event>
<event>
12    1  0.8451514E-002  0.3179014E+03  0.7818608E-02  0.1076713E+00
         21   -1    0    0  501  502  0.00000000000E+00  0.00000000000E+00  0.11193572203E+04  0.11193572203E+04  0.00000000000E+00 0. -1.
         21   -1    0    0  502  503 -0.00000000000E+00 -0.00000000000E+00 -0.23500432900E+03  0.23500432900E+03  0.00000000000E+00 0.  1.
         -6    2    1    2    0  503  0.18798983777E+03  0.18980935150E+03 -0.89868449096E+02  0.32958424733E+03  0.17082642923E+03 0.  0.
        -24    2    3    3    0    0  0.13022191346E+03  0.11912950974E+03 -0.12654019210E+03  0.23109729466E+03  0.79018684794E+02 0.  0.
          6    2    1    2  501    0 -0.18798983777E+03 -0.18980935150E+03  0.97422134045E+03  0.10247773020E+04  0.17231810567E+03 0.  0.
         24    2    5    5    0    0 -0.16613503008E+03 -0.95544421822E+02  0.51180966664E+03  0.55232608162E+03  0.79908577836E+02 0.  0.
          5    1    5    5  501    0 -0.21854807685E+02 -0.94264929675E+02  0.46241167381E+03  0.47245122040E+03  0.47000000000E+01 0. -1.
        -11    1    6    6    0    0 -0.50237920088E+02 -0.24643298878E+02  0.67339473792E+02  0.87554243329E+02  0.00000000000E+00 0.  1.
         12    1    6    6    0    0 -0.11589711000E+03 -0.70901122944E+02  0.44447019285E+03  0.46477183829E+03  0.00000000000E+00 0. -1.
         -5    1    3    3    0  503  0.57767924305E+02  0.70679841758E+02  0.36671743009E+02  0.98486952662E+02  0.47000000000E+01 0.  1.
         13    1    4    4    0    0  0.39425607927E+02  0.53157638279E+01 -0.25541709672E+01  0.39864265888E+02  0.00000000000E+00 0. -1.
        -14    1    4    4    0    0  0.90796305537E+02  0.11381374591E+03 -0.12398602114E+03  0.19123302878E+03  0.00000000000E+00 0.  1.
</event>
<event>
12    1  0.8451514E-002  0.2218046E+03  0.7818608E-02  0.1133603E+00
         21   -1    0    0  501  502  0.00000000000E+00  0.00000000000E+00  0.33448930914E+03  0.33448930914E+03  0.00000000000E+00 0. -1.
         21   -1    0    0  502  503 -0.00000000000E+00 -0.00000000000E+00 -0.14620056556E+03  0.14620056556E+03  0.00000000000E+00 0. -1.
         -6    2    1    2    0  503 -0.35030753263E+02  0.13632725541E+03  0.12648847160E+03  0.25043661172E+03  0.16403319420E+03 0.  0.
        -24    2    3    3    0    0 -0.82816246716E+02  0.74390473007E+02  0.70711086661E+02  0.15424500570E+03  0.79993692323E+02 0.  0.
          6    2    1    2  501    0  0.35030753263E+02 -0.13632725541E+03  0.61800271982E+02  0.23025326299E+03  0.17142058586E+03 0.  0.
         24    2    5    5    0    0  0.23336197264E+02 -0.30046681292E+02 -0.25594392527E+02  0.92078589261E+02  0.79849937458E+02 0.  0.
          5    1    5    5  501    0  0.11694555999E+02 -0.10628057412E+03  0.87394664509E+02  0.13817467373E+03  0.47000000000E+01 0. -1.
        -13    1    6    6    0    0 -0.20250598366E+02  0.13427546449E+02 -0.17595110925E+02  0.29999561102E+02  0.00000000000E+00 0.  1.
         14    1    6    6    0    0  0.43586795631E+02 -0.43474227741E+02 -0.79992816015E+01  0.62079028159E+02  0.00000000000E+00 0. -1.
         -5    1    3    3    0  503  0.47785493452E+02  0.61936782402E+02  0.55777384939E+02  0.96191606024E+02  0.47000000000E+01 0.  1.
         13    1    4    4    0    0 -0.35029978629E+02  0.81486986084E+02  0.43341234551E+02  0.98720265985E+02  0.00000000000E+00 0. -1.
        -14    1    4    4    0    0 -0.47786268087E+02 -0.70965130771E+01  0.27369852110E+02  0.55524739712E+02  0.00000000000E+00 0.  1.
</event>
<event>
12    1  0.8451514E-002  0.1944421E+03  0.7818608E-02  0.1155065E+00
         21   -1    0    0  501  502  0.00000000000E+00  0.00000000000E+00  0.25652944803E+03  0.25652944803E+03  0.00000000000E+00 0.  1.
         21   -1    0    0  502  503 -0.00000000000E+00 -0.00000000000E+00 -0.14550402203E+03  0.14550402203E+03  0.00000000000E+00 0. -1.
         -6    2    1    2    0  503  0.89622481688E+01 -0.94185588330E+02  0.54153366243E+02  0.20184231893E+03  0.16987197442E+03 0.  0.
        -24    2    3    3    0    0 -0.42979399008E+01 -0.12645044361E+03  0.17559300074E+02  0.15106762885E+03  0.80653037696E+02 0.  0.
          6    2    1    2  501    0 -0.89622481688E+01  0.94185588330E+02  0.56872059757E+02  0.20019115114E+03  0.16700544563E+03 0.  0.
         24    2    5    5    0    0 -0.38695050919E+02  0.11820869209E+03  0.64782094942E+02  0.16087438969E+03  0.78824156088E+02 0.  0.
          5    1    5    5  501    0  0.29732802750E+02 -0.24023103761E+02 -0.79100351844E+01  0.39316761442E+02  0.47000000000E+01 0. -1.
        -11    1    6    6    0    0 -0.57731488493E+02  0.56951480700E+02  0.22903306777E+02  0.84267178539E+02  0.00000000000E+00 0.  1.
         12    1    6    6    0    0  0.19036437574E+02  0.61257211390E+02  0.41878788164E+02  0.76607211155E+02  0.00000000000E+00 0. -1.
         -5    1    3    3    0  503  0.13260188070E+02  0.32264855281E+02  0.36594066168E+02  0.50774690080E+02  0.47000000000E+01 0.  1.
         13    1    4    4    0    0 -0.27955506092E+02 -0.46261261934E+02 -0.22268807383E+02  0.58459511278E+02  0.00000000000E+00 0. -1.
        -14    1    4    4    0    0  0.23657566191E+02 -0.80189181677E+02  0.39828107457E+02  0.92608117569E+02  0.00000000000E+00 0.  1.
</event>
<event>
12    1  0.8451514E-002  0.2030168E+03  0.7818608E-02  0.1147432E+00
         21   -1    0    0  501  502  0.00000000000E+00  0.00000000000E+00  0.76243485994E+02  0.76243485994E+02  0.00000000000E+00 0. -1.
         21   -1    0    0  502  503 -0.00000000000E+00 -0.00000000000E+00 -0.17161314141E+04  0.17161314141E+04  0.00000000000E+00 0.  1.
         -6    2    1    2    0  503  0.35593322853E+02 -0.10143039101E+03 -0.15618804530E+04  0.15748869841E+04  0.17100717591E+03 0.  0.
        -24    2    3    3    0    0 -0.30844977508E+02 -0.74262243485E+02 -0.63807823502E+03  0.64828848203E+03  0.81656772436E+02 0.  0.
          6    2    1    2  501    0 -0.35593322853E+02  0.10143039101E+03 -0.78007475117E+02  0.21748791606E+03  0.17222316512E+03 0.  0.
         24    2    5    5    0    0 -0.42994471108E+02  0.12441996544E+03 -0.20496651237E+02  0.15493487943E+03  0.79093942907E+02 0.  0.
          5    1    5    5  501    0  0.74011482553E+01 -0.22989574431E+02 -0.57510823881E+02  0.62553036629E+02  0.47000000000E+01 0. -1.
        -13    1    6    6    0    0  0.23189697267E+02  0.25853402662E+02 -0.71885922790E+01  0.35465988601E+02  0.00000000000E+00 0.  1.
         14    1    6    6    0    0 -0.66184168375E+02  0.98566562781E+02 -0.13308058958E+02  0.11946889083E+03  0.00000000000E+00 0. -1.
         -5    1    3    3    0  503  0.66438300361E+02 -0.27168147526E+02 -0.92380221801E+03  0.92659850205E+03  0.47000000000E+01 0.  1.
         13    1    4    4    0    0 -0.49711098288E+01  0.54280363637E+00  0.31153689556E+00  0.50103516798E+01  0.00000000000E+00 0. -1.
        -14    1    4    4    0    0 -0.25873867679E+02 -0.74805047122E+02 -0.63838977192E+03  0.64327813035E+03  0.00000000000E+00 0.  1.
</event>
<event>
12    1  0.8451514E-002  0.1775239E+03  0.7818608E-02  0.1170365E+00
         21   -1    0    0  501  502  0.00000000000E+00  0.00000000000E+00  0.50131975902E+02  0.50131975902E+02  0.00000000000E+00 0.  1.
         21   -1    0    0  502  503 -0.00000000000E+00 -0.00000000000E+00 -0.12496155485E+04  0.12496155485E+04  0.00000000000E+00 0.  1.
         -6    2    1    2    0  503 -0.25396580544E+02  0.35462476506E+02 -0.10581279252E+04  0.10728199062E+04  0.17147965337E+03 0.  0.
        -24    2    3    3    0    0  0.16142461044E+02 -0.45535326457E+02 -0.32637064330E+03  0.33540757537E+03  0.60385427060E+02 0.  0.
          6    2    1    2  501    0  0.25396580544E+02 -0.35462476506E+02 -0.14135564744E+03  0.22692761823E+03  0.17208181575E+03 0.  0.
         24    2    5    5    0    0  0.54598105462E+02 -0.71324934070E+01 -0.20726890625E+02  0.99535687681E+02  0.80286509110E+02 0.  0.
          5    1    5    5  501    0 -0.29201524918E+02 -0.28329983099E+02 -0.12062875681E+03  0.12739193055E+03  0.47000000000E+01 0. -1.
        -13    1    6    6    0    0  0.54041963990E+02 -0.35568616119E+02 -0.61140292460E+00  0.64699568299E+02  0.00000000000E+00 0.  1.
         14    1    6    6    0    0  0.55614147210E+00  0.28436122712E+02 -0.20115487700E+02  0.34836119383E+02  0.00000000000E+00 0. -1.
         -5    1    3    3    0  503 -0.41539041588E+02  0.80997802963E+02 -0.73175728190E+03  0.73741233084E+03  0.47000000000E+01 0.  1.
         11    1    4    4    0    0  0.20251003886E+02 -0.24172314070E+02 -0.56848432192E+02  0.65008831466E+02  0.00000000000E+00 0. -1.
        -12    1    4    4    0    0 -0.41085428422E+01 -0.21363012387E+02 -0.26952221111E+03  0.27039874390E+03  0.00000000000E+00 0.  1.
</event>
<event>
12    1  0.8451514E-002  0.1879622E+03  0.7818608E-02  0.1160679E+00
         21   -1    0    0  503  502  0.00000000000E+00  0.00000000000E+00  0.76564164861E+02  0.76564164861E+02  0.00000000000E+00 0.  1.
         21   -1    0    0  501  503 -0.00000000000E+00 -0.00000000000E+00 -0.56742293809E+03  0.56742293809E+03  0.00000000000E+00 0.  1.
          6    2    1    2  501    0  0.68892996516E+02  0.26461299619E+02 -0.38628993530E+03  0.42889544426E+03  0.17112843903E+03 0.  0.
         24    2    3    3    0    0  0.74352372260E+02  0.71609168810E+02 -0.33771823233E+03  0.36219135739E+03  0.80453878705E+02 0.  0.
         -6    2    1    2    0  502 -0.68892996516E+02 -0.26461299619E+02 -0.10456883793E+03  0.21509165869E+03  0.17286796819E+03 0.  0.
        -24    2    5    5    0    0 -0.81504159773E+02 -0.60792111550E+02 -0.11729356976E+03  0.17608326361E+03  0.83119945446E+02 0.  0.
          5    1    3    3  501    0 -0.54593757432E+01 -0.45147869191E+02 -0.48571702970E+02  0.66704086872E+02  0.47000000000E+01 0. -1.
        -11    1    4    4    0    0  0.75547285810E+02  0.20656192601E+02 -0.23124643005E+03  0.24414950768E+03  0.00000000000E+00 0.  1.
         12    1    4    4    0    0 -0.11949135504E+01  0.50952976209E+02 -0.10647180228E+03  0.11804184971E+03  0.00000000000E+00 0. -1.
         -5    1    5    5    0  502  0.12611163257E+02  0.34330811932E+02  0.12724731830E+02  0.39008395080E+02  0.47000000000E+01 0.  1.
         13    1    6    6    0    0 -0.12239007371E+02 -0.58193038720E+02 -0.71550588674E+02  0.93036067181E+02  0.00000000000E+00 0. -1.
        -14    1    6    6    0    0 -0.69265152402E+02 -0.25990728301E+01 -0.45742981087E+02  0.83047196434E+02  0.00000000000E+00 0.  1.
</event>
<event>
12    1  0.8451514E-002  0.2800422E+03  0.7818608E-02  0.1095739E+00
         21   -1    0    0  501  502  0.00000000000E+00  0.00000000000E+00  0.58352923902E+03  0.58352923902E+03  0.00000000000E+00 0.  1.
         21   -1    0    0  502  503 -0.00000000000E+00 -0.00000000000E+00 -0.15879574626E+03  0.15879574626E+03  0.00000000000E+00 0. -1.
         -6    2    1    2    0  503  0.54041203636E+02 -0.21556206010E+03  0.66281915750E+02  0.28777925302E+03  0.17039997849E+03 0.  0.
        -24    2    3    3    0    0  0.85135921557E+02 -0.20745981094E+03  0.32614932297E+02  0.24100229610E+03  0.82040688830E+02 0.  0.
          6    2    1    2  501    0 -0.54041203636E+02  0.21556206010E+03  0.35845157702E+03  0.45454573226E+03  0.16951942722E+03 0.  0.
         24    2    5    5    0    0  0.23416888078E+02  0.96363444449E+02  0.13343727928E+03  0.18834732857E+03  0.88515222432E+02 0.  0.
          5    1    5    5  501    0 -0.77458091714E+02  0.11919861565E+03  0.22501429773E+03  0.26619840369E+03  0.47000000000E+01 0. -1.
        -11    1    6    6    0    0 -0.13068993013E+02  0.51218247849E+02  0.11642047841E+03  0.12785865353E+03  0.00000000000E+00 0.  1.
         12    1    6    6    0    0  0.36485881091E+02  0.45145196600E+02  0.17016800875E+02  0.60488675031E+02  0.00000000000E+00 0. -1.
         -5    1    3    3    0  503 -0.31094717920E+02 -0.81022491607E+01  0.33666983454E+02  0.46776956922E+02  0.47000000000E+01 0.  1.
         13    1    4    4    0    0  0.97602138832E+02 -0.18962336823E+03  0.16463885622E+02  0.21390245163E+03  0.00000000000E+00 0. -1.
        -14    1    4    4    0    0 -0.12466217276E+02 -0.17836442705E+02  0.16151046674E+02  0.27099844468E+02  0.00000000000E+00 0.  1.
</event>
<event>
12    1  0.8451514E-002  0.2468200E+03  0.7818608E-02  0.1115400E+00
         21   -1    0    0  501  502  0.00000000000E+00  0.00000000000E+00  0.16466281625E+03  0.16466281625E+03  0.00000000000E+00 0.  1.
         21   -1    0    0  502  503 -0.00000000000E+00 -0.00000000000E+00 -0.53901780164E+03  0.53901780164E+03  0.00000000000E+00 0.  1.
         -6    2    1    2    0  503  0.16674806213E+03  0.58942202383E+02 -0.38469878898E+03  0.45707032138E+03  0.17216567892E+03 0.  0.
        -24    2    3    3    0    0  0.56803629910E+02  0.49192319321E+02 -0.96967721493E+02  0.14885919959E+03  0.84319544832E+02 0.  0.
          6    2    1    2  501    0 -0.16674806213E+03 -0.58942202383E+02  0.10343803601E+02  0.24661029650E+03  0.17155332880E+03 0.  0.
         24    2    5    5    0    0 -0.16135161645E+03 -0.95763992705E+02  0.27697530129E+02  0.20527982720E+03  0.78533864345E+02 0.  0.
          5    1    5    5  501    0 -0.53964456797E+01  0.36821790323E+02 -0.17353726528E+02  0.41330469305E+02  0.47000000000E+01 0. -1.
        -13    1    6    6    0    0 -0.10738465075E+03 -0.77272419754E+02  0.53453890693E+02  0.14268780082E+03  0.00000000000E+00 0.  1.
         14    1    6    6    0    0 -0.53966965699E+02 -0.18491572951E+02 -0.25756360564E+02  0.62592026381E+02  0.00000000000E+00 0. -1.
         -5    1    3    3    0  503  0.10994443222E+03  0.97498830615E+01 -0.28773106749E+03  0.30821112179E+03  0.47000000000E+01 0.  1.
         13    1    4    4    0    0  0.19672819535E+01 -0.22198744672E+02 -0.13251830284E+02  0.25928082636E+02  0.00000000000E+00 0. -1.
        -14    1    4    4    0    0  0.54836347956E+02  0.71391063993E+02 -0.83715891209E+02  0.12293111696E+03  0.00000000000E+00 0.  1.
</event>
<event>
12    1  0.8451514E-002  0.1801425E+03  0.7818608E-02  0.1167717E+00
         21   -1    0    0  503  502  0.00000000000E+00  0.00000000000E+00  0.19593144272E+04  0.19593144272E+04  0.00000000000E+00 0.  1.
         21   -1    0    0  501  503 -0.00000000000E+00 -0.00000000000E+00 -0.42464966493E+02  0.42464966493E+02  0.00000000000E+00 0.  1.
          6    2    1    2  501    0 -0.40057883913E+02 -0.34287672673E+02  0.17664845079E+03  0.25230142495E+03  0.17225288185E+03 0.  0.
         24    2    3    3    0    0  0.23121489630E+02  0.23917884690E+02  0.53073256787E+02  0.10172772631E+03  0.80156666744E+02 0.  0.
         -6    2    1    2    0  502  0.40057883913E+02  0.34287672673E+02  0.17402010100E+04  0.17494779688E+04  0.17202711889E+03 0.  0.
        -24    2    5    5    0    0  0.84496641868E+02  0.78487182297E+00  0.61540160734E+03  0.62329280328E+03  0.51327203213E+02 0.  0.
          5    1    3    3  501    0 -0.63179373543E+02 -0.58205557363E+02  0.12357519400E+03  0.15057369864E+03  0.47000000000E+01 0. -1.
        -11    1    4    4    0    0  0.35090984223E+01 -0.19830810409E+02 -0.10013123867E+02  0.22490830638E+02  0.00000000000E+00 0.  1.
         12    1    4    4    0    0  0.19612391208E+02  0.43748695099E+02  0.63086380654E+02  0.79236895672E+02  0.00000000000E+00 0. -1.
         -5    1    5    5    0  502 -0.44438757955E+02  0.33502800850E+02  0.11247994026E+04  0.11261851655E+04  0.47000000000E+01 0.  1.
         11    1    6    6    0    0  0.42383346810E+02  0.20041741723E+02  0.20530554467E+03  0.21059056524E+03  0.00000000000E+00 0. -1.
        -12    1    6    6    0    0  0.42113295058E+02 -0.19256869900E+02  0.41009606268E+03  0.41270223804E+03  0.00000000000E+00 0.  1.
</event>
<event>
12    1  0.8451514E-002  0.1919822E+03  0.7818608E-02  0.1157145E+00
         21   -1    0    0  503  502  0.00000000000E+00  0.00000000000E+00  0.50654579923E+03  0.50654579923E+03  0.00000000000E+00 0. -1.
         21   -1    0    0  501  503 -0.00000000000E+00 -0.00000000000E+00 -0.19869679422E+03  0.19869679422E+03  0.00000000000E+00 0. -1.
          6    2    1    2  501    0  0.52708702327E+02  0.64758856354E+02 -0.12736658764E+03  0.23038968884E+03  0.17287349218E+03 0.  0.
         24    2    3    3    0    0 -0.23480133686E+02  0.79674279523E+02 -0.64112943183E+02  0.13013839399E+03  0.76981975884E+02 0.  0.
         -6    2    1    2    0  502 -0.52708702327E+02 -0.64758856354E+02  0.43521559265E+03  0.47485290461E+03  0.17058942568E+03 0.  0.
        -24    2    5    5    0    0 -0.45196360210E+02 -0.56134367907E+02  0.12786181787E+03  0.16725048271E+03  0.80189159255E+02 0.  0.
          5    1    3    3  501    0  0.76188836013E+02 -0.14915423169E+02 -0.63253644457E+02  0.10025129485E+03  0.47000000000E+01 0. -1.
        -11    1    4    4    0    0 -0.44205874636E+02  0.17233888783E+02 -0.25886370743E+02  0.54048778573E+02  0.00000000000E+00 0.  1.
         12    1    4    4    0    0  0.20725740950E+02  0.62440390739E+02 -0.38226572440E+02  0.76089615416E+02  0.00000000000E+00 0. -1.
         -5    1    5    5    0  502 -0.75123421177E+01 -0.86244884464E+01  0.30735377478E+03  0.30760242190E+03  0.47000000000E+01 0.  1.
         11    1    6    6    0    0 -0.87729854366E+01 -0.92128767611E+01  0.10144869510E+03  0.10224323992E+03  0.00000000000E+00 0. -1.
        -12    1    6    6    0    0 -0.36423374773E+02 -0.46921491146E+02  0.26413122772E+02  0.65007242795E+02  0.00000000000E+00 0.  1.
</event>
<event>
12    1  0.8451514E-002  0.2421002E+03  0.7818608E-02  0.1118500E+00
         21   -1    0    0  501  502  0.00000000000E+00  0.00000000000E+00  0.28795671661E+03  0.28795671661E+03  0.00000000000E+00 0.  1.
         21   -1    0    0  502  503 -0.00000000000E+00 -0.00000000000E+00 -0.20418687112E+03  0.20418687112E+03  0.00000000000E+00 0. -1.
         -6    2    1    2    0  503  0.16818726036E+03  0.89609241143E+01  0.23524827658E+02  0.24324045437E+03  0.17391161094E+03 0.  0.
        -24    2    3    3    0    0  0.15200079725E+03 -0.48534268635E+02 -0.44711135774E+01  0.17710754650E+03  0.76728577313E+02 0.  0.
          6    2    1    2  501    0 -0.16818726036E+03 -0.89609241143E+01  0.60245017832E+02  0.24890313335E+03  0.17307817572E+03 0.  0.
         24    2    5    5    0    0 -0.10707162118E+03 -0.56159817452E+02  0.84474888542E+02  0.16783505382E+03  0.80089583204E+02 0.  0.
          5    1    5    5  501    0 -0.61115639183E+02  0.47198893338E+02 -0.24229870710E+02  0.81068079536E+02  0.47000000000E+01 0. -1.
        -11    1    6    6    0    0 -0.49596841576E+02  0.33714244057E+01  0.66719964825E+02  0.83203166425E+02  0.00000000000E+00 0.  1.
         12    1    6    6    0    0 -0.57474779600E+02 -0.59531241858E+02  0.17754923717E+02  0.84631887391E+02  0.00000000000E+00 0. -1.
         -5    1    3    3    0  503  0.16186463113E+02  0.57495192749E+02  0.27995941235E+02  0.66132907867E+02  0.47000000000E+01 0.  1.
         11    1    4    4    0    0  0.54687154161E+02  0.50190720503E+01  0.27643548303E+02  0.61482043535E+02  0.00000000000E+00 0. -1.
        -12    1    4    4    0    0  0.97313643085E+02 -0.53553340685E+02 -0.32114661880E+02  0.11562550297E+03  0.00000000000E+00 0.  1.
</event>
<event>
12    1  0.8451514E-002  0.2325537E+03  0.7818608E-02  0.1125190E+00
         21   -1    0    0  501  502  0.00000000000E+00  0.00000000000E+00  0.95711533746E+02  0.95711533746E+02  0.00000000000E+00 0. -1.
         21   -1    0    0  502  503 -0.00000000000E+00 -0.00000000000E+00 -0.74036906711E+03  0.74036906711E+03  0.00000000000E+00 0. -1.
         -6    2    1    2    0  503 -0.22880520607E+02  0.15498987822E+03 -0.52743280408E+03  0.57565234257E+03  0.16924797224E+03 0.  0.
        -24    2    3    3    0    0 -0.26474225499E+02  0.97346319695E+01 -0.22495171320E+03  0.24005004577E+03  0.78899325250E+02 0.  0.
          6    2    1    2  501    0  0.22880520607E+02 -0.15498987822E+03 -0.11722472927E+03  0.26042825828E+03  0.17186000112E+03 0.  0.
         24    2    5    5    0    0 -0.29017781650E+02 -0.26431640127E+02 -0.80558611892E+02  0.11694603457E+03  0.75140014634E+02 0.  0.
          5    1    5    5  501    0  0.51898302257E+02 -0.12855823809E+03 -0.36666117383E+02  0.14348222372E+03  0.47000000000E+01 0. -1.
        -11    1    6    6    0    0  0.87651106513E+01  0.21574462594E+02 -0.27454739380E+02  0.36000657152E+02  0.00000000000E+00 0.  1.
         12    1    6    6    0    0 -0.37782892301E+02 -0.48006102721E+02 -0.53103872512E+02  0.80945377415E+02  0.00000000000E+00 0. -1.
         -5    1    3    3    0  503  0.35937048920E+01  0.14525524625E+03 -0.30248109088E+03  0.33560229680E+03  0.47000000000E+01 0.  1.
         11    1    4    4    0    0  0.96378510422E+01 -0.19542724794E+02 -0.15193612569E+03  0.15349069208E+03  0.00000000000E+00 0. -1.
        -12    1    4    4    0    0 -0.36112076541E+02  0.29277356764E+02 -0.73015587513E+02  0.86559353689E+02  0.00000000000E+00 0.  1.
</event>
<event>
12    1  0.8451514E-002  0.2086565E+03  0.7818608E-02  0.1142804E+00
         21   -1    0    0  501  502  0.00000000000E+00  0.00000000000E+00  0.28155936056E+03  0.28155936056E+03  0.00000000000E+00 0. -1.
         21   -1    0    0  502  503 -0.00000000000E+00 -0.00000000000E+00 -0.18144150824E+03  0.18144150824E+03  0.00000000000E+00 0. -1.
         -6    2    1    2    0  503 -0.68436285967E+02 -0.95404280462E+02 -0.40050822429E+02  0.21163500703E+03  0.17146371585E+03 0.  0.
        -24    2    3    3    0    0 -0.20464739260E+02  0.15678710866E+02  0.91482785913E+00  0.83803184857E+02  0.79733991213E+02 0.  0.
          6    2    1    2  501    0  0.68436285967E+02  0.95404280462E+02  0.14016867474E+03  0.25136586177E+03  0.17248778832E+03 0.  0.
         24    2    5    5    0    0  0.80017789448E+01 -0.30725277956E+01  0.10156157156E+03  0.12945355796E+03  0.79812292029E+02 0.  0.
          5    1    5    5  501    0  0.60434507022E+02  0.98476808258E+02  0.38607103183E+02  0.12191230381E+03  0.47000000000E+01 0. -1.
        -11    1    6    6    0    0 -0.18190320701E+02  0.24684061776E+02  0.13548211082E+02  0.33522301480E+02  0.00000000000E+00 0.  1.
         12    1    6    6    0    0  0.26192099646E+02 -0.27756589572E+02  0.88013360475E+02  0.95931256484E+02  0.00000000000E+00 0. -1.
         -5    1    3    3    0  503 -0.47971546707E+02 -0.11108299133E+03 -0.40965650288E+02  0.12783182217E+03  0.47000000000E+01 0.  1.
         11    1    4    4    0    0 -0.24808013625E+02 -0.24392757737E+02 -0.18121274984E+02  0.39227857156E+02  0.00000000000E+00 0. -1.
        -12    1    4    4    0    0  0.43432743654E+01  0.40071468603E+02  0.19036102843E+02  0.44575327701E+02  0.00000000000E+00 0.  1.
</event>
<event>
12    1  0.8451514E-002  0.1761198E+03  0.7818608E-02  0.1172561E+00
         21   -1    0    0  503  502  0.00000000000E+00  0.00000000000E+00  0.12667779269E+03  0.12667779269E+03  0.00000000000E+00 0.  1.
         21   -1    0    0  501  503 -0.00000000000E+00 -0.00000000000E+00 -0.31446369185E+03  0.31446369185E+03  0.00000000000E+00 0.  1.
          6    2    1    2  501    0 -0.14853362309E+02  0.37925271532E+02 -0.20070071218E+03  0.26454884252E+03  0.16747049177E+03 0.  0.
         24    2    3    3    0    0 -0.50296014432E+02 -0.47395641158E+01 -0.57497880722E+02  0.11090766728E+03  0.80264262518E+02 0.  0.
         -6    2    1    2    0  502  0.14853362309E+02 -0.37925271532E+02  0.12914813025E+02  0.17659264202E+03  0.17134532450E+03 0.  0.
        -24    2    5    5    0    0  0.94302365335E+00  0.37680419808E+02  0.39226712847E+02  0.95203919478E+02  0.78130326715E+02 0.  0.
          5    1    3    3  501    0  0.35442652123E+02  0.42664835647E+02 -0.14320283146E+03  0.15364117524E+03  0.47000000000E+01 0. -1.
        -13    1    4    4    0    0  0.19210063664E+02  0.98672518070E+01 -0.24293924184E+02  0.32505137385E+02  0.00000000000E+00 0.  1.
         14    1    4    4    0    0 -0.69506078096E+02 -0.14606815923E+02 -0.33203956538E+02  0.78402529892E+02  0.00000000000E+00 0. -1.
         -5    1    5    5    0  502  0.13910338656E+02 -0.75605691339E+02 -0.26311899823E+02  0.81388722540E+02  0.47000000000E+01 0.  1.
         11    1    6    6    0    0  0.17132335527E+01  0.20068055472E+02 -0.22974291271E+02  0.30552906229E+02  0.00000000000E+00 0. -1.
        -12    1    6    6    0    0 -0.77020989936E+00  0.17612364335E+02  0.62201004118E+02  0.64651013249E+02  0.00000000000E+00 0.  1.
</event>
<event>
12    1  0.8451514E-002  0.1905509E+03  0.7818608E-02  0.1158673E+00
         21   -1    0    0  503  502  0.00000000000E+00  0.00000000000E+00  0.12213826406E+04  0.12213826406E+04  0.00000000000E+00 0.  1.
         21   -1    0    0  501  503 -0.00000000000E+00 -0.00000000000E+00 -0.66909900983E+02  0.66909900983E+02  0.00000000000E+00 0.  1.
          6    2    1    2  501    0 -0.32691282925E+02 -0.74992982110E+02  0.96026010450E+02  0.21337910537E+03  0.17209584707E+03 0.  0.
         24    2    3    3    0    0 -0.43811998244E+02 -0.10384280509E+02 -0.46379384515E+01  0.93157330135E+02  0.81421454255E+02 0.  0.
         -6    2    1    2    0  502  0.32691282925E+02  0.74992982110E+02  0.10584467291E+04  0.10749134362E+04  0.16863199436E+03 0.  0.
        -24    2    5    5    0    0  0.41899172802E+02  0.49681399013E+02  0.32112470283E+03  0.33708464714E+03  0.79254037599E+02 0.  0.
          5    1    3    3  501    0  0.11120715320E+02 -0.64608701601E+02  0.10066394890E+03  0.12022177523E+03  0.47000000000E+01 0. -1.
        -11    1    4    4    0    0 -0.61660660482E+02  0.12938864957E+02  0.20478144407E+01  0.63036852884E+02  0.00000000000E+00 0.  1.
         12    1    4    4    0    0  0.17848662238E+02 -0.23323145466E+02 -0.66857528922E+01  0.30120477252E+02  0.00000000000E+00 0. -1.
         -5    1    5    5    0  502 -0.92078898770E+01  0.25311583097E+02  0.73732202630E+03  0.73782878905E+03  0.47000000000E+01 0.  1.
         11    1    6    6    0    0  0.20034064715E+02 -0.17798765767E+02  0.48809258544E+02  0.55682165291E+02  0.00000000000E+00 0. -1.
        -12    1    6    6    0    0  0.21865108087E+02  0.67480164780E+02  0.27231544429E+03  0.28140248185E+03  0.00000000000E+00 0.  1.
</event>
<event>
12    1  0.8451514E-002  0.1998236E+03  0.7818608E-02  0.1149955E+00
         21   -1    0    0  501  502  0.00000000000E+00  0.00000000000E+00  0.58378911166E+03  0.58378911166E+03  0.00000000000E+00 0. -1.
         21   -1    0    0  502  503 -0.00000000000E+00 -0.00000000000E+00 -0.10235086331E+03  0.10235086331E+03  0.00000000000E+00 0. -1.
         -6    2    1    2    0  503  0.10026941873E+03  0.33221139457E+01  0.43850491821E+03  0.48175621071E+03  0.17244561604E+03 0.  0.
        -24    2    3    3    0    0  0.11149755954E+03  0.21852493034E+01  0.44649942659E+03  0.46714916544E+03  0.80188052315E+02 0.  0.
          6    2    1    2  501    0 -0.10026941873E+03 -0.33221139457E+01  0.42933330143E+02  0.20438376425E+03  0.17281336603E+03 0.  0.
         24    2    5    5    0    0 -0.74643730593E+02 -0.28147715148E+02  0.91209832201E+02  0.14417000322E+03  0.78113865301E+02 0.  0.
          5    1    5    5  501    0 -0.25625688135E+02  0.24825601202E+02 -0.48276502058E+02  0.60213761038E+02  0.47000000000E+01 0. -1.
        -11    1    6    6    0    0  0.15942118082E+02  0.16363123850E+01  0.16789135310E+02  0.23209991633E+02  0.00000000000E+00 0.  1.
         12    1    6    6    0    0 -0.90585848675E+02 -0.29784027533E+02  0.74420696891E+02  0.12096001158E+03  0.00000000000E+00 0. -1.
         -5    1    3    3    0  503 -0.11228140814E+02  0.11368646422E+01 -0.79945083747E+01  0.14607045269E+02  0.47000000000E+01 0.  1.
         13    1    4    4    0    0  0.79471072891E+02  0.38992528386E+02  0.28214007780E+03  0.29570101826E+03  0.00000000000E+00 0. -1.
        -14    1    4    4    0    0  0.32026486651E+02 -0.36807279082E+02  0.16435934878E+03  0.17144814718E+03  0.00000000000E+00 0.  1.
</event>
<event>
12    1  0.8451514E-002  0.2061798E+03  0.7818608E-02  0.1144760E+00
         21   -1    0    0  503  502  0.00000000000E+00  0.00000000000E+00  0.42306788162E+03  0.42306788162E+03  0.00000000000E+00 0.  1.
         21   -1    0    0  501  503 -0.00000000000E+00 -0.00000000000E+00 -0.11721741406E+03  0.11721741406E+03  0.00000000000E+00 0. -1.
          6    2    1    2  501    0  0.76121585688E+02 -0.83418529112E+02  0.49672099081E+02  0.21144267737E+03  0.17171936868E+03 0.  0.
         24    2    3    3    0    0  0.66299016839E+02 -0.41941491230E+02  0.96995566652E+02  0.14758010529E+03  0.78848584051E+02 0.  0.
         -6    2    1    2    0  502 -0.76121585688E+02  0.83418529112E+02  0.25617836848E+03  0.32884261831E+03  0.17250207051E+03 0.  0.
        -24    2    5    5    0    0  0.28100084922E+02  0.43785488581E+02  0.11926474430E+03  0.15220636775E+03  0.78967812214E+02 0.  0.
          5    1    3    3  501    0  0.98225688492E+01 -0.41477037882E+02 -0.47323467571E+02  0.63862572084E+02  0.47000000000E+01 0. -1.
        -11    1    4    4    0    0  0.83262339284E+02 -0.37068120632E+02  0.68305886961E+02  0.11389625500E+03  0.00000000000E+00 0.  1.
         12    1    4    4    0    0 -0.16963322445E+02 -0.48733705983E+01  0.28689679691E+02  0.33683850286E+02  0.00000000000E+00 0. -1.
         -5    1    5    5    0  502 -0.10422167061E+03  0.39633040530E+02  0.13691362418E+03  0.17663625056E+03  0.47000000000E+01 0.  1.
         11    1    6    6    0    0  0.95767655206E+01  0.65398603056E+02  0.82639592459E+02  0.10582057438E+03  0.00000000000E+00 0. -1.
        -12    1    6    6    0    0  0.18523319402E+02 -0.21613114475E+02  0.36625151844E+02  0.46385793370E+02  0.00000000000E+00 0.  1.
</event>
<event>
12    1  0.8451514E-002  0.1923394E+03  0.7818608E-02  0.1156391E+00
         21   -1    0    0  501  502  0.00000000000E+00  0.00000000000E+00  0.49323070095E+03  0.49323070095E+03  0.00000000000E+00 0. -1.
         21   -1    0    0  502  503 -0.00000000000E+00 -0.00000000000E+00 -0.24766093721E+03  0.24766093721E+03  0.00000000000E+00 0. -1.
         -6    2    1    2    0  503  0.45023277972E+01  0.84482666041E+02 -0.18654625180E+03  0.26794396353E+03  0.17273352806E+03 0.  0.
        -24    2    3    3    0    0 -0.16591965259E+02 -0.16327605597E+02 -0.11666919047E+03  0.14339448033E+03  0.80052438862E+02 0.  0.
          6    2    1    2  501    0 -0.45023277972E+01 -0.84482666041E+02  0.43211601554E+03  0.47294767463E+03  0.17261998793E+03 0.  0.
         24    2    5    5    0    0 -0.14458308395E+02 -0.35251988749E+02  0.85229369348E+02  0.12241206097E+03  0.79176523535E+02 0.  0.
          5    1    5    5  501    0  0.99559805976E+01 -0.49230677293E+02  0.34688664619E+03  0.35053561366E+03  0.47000000000E+01 0. -1.
        -13    1    6    6    0    0  0.24740074102E+02 -0.16372941032E+02  0.35645767577E+01  0.29880606957E+02  0.00000000000E+00 0.  1.
         14    1    6    6    0    0 -0.39198382497E+02 -0.18879047716E+02  0.81664792590E+02  0.92531454013E+02  0.00000000000E+00 0. -1.
         -5    1    3    3    0  503  0.21094293056E+02  0.10081027164E+03 -0.69877061326E+02  0.12454948321E+03  0.47000000000E+01 0.  1.
         13    1    4    4    0    0 -0.41489558876E+02  0.10113318481E+02 -0.85349278860E+02  0.95436691625E+02  0.00000000000E+00 0. -1.
        -14    1    4    4    0    0  0.24897593617E+02 -0.26440924078E+02 -0.31319911611E+02  0.47957788703E+02  0.00000000000E+00 0.  1.
</event>
<event>
12    1  0.8451514E-002  0.1920782E+03  0.7818608E-02  0.1156794E+00
         21   -1    0    0  501  502  0.00000000000E+00  0.00000000000E+00  0.28262834808E+03  0.28262834808E+03  0.00000000000E+00 0.  1.
         21   -1    0    0  502  503 -0.00000000000E+00 -0.00000000000E+00 -0.49595581112E+03  0.49595581112E+03  0.00000000000E+00 0.  1.
         -6    2    1    2    0  503 -0.80935467915E+02 -0.29756043681E+02 -0.44102494403E+03  0.48069129420E+03  0.17066091224E+03 0.  0.
        -24    2    3    3    0    0 -0.57333455233E+02 -0.12258762869E+02 -0.11189401537E+03  0.15021819691E+03  0.81288582534E+02 0.  0.
          6    2    1    2  501    0  0.80935467915E+02  0.29756043681E+02  0.22769748099E+03  0.29789286499E+03  0.17163345845E+03 0.  0.
         24    2    5    5    0    0  0.11816924027E+03  0.78871574705E+01  0.20290476910E+03  0.24787916136E+03  0.79041487314E+02 0.  0.
          5    1    5    5  501    0 -0.37233772352E+02  0.21868886211E+02  0.24792711894E+02  0.50013703629E+02  0.47000000000E+01 0.  1.
        -13    1    6    6    0    0  0.36095200619E+02 -0.33500394829E+02  0.86761458835E+02  0.99763173068E+02  0.00000000000E+00 0.  1.
         14    1    6    6    0    0  0.82074039648E+02  0.41387552300E+02  0.11614331026E+03  0.14811598829E+03  0.00000000000E+00 0. -1.
         -5    1    3    3    0  503 -0.23602012682E+02 -0.17497280812E+02 -0.32913092866E+03  0.33047309730E+03  0.47000000000E+01 0.  1.
         11    1    4    4    0    0  0.15214239952E+02 -0.21768968329E+02 -0.23432253838E+02  0.35417955889E+02  0.00000000000E+00 0. -1.
        -12    1    4    4    0    0 -0.72547695185E+02  0.95102054597E+01 -0.88461761530E+02  0.11480024102E+03  0.00000000000E+00 0.  1.
</event>
<event>
12    1  0.8451514E-002  0.2153834E+03  0.7818608E-02  0.1137411E+00
         21   -1    0    0  503  502  0.00000000000E+00  0.00000000000E+00  0.29695408893E+02  0.29695408893E+02  0.00000000000E+00 0.  1.
         21   -1    0    0  501  503 -0.00000000000E+00 -0.00000000000E+00 -0.18108973774E+04  0.18108973774E+04  0.00000000000E+00 0.  1.
          6    2    1    2  501    0  0.69086652847E+02  0.11170498359E+03 -0.12330215649E+04  0.12516917320E+04  0.17070162089E+03 0.  0.
         24    2    3    3    0    0  0.78406921103E+02  0.90243949142E+02 -0.12083368837E+04  0.12173571010E+04  0.87112978944E+02 0.  0.
         -6    2    1    2    0  502 -0.69086652847E+02 -0.11170498359E+03 -0.54818040353E+03  0.58890105426E+03  0.17044567444E+03 0.  0.
        -24    2    5    5    0    0 -0.41100745135E+02  0.85319978960E+01 -0.25459299379E+03  0.27037978353E+03  0.80780991693E+02 0.  0.
          5    1    3    3  501    0 -0.93202682562E+01  0.21461034447E+02 -0.24684681198E+02  0.34334630997E+02  0.47000000000E+01 0. -1.
        -13    1    4    4    0    0  0.66400490634E+02  0.65614049214E+02 -0.50936557316E+03  0.51784893138E+03  0.00000000000E+00 0.  1.
         14    1    4    4    0    0  0.12006430470E+02  0.24629899928E+02 -0.69897131058E+03  0.69950816961E+03  0.00000000000E+00 0. -1.
         -5    1    5    5    0  502 -0.27985907712E+02 -0.12023698149E+03 -0.29358740974E+03  0.31852127072E+03  0.47000000000E+01 0.  1.
         13    1    6    6    0    0  0.12898760371E+02  0.25033025041E+02 -0.13787233098E+03  0.14071890425E+03  0.00000000000E+00 0. -1.
        -14    1    6    6    0    0 -0.53999505506E+02 -0.16501027145E+02 -0.11672066281E+03  0.12966087929E+03  0.00000000000E+00 0.  1.
</event>
<event>
12    1  0.8451514E-002  0.2353443E+03  0.7818608E-02  0.1123265E+00
         21   -1    0    0  501  502  0.00000000000E+00  0.00000000000E+00  0.13587218824E+03  0.13587218824E+03  0.00000000000E+00 0.  1.
         21   -1    0    0  502  503 -0.00000000000E+00 -0.00000000000E+00 -0.40444657369E+03  0.40444657369E+03  0.00000000000E+00 0. -1.
         -6    2    1    2    0  503  0.77003133631E+02  0.13792089049E+03 -0.13988233502E+03  0.27377726534E+03  0.17445706849E+03 0.  0.
        -24    2    3    3    0    0  0.27437659436E+02  0.14713234833E+03 -0.14488080912E+03  0.22289837059E+03  0.79325164235E+02 0.  0.
          6    2    1    2  501    0 -0.77003133631E+02 -0.13792089049E+03 -0.12869205042E+03  0.26654149659E+03  0.17184606758E+03 0.  0.
         24    2    5    5    0    0 -0.38162327193E+02 -0.58421804633E+02  0.50435792355E+01  0.10611699243E+03  0.79786639966E+02 0.  0.
          5    1    5    5  501    0 -0.38840806438E+02 -0.79499085852E+02 -0.13373562966E+03  0.16042450416E+03  0.47000000000E+01 0. -1.
        -13    1    6    6    0    0 -0.56167220651E+02 -0.22549863441E+02 -0.13328660016E+02  0.61975044935E+02  0.00000000000E+00 0.  1.
         14    1    6    6    0    0  0.18004893458E+02 -0.35871941192E+02  0.18372239252E+02  0.44141947493E+02  0.00000000000E+00 0. -1.
         -5    1    3    3    0  503  0.49565474194E+02 -0.92114578412E+01  0.49984740989E+01  0.50878894750E+02  0.47000000000E+01 0.  1.
         11    1    4    4    0    0  0.52242386021E+02  0.81146484712E+02 -0.64984059231E+02  0.11634838560E+03  0.00000000000E+00 0. -1.
        -12    1    4    4    0    0 -0.24804726584E+02  0.65985863615E+02 -0.79896749891E+02  0.10654998499E+03  0.00000000000E+00 0.  1.
</event>
<event>
12    1  0.8451514E-002  0.1885724E+03  0.7818608E-02  0.1160102E+00
         21   -1    0    0  503  502  0.00000000000E+00  0.00000000000E+00  0.21130099054E+03  0.21130099054E+03  0.00000000000E+00 0.  1.
         21   -1    0    0  501  503 -0.00000000000E+00 -0.00000000000E+00 -0.23505803800E+03  0.23505803800E+03  0.00000000000E+00 0.  1.
          6    2    1    2  501    0  0.77459051650E+02  0.32203319312E+01 -0.13198835312E+03  0.22893419167E+03  0.17023414327E+03 0.  0.
         24    2    3    3    0    0  0.11640473385E+03 -0.34310144237E+01 -0.78053960695E+02  0.16191169353E+03  0.81000875283E+02 0.  0.
         -6    2    1    2    0  502 -0.77459051650E+02 -0.32203319312E+01  0.10823130567E+03  0.21742483687E+03  0.17189900797E+03 0.  0.
        -24    2    5    5    0    0 -0.48188970767E+02 -0.35378417562E+01 -0.12029148324E+02  0.93564006733E+02  0.79213822775E+02 0.  0.
          5    1    3    3  501    0 -0.38945682204E+02  0.66513463550E+01 -0.53934392428E+02  0.67022498142E+02  0.47000000000E+01 0. -1.
        -11    1    4    4    0    0  0.71922733800E+02 -0.22101405231E+01  0.12369446888E+00  0.71956790220E+02  0.00000000000E+00 0.  1.
         12    1    4    4    0    0  0.44482000054E+02 -0.12208739006E+01 -0.78177655164E+02  0.89954903307E+02  0.00000000000E+00 0. -1.
         -5    1    5    5    0  502 -0.29270080883E+02  0.31750982494E+00  0.12026045399E+03  0.12386083014E+03  0.47000000000E+01 0.  1.
         11    1    6    6    0    0 -0.67338413985E+02 -0.16763835384E+02 -0.11071771434E+02  0.70271418781E+02  0.00000000000E+00 0. -1.
        -12    1    6    6    0    0  0.19149443218E+02  0.13225993628E+02 -0.95737689035E+00  0.23292587952E+02  0.00000000000E+00 0.  1.
</event>
<event>
12    1  0.8451514E-002  0.2201299E+03  0.7818608E-02  0.1133987E+00
         21   -1    0    0  501  502  0.00000000000E+00  0.00000000000E+00  0.69249621047E+03  0.69249621047E+03  0.00000000000E+00 0. -1.
         21   -1    0    0  502  503 -0.00000000000E+00 -0.00000000000E+00 -0.73642469817E+02  0.73642469817E+02  0.00000000000E+00 0. -1.
         -6    2    1    2    0  503  0.42855546671E+02  0.12900670671E+03  0.39951935632E+03  0.45615007552E+03  0.17314111894E+03 0.  0.
        -24    2    3    3    0    0  0.11334219379E+02  0.11709203415E+03  0.15914753716E+03  0.21338217208E+03  0.79780973841E+02 0.  0.
          6    2    1    2  501    0 -0.42855546671E+02 -0.12900670671E+03  0.21933438433E+03  0.30998860476E+03  0.17177320710E+03 0.  0.
         24    2    5    5    0    0 -0.92033430826E+02 -0.89593967143E+02  0.17963745679E+03  0.23535775065E+03  0.81402847430E+02 0.  0.
          5    1    5    5  501    0  0.49177884155E+02 -0.39412739562E+02  0.39696927538E+02  0.74630854114E+02  0.47000000000E+01 0. -1.
        -11    1    6    6    0    0 -0.27081802549E+02  0.55003797340E+01  0.74359805808E+02  0.79328802628E+02  0.00000000000E+00 0.  1.
         12    1    6    6    0    0 -0.64951628277E+02 -0.95094346877E+02  0.10527765098E+03  0.15602894802E+03  0.00000000000E+00 0. -1.
         -5    1    3    3    0  503  0.31521327292E+02  0.11914672557E+02  0.24037181916E+03  0.24276790344E+03  0.47000000000E+01 0.  1.
         13    1    4    4    0    0  0.31037111235E+02  0.68074238746E+02  0.13700144524E+03  0.15609868754E+03  0.00000000000E+00 0. -1.
        -14    1    4    4    0    0 -0.19702891857E+02  0.49017795403E+02  0.22146091928E+02  0.57283484543E+02  0.00000000000E+00 0.  1.
</event>
<event>
12    1  0.8451514E-002  0.1758857E+03  0.7818608E-02  0.1171930E+00
         21   -1    0    0  501  502  0.00000000000E+00  0.00000000000E+00  0.36720613282E+02  0.36720613282E+02  0.00000000000E+00 0.  1.
         21   -1    0    0  502  503 -0.00000000000E+00 -0.00000000000E+00 -0.11486348439E+04  0.11486348439E+04  0.00000000000E+00 0.  1.
         -6    2    1    2    0  503 -0.16229969580E+02 -0.29900295057E+02 -0.86315798702E+03  0.88089585477E+03  0.17256406591E+03 0.  0.
        -24    2    3    3    0    0 -0.80265413976E+02 -0.21546079354E+02 -0.45691720929E+03  0.46952741827E+03  0.69107815384E+02 0.  0.
          6    2    1    2  501    0  0.16229969580E+02  0.29900295057E+02 -0.24875624362E+03  0.30445960243E+03  0.17221655325E+03 0.  0.
         24    2    5    5    0    0 -0.30196678259E+02  0.44529561946E+02 -0.68022062753E+02  0.11722610326E+03  0.78868479118E+02 0.  0.
          5    1    5    5  501    0  0.46426647839E+02 -0.14629266889E+02 -0.18073418086E+03  0.18723349917E+03  0.47000000000E+01 0. -1.
        -13    1    6    6    0    0 -0.46132746107E+02  0.86966621117E+00 -0.48118846542E+02  0.66666408147E+02  0.00000000000E+00 0.  1.
         14    1    6    6    0    0  0.15936067847E+02  0.43659895735E+02 -0.19903216210E+02  0.50559695109E+02  0.00000000000E+00 0. -1.
         -5    1    3    3    0  503  0.64035444396E+02 -0.83542157032E+01 -0.40624077773E+03  0.41136843651E+03  0.47000000000E+01 0.  1.
         13    1    4    4    0    0 -0.67500238685E+02  0.12215382584E+02 -0.23931978303E+03  0.24895673588E+03  0.00000000000E+00 0. -1.
        -14    1    4    4    0    0 -0.12765175291E+02 -0.33761461938E+02 -0.21759742626E+03  0.22057068238E+03  0.00000000000E+00 0.  1.
</event>
<event>
12    1  0.8451514E-002  0.1762327E+03  0.7818608E-02  0.1173730E+00
         21   -1    0    0  501  502  0.00000000000E+00  0.00000000000E+00  0.25678049379E+03  0.25678049379E+03  0.00000000000E+00 0. -1.
         21   -1    0    0  502  503 -0.00000000000E+00 -0.00000000000E+00 -0.11513425298E+03  0.11513425298E+03  0.00000000000E+00 0. -1.
         -6    2    1    2    0  503  0.30490996272E+02 -0.29240363586E+02  0.67231258804E+02  0.18862130124E+03  0.17109428221E+03 0.  0.
        -24    2    3    3    0    0  0.38065414118E+02  0.36912422617E+02  0.50345490833E+01  0.97384885114E+02  0.81528930257E+02 0.  0.
          6    2    1    2  501    0 -0.30490996272E+02  0.29240363586E+02  0.74414982008E+02  0.18329344553E+03  0.16209317663E+03 0.  0.
         24    2    5    5    0    0 -0.23959181407E+02 -0.41673639476E+02  0.25965751875E+02  0.97032919581E+02  0.80189978246E+02 0.  0.
          5    1    5    5  501    0 -0.65318148654E+01  0.70914003062E+02  0.48449230134E+02  0.86260525945E+02  0.47000000000E+01 0. -1.
        -13    1    6    6    0    0 -0.60946598794E+01  0.23311346329E+02 -0.17552924570E+01  0.24158741655E+02  0.00000000000E+00 0.  1.
         14    1    6    6    0    0 -0.17864521527E+02 -0.64984985805E+02  0.27721044332E+02  0.72874177926E+02  0.00000000000E+00 0. -1.
         -5    1    3    3    0  503 -0.75744178455E+01 -0.66152786203E+02  0.62196709721E+02  0.91236416130E+02  0.47000000000E+01 0.  1.
         11    1    4    4    0    0 -0.24920025421E+02  0.41752841214E+01 -0.48076800903E+01  0.25720700852E+02  0.00000000000E+00 0. -1.
        -12    1    4    4    0    0  0.62985439539E+02  0.32737138495E+02  0.98422291736E+01  0.71664184261E+02  0.00000000000E+00 0.  1.
</event>
<event>
12    1  0.8451514E-002  0.1844356E+03  0.7818608E-02  0.1164886E+00
         21   -1    0    0  503  502  0.00000000000E+00  0.00000000000E+00  0.20012571386E+03  0.20012571386E+03  0.00000000000E+00 0.  1.
         21   -1    0    0  501  503 -0.00000000000E+00 -0.00000000000E+00 -0.16683257931E+03  0.16683257931E+03  0.00000000000E+00 0.  1.
          6    2    1    2  501    0  0.34101621548E+02 -0.13797920621E+02 -0.25749439727E+01  0.18445356976E+03  0.18072959319E+03 0.  0.
         24    2    3    3    0    0  0.82175328494E+02  0.22104099719E+02 -0.26294352035E+02  0.11976402900E+03  0.80066558915E+02 0.  0.
         -6    2    1    2    0  502 -0.34101621548E+02  0.13797920621E+02  0.35868078520E+02  0.18250472342E+03  0.17512324748E+03 0.  0.
        -24    2    5    5    0    0 -0.36264239610E+02  0.20501930340E+01  0.90749070467E+02  0.12614250826E+03  0.79732303574E+02 0.  0.
          5    1    3    3  501    0 -0.48073706946E+02 -0.35902020341E+02  0.23719408063E+02  0.64689540754E+02  0.47000000000E+01 0. -1.
        -13    1    4    4    0    0  0.16316751845E+02 -0.28862262831E+02 -0.29968333807E+01  0.33290353209E+02  0.00000000000E+00 0.  1.
         14    1    4    4    0    0  0.65858576648E+02  0.50966362550E+02 -0.23297518655E+02  0.86473675793E+02  0.00000000000E+00 0. -1.
         -5    1    5    5    0  502  0.21626180622E+01  0.11747727587E+02 -0.54880991946E+02  0.56362215157E+02  0.47000000000E+01 0.  1.
         13    1    6    6    0    0  0.38892731767E+01 -0.31362831237E+02  0.52949031040E+02  0.61663226619E+02  0.00000000000E+00 0. -1.
        -14    1    6    6    0    0 -0.40153512787E+02  0.33413024271E+02  0.37800039426E+02  0.64479281639E+02  0.00000000000E+00 0.  1.
</event>
<event>
12    1  0.8451514E-002  0.2113489E+03  0.7818608E-02  0.1140518E+00
         21   -1    0    0  501  502  0.00000000000E+00  0.00000000000E+00  0.10284948337E+04  0.10284948337E+04  0.00000000000E+00 0. -1.
         21   -1    0    0  502  503 -0.00000000000E+00 -0.00000000000E+00 -0.65735798573E+02  0.65735798573E+02  0.00000000000E+00 0. -1.
         -6    2    1    2    0  503 -0.68341697814E+02 -0.10092463802E+03  0.16250249273E+03  0.26653570944E+03  0.17256260906E+03 0.  0.
        -24    2    3    3    0    0 -0.13786628436E+02  0.10289244897E+02  0.95869002048E+02  0.12579873694E+03  0.79614803759E+02 0.  0.
          6    2    1    2  501    0  0.68341697814E+02  0.10092463802E+03  0.80025654245E+03  0.82769492288E+03  0.17266146475E+03 0.  0.
         24    2    5    5    0    0  0.35250448885E+02 -0.86629488057E+01  0.47270745447E+03  0.48068632792E+03  0.79305532628E+02 0.  0.
          5    1    5    5  501    0  0.33091248929E+02  0.10958758683E+03  0.32754908797E+03  0.34700859496E+03  0.47000000000E+01 0. -1.
        -13    1    6    6    0    0  0.59761435084E+02 -0.12225215989E+02  0.29319477875E+03  0.29947297593E+03  0.00000000000E+00 0.  1.
         14    1    6    6    0    0 -0.24510986199E+02  0.35622671837E+01  0.17951267573E+03  0.18121335199E+03  0.00000000000E+00 0. -1.
         -5    1    3    3    0  503 -0.54555069378E+02 -0.11121388292E+03  0.66633490677E+02  0.14073697250E+03  0.47000000000E+01 0.  1.
         11    1    4    4    0    0 -0.13353295716E+02 -0.19332332894E+02  0.93129422278E+02  0.96047586619E+02  0.00000000000E+00 0. -1.
        -12    1    4    4    0    0 -0.43333272052E+00  0.29621577790E+02  0.27395797706E+01  0.29751150320E+02  0.00000000000E+00 0.  1.
</event>
<event>
12    1  0.8451514E-002  0.1796371E+03  0.7818608E-02  0.1168306E+00
         21   -1    0    0  501  502  0.00000000000E+00  0.00000000000E+00  0.12728910176E+03  0.12728910176E+03  0.00000000000E+00 0.  1.
         21   -1    0    0  502  503 -0.00000000000E+00 -0.00000000000E+00 -0.35551298204E+03  0.35551298204E+03  0.00000000000E+00 0.  1.
         -6    2    1    2    0  503  0.51361019916E+02 -0.83590998048E+01 -0.24383030099E+03  0.30248834139E+03  0.17128383484E+03 0.  0.
        -24    2    3    3    0    0  0.21573745134E+02 -0.43624014784E+02 -0.55280249462E+02  0.10831288491E+03  0.79418473364E+02 0.  0.
          6    2    1    2  501    0 -0.51361019916E+02  0.83590998048E+01  0.15606420702E+02  0.18031374241E+03  0.17193503546E+03 0.  0.
         24    2    5    5    0    0 -0.41007890601E+02 -0.45098774253E+02 -0.37006917682E+02  0.10445080705E+03  0.76321115082E+02 0.  0.
          5    1    5    5  501    0 -0.10353129314E+02  0.53457874058E+02  0.52613338384E+02  0.75862935359E+02  0.47000000000E+01 0. -1.
        -11    1    6    6    0    0 -0.32244539402E+02  0.15006357040E+02 -0.53817029584E+01  0.35970318313E+02  0.00000000000E+00 0.  1.
         12    1    6    6    0    0 -0.87633511995E+01 -0.60105131292E+02 -0.31625214723E+02  0.68480488741E+02  0.00000000000E+00 0. -1.
         -5    1    3    3    0  503  0.29787274782E+02  0.35264914979E+02 -0.18855005153E+03  0.19417545648E+03  0.47000000000E+01 0.  1.
         11    1    4    4    0    0 -0.21470211135E+02  0.51762729309E+01 -0.32651648545E+02  0.39419461188E+02  0.00000000000E+00 0. -1.
        -12    1    4    4    0    0  0.43043956269E+02 -0.48800287715E+02 -0.22628600917E+02  0.68893423719E+02  0.00000000000E+00 0.  1.
</event>
<event>
12    1  0.8451514E-002  0.2022405E+03  0.7818608E-02  0.1148114E+00
         21   -1    0    0  503  502  0.00000000000E+00  0.00000000000E+00  0.36885151306E+03  0.36885151306E+03  0.00000000000E+00 0.  1.
         21   -1    0    0  501  503 -0.00000000000E+00 -0.00000000000E+00 -0.33085178002E+03  0.33085178002E+03  0.00000000000E+00 0.  1.
          6    2    1    2  501    0  0.52228379534E+02  0.92909338210E+02 -0.26670750464E+03  0.33398794243E+03  0.17045557751E+03 0.  0.
         24    2    3    3    0    0 -0.31585526375E+02  0.11528162409E+02 -0.11076555077E+03  0.13908373628E+03  0.77102104095E+02 0.  0.
         -6    2    1    2    0  502 -0.52228379534E+02 -0.92909338210E+02  0.30470723768E+03  0.36571535065E+03  0.17187573492E+03 0.  0.
        -24    2    5    5    0    0 -0.30187580445E+02 -0.47000041116E+00  0.61937204262E+02  0.10496603210E+03  0.79184213771E+02 0.  0.
          5    1    3    3  501    0  0.83813905909E+02  0.81381175801E+02 -0.15594195387E+03  0.19490420615E+03  0.47000000000E+01 0. -1.
        -11    1    4    4    0    0  0.11474672749E+02 -0.51987838131E+01 -0.85515413703E+02  0.86438310076E+02  0.00000000000E+00 0.  1.
         12    1    4    4    0    0 -0.43060199125E+02  0.16726946222E+02 -0.25250137065E+02  0.52645426206E+02  0.00000000000E+00 0. -1.
         -5    1    5    5    0  502 -0.22040799089E+02 -0.92439337799E+02  0.24277003342E+03  0.26074931855E+03  0.47000000000E+01 0.  1.
         13    1    6    6    0    0 -0.31975942133E+01 -0.38169442449E+02  0.30245171747E+02  0.48804726816E+02  0.00000000000E+00 0. -1.
        -14    1    6    6    0    0 -0.26989986231E+02  0.37699442038E+02  0.31692032516E+02  0.56161305289E+02  0.00000000000E+00 0.  1.
</event>
<event>
12    1  0.8451514E-002  0.2904152E+03  0.7818608E-02  0.1090277E+00
         21   -1    0    0  501  502  0.00000000000E+00  0.00000000000E+00  0.54414222748E+03  0.54414222748E+03  0.00000000000E+00 0. -1.
         21   -1    0    0  502  503 -0.00000000000E+00 -0.00000000000E+00 -0.30353968022E+03  0.30353968022E+03  0.00000000000E+00 0.  1.
         -6    2    1    2    0  503  0.61385153455E+02  0.22471177253E+03 -0.17666574725E+03  0.33992909035E+03  0.17342860906E+03 0.  0.
        -24    2    3    3    0    0  0.10104073189E+03  0.16814246859E+03 -0.16743054694E+03  0.27007187903E+03  0.80154304617E+02 0.  0.
          6    2    1    2  501    0 -0.61385153455E+02 -0.22471177253E+03  0.41726829451E+03  0.50775281735E+03  0.17157090705E+03 0.  0.
         24    2    5    5    0    0  0.51336810106E+01 -0.30715650994E+02  0.11716541104E+03  0.14423791920E+03  0.78147539275E+02 0.  0.
          5    1    5    5  501    0 -0.66518834465E+02 -0.19399612153E+03  0.30010288347E+03  0.36351489814E+03  0.47000000000E+01 0. -1.
        -13    1    6    6    0    0  0.39164661046E+01  0.84100091300E+01 -0.85211475762E+01  0.12596702598E+02  0.00000000000E+00 0.  1.
         14    1    6    6    0    0  0.12172149059E+01 -0.39125660124E+02  0.12568655862E+03  0.13164121660E+03  0.00000000000E+00 0. -1.
         -5    1    3    3    0  503 -0.39655578436E+02  0.56569303935E+02 -0.92352003089E+01  0.69857211321E+02  0.47000000000E+01 0.  1.
         13    1    4    4    0    0  0.38251029569E+02  0.83476737736E+01 -0.21044809876E+02  0.44448947605E+02  0.00000000000E+00 0. -1.
        -14    1    4    4    0    0  0.62789702322E+02  0.15979479482E+03 -0.14638573707E+03  0.22562293143E+03  0.00000000000E+00 0.  1.
</event>
<event>
12    1  0.8451514E-002  0.1802897E+03  0.7818608E-02  0.1167779E+00
         21   -1    0    0  501  502  0.00000000000E+00  0.00000000000E+00  0.10135910122E+03  0.10135910122E+03  0.00000000000E+00 0.  1.
         21   -1    0    0  502  503 -0.00000000000E+00 -0.00000000000E+00 -0.31926683345E+03  0.31926683345E+03  0.00000000000E+00 0.  1.
         -6    2    1    2    0  503  0.16813504956E+02 -0.46740725954E+02 -0.10066511251E+03  0.20556735206E+03  0.17221231647E+03 0.  0.
        -24    2    3    3    0    0 -0.37695773107E+02  0.87469523389E+00 -0.11173410938E+03  0.13219772332E+03  0.59749397075E+02 0.  0.
          6    2    1    2  501    0 -0.16813504956E+02  0.46740725954E+02 -0.11724261972E+03  0.21505858261E+03  0.17331177878E+03 0.  0.
         24    2    5    5    0    0 -0.24664937080E+02  0.18495547713E+02 -0.14942770283E+03  0.17127040321E+03  0.77810463535E+02 0.  0.
          5    1    5    5  501    0  0.78514321241E+01  0.28245178241E+02  0.32185083115E+02  0.43788179402E+02  0.47000000000E+01 0. -1.
        -11    1    6    6    0    0 -0.27396745542E+02 -0.25807763951E+02 -0.51843609371E+02  0.64065452305E+02  0.00000000000E+00 0.  1.
         12    1    6    6    0    0  0.27318084611E+01  0.44303311664E+02 -0.97584093462E+02  0.10720495091E+03  0.00000000000E+00 0. -1.
         -5    1    3    3    0  503  0.54509278063E+02 -0.47615421188E+02  0.11068996870E+02  0.73369628741E+02  0.47000000000E+01 0.  1.
         13    1    4    4    0    0 -0.24850526261E+02 -0.28840853360E+02 -0.65420897816E+02  0.75691725763E+02  0.00000000000E+00 0. -1.
        -14    1    4    4    0    0 -0.12845246846E+02  0.29715548594E+02 -0.46313211561E+02  0.56505997557E+02  0.00000000000E+00 0.  1.
</event>
<event>
12    1  0.8451514E-002  0.4565235E+03  0.7818608E-02  0.1026012E+00
         21   -1    0    0  503  502  0.00000000000E+00  0.00000000000E+00  0.86204892386E+03  0.86204892386E+03  0.00000000000E+00 0. -1.
         21   -1    0    0  501  503 -0.00000000000E+00 -0.00000000000E+00 -0.33915374803E+03  0.33915374803E+03  0.00000000000E+00 0.  1.
          6    2    1    2  501    0 -0.37875384191E+03  0.18036550137E+03 -0.63579219591E+02  0.45798944258E+03  0.17241179049E+03 0.  0.
         24    2    3    3    0    0 -0.13162524515E+03  0.79502203780E+02  0.28633995935E+02  0.17555128075E+03  0.79702828578E+02 0.  0.
         -6    2    1    2    0  502  0.37875384191E+03 -0.18036550137E+03  0.58647439542E+03  0.74321322931E+03  0.18007637518E+03 0.  0.
        -24    2    5    5    0    0  0.34655241412E+03 -0.10984371205E+03  0.43339499490E+03  0.57155762182E+03  0.81747639986E+02 0.  0.
          5    1    3    3  501    0 -0.24712859676E+03  0.10086329759E+03 -0.92213215526E+02  0.28243816183E+03  0.47000000000E+01 0. -1.
        -13    1    4    4    0    0 -0.86745062018E+02  0.60515383854E+02 -0.18937857689E+02  0.10744980187E+03  0.00000000000E+00 0.  1.
         14    1    4    4    0    0 -0.44880183130E+02  0.18986819927E+02  0.47571853624E+02  0.68101478882E+02  0.00000000000E+00 0. -1.
         -5    1    5    5    0  502  0.32201427784E+02 -0.70521789322E+02  0.15307940052E+03  0.17165560750E+03  0.47000000000E+01 0.  1.
         11    1    6    6    0    0  0.13368694741E+03 -0.54289213861E+02  0.23251392995E+03  0.27364620639E+03  0.00000000000E+00 0. -1.
        -12    1    6    6    0    0  0.21286546671E+03 -0.55554498191E+02  0.20088106494E+03  0.29791141542E+03  0.00000000000E+00 0.  1.
</event>
<event>
12    1  0.8451514E-002  0.2373163E+03  0.7818608E-02  0.1121722E+00
         21   -1    0    0  501  502  0.00000000000E+00  0.00000000000E+00  0.85983635829E+02  0.85983635829E+02  0.00000000000E+00 0.  1.
         21   -1    0    0  502  503 -0.00000000000E+00 -0.00000000000E+00 -0.76086224245E+03  0.76086224245E+03  0.00000000000E+00 0.  1.
         -6    2    1    2    0  503  0.40411630191E+02  0.15787110235E+03 -0.49739657091E+03  0.55111010998E+03  0.17251846209E+03 0.  0.
        -24    2    3    3    0    0  0.84163298441E+01  0.12915726631E+03 -0.20079516027E+03  0.25137244065E+03  0.78211082857E+02 0.  0.
          6    2    1    2  501    0 -0.40411630191E+02 -0.15787110235E+03 -0.17748203572E+03  0.29573576830E+03  0.17147415793E+03 0.  0.
         24    2    5    5    0    0  0.11915005503E+01 -0.66542947054E+02 -0.15761583941E+02  0.10534867063E+03  0.80128218489E+02 0.  0.
          5    1    5    5  501    0 -0.41603130741E+02 -0.91328155298E+02 -0.16172045178E+03  0.19038709768E+03  0.47000000000E+01 0. -1.
        -11    1    6    6    0    0 -0.24768567880E+02 -0.13805427971E+02 -0.33556899457E+02  0.43933327867E+02  0.00000000000E+00 0.  1.
         12    1    6    6    0    0  0.25960068430E+02 -0.52737519084E+02  0.17795315516E+02  0.61415342760E+02  0.00000000000E+00 0. -1.
         -5    1    3    3    0  503  0.31995300347E+02  0.28713836040E+02 -0.29660141064E+03  0.29973766933E+03  0.47000000000E+01 0.  1.
         11    1    4    4    0    0 -0.19442057729E+02  0.10527780273E+03 -0.17935029948E+03  0.20887302191E+03  0.00000000000E+00 0. -1.
        -12    1    4    4    0    0  0.27858387574E+02  0.23879463586E+02 -0.21444860783E+02  0.42499418741E+02  0.00000000000E+00 0.  1.
</event>
<event>
12    1  0.8451514E-002  0.2189362E+03  0.7818608E-02  0.1134936E+00
         21   -1    0    0  501  502  0.00000000000E+00  0.00000000000E+00  0.96250162866E+03  0.96250162866E+03  0.00000000000E+00 0.  1.
         21   -1    0    0  502  503 -0.00000000000E+00 -0.00000000000E+00 -0.60095950661E+02  0.60095950661E+02  0.00000000000E+00 0. -1.
         -6    2    1    2    0  503 -0.23492463303E+02  0.13174614228E+03  0.66716308847E+03  0.70216783302E+03  0.17327474504E+03 0.  0.
        -24    2    3    3    0    0 -0.69293406522E+02  0.13617797771E+03  0.52575502528E+03  0.55338712896E+03  0.80454646171E+02 0.  0.
          6    2    1    2  501    0  0.23492463303E+02 -0.13174614228E+03  0.23524258953E+03  0.32042974631E+03  0.17154359373E+03 0.  0.
         24    2    5    5    0    0  0.82570509789E+02 -0.91240625290E+02  0.16852137903E+03  0.22242606059E+03  0.77014001639E+02 0.  0.
          5    1    5    5  501    0 -0.59078046486E+02 -0.40505516993E+02  0.66721210499E+02  0.98003685716E+02  0.47000000000E+01 0. -1.
        -11    1    6    6    0    0  0.19512911902E+02 -0.67718928360E+01  0.86311626282E+02  0.88748572355E+02  0.00000000000E+00 0.  1.
         12    1    6    6    0    0  0.63057597887E+02 -0.84468732454E+02  0.82209752751E+02  0.13367748824E+03  0.00000000000E+00 0. -1.
         -5    1    3    3    0  503  0.45800943219E+02 -0.44318354244E+01  0.14140806318E+03  0.14878070405E+03  0.47000000000E+01 0.  1.
         11    1    4    4    0    0 -0.16054026225E+02  0.54921516373E+02  0.87887233599E+02  0.10487263966E+03  0.00000000000E+00 0. -1.
        -12    1    4    4    0    0 -0.53239380297E+02  0.81256461334E+02  0.43786779169E+03  0.44851448931E+03  0.00000000000E+00 0.  1.
</event>
<event>
12    1  0.8451514E-002  0.1823435E+03  0.7818608E-02  0.1165930E+00
         21   -1    0    0  503  502  0.00000000000E+00  0.00000000000E+00  0.14767766578E+04  0.14767766578E+04  0.00000000000E+00 0.  1.
         21   -1    0    0  501  503 -0.00000000000E+00 -0.00000000000E+00 -0.51535367130E+02  0.51535367130E+02  0.00000000000E+00 0.  1.
          6    2    1    2  501    0  0.19237806295E+02  0.70040944095E+02  0.13593841088E+03  0.22617874450E+03  0.16553472709E+03 0.  0.
         24    2    3    3    0    0 -0.12693693258E+02  0.10269523792E+03  0.79266312283E+02  0.15324219449E+03  0.80576548502E+02 0.  0.
         -6    2    1    2    0  502 -0.19237806295E+02 -0.70040944095E+02  0.12893028798E+04  0.13021332804E+04  0.16725231573E+03 0.  0.
        -24    2    5    5    0    0  0.12965097812E+02  0.99045610570E+01  0.37077167577E+03  0.37955538475E+03  0.79526476407E+02 0.  0.
          5    1    3    3  501    0  0.31931499552E+02 -0.32654293825E+02  0.56672098593E+02  0.72936550013E+02  0.47000000000E+01 0. -1.
        -11    1    4    4    0    0 -0.25023480448E+02  0.26711280057E+02  0.65514829456E+02  0.75045718963E+02  0.00000000000E+00 0.  1.
         12    1    4    4    0    0  0.12329787190E+02  0.75983957862E+02  0.13751482827E+02  0.78196475525E+02  0.00000000000E+00 0. -1.
         -5    1    5    5    0  502 -0.32202904107E+02 -0.79945505152E+02  0.91853120404E+03  0.92257789569E+03  0.47000000000E+01 0.  1.
         11    1    6    6    0    0 -0.23019956290E+02 -0.18719587615E+02  0.83230308251E+02  0.88360769347E+02  0.00000000000E+00 0. -1.
        -12    1    6    6    0    0  0.35985054102E+02  0.28624148672E+02  0.28754136752E+03  0.29119461540E+03  0.00000000000E+00 0.  1.
</event>
<event>
12    1  0.8451514E-002  0.4205130E+03  0.7818608E-02  0.1036911E+00
         21   -1    0    0  501  502  0.00000000000E+00  0.00000000000E+00  0.45315005336E+03  0.45315005336E+03  0.00000000000E+00 0.  1.
         21   -1    0    0  502  503 -0.00000000000E+00 -0.00000000000E+00 -0.56390234385E+03  0.56390234385E+03  0.00000000000E+00 0. -1.
         -6    2    1    2    0  503  0.33624494045E+03  0.18466264559E+03 -0.33770891969E+03  0.53933150301E+03  0.17225040798E+03 0.  0.
        -24    2    3    3    0    0  0.23707253818E+03  0.19776122045E+03 -0.27436253899E+03  0.42083427949E+03  0.80708111850E+02 0.  0.
          6    2    1    2  501    0 -0.33624494045E+03 -0.18466264559E+03  0.22695662920E+03  0.47772089420E+03  0.17189237495E+03 0.  0.
         24    2    5    5    0    0 -0.31301763893E+03 -0.10910730883E+03  0.17814287774E+03  0.38469945161E+03  0.79839439265E+02 0.  0.
          5    1    5    5  501    0 -0.23227301518E+02 -0.75555336763E+02  0.48813751464E+02  0.93021442588E+02  0.47000000000E+01 0. -1.
        -11    1    6    6    0    0 -0.47014564522E+02 -0.45297414285E+02  0.52012063165E+02  0.83471430638E+02  0.00000000000E+00 0.  1.
         12    1    6    6    0    0 -0.26600307441E+03 -0.63809894544E+02  0.12613081457E+03  0.30122802098E+03  0.00000000000E+00 0. -1.
         -5    1    3    3    0  503  0.99172402265E+02 -0.13098574862E+02 -0.63346380697E+02  0.11849722352E+03  0.47000000000E+01 0.  1.
         13    1    4    4    0    0  0.18567447975E+02 -0.36054514455E+01 -0.32920095959E+02  0.37966855577E+02  0.00000000000E+00 0. -1.
        -14    1    4    4    0    0  0.21850509021E+03  0.20136667190E+03 -0.24144244303E+03  0.38286742392E+03  0.00000000000E+00 0.  1.
</event>
<event>
12    1  0.8451514E-002  0.2061004E+03  0.7818608E-02  0.1144879E+00
         21   -1    0    0  503  502  0.00000000000E+00  0.00000000000E+00  0.24958574012E+03  0.24958574012E+03  0.00000000000E+00 0. -1.
         21   -1    0    0  501  503 -0.00000000000E+00 -0.00000000000E+00 -0.17396051116E+03  0.17396051116E+03  0.00000000000E+00 0. -1.
          6    2    1    2  501    0 -0.56471543989E+02  0.97168334396E+02  0.71903473857E+02  0.21741229490E+03  0.17166035049E+03 0.  0.
         24    2    3    3    0    0  0.36569953673E+02  0.48592085830E+02  0.41401297505E+02  0.10801007840E+03  0.79079436542E+02 0.  0.
         -6    2    1    2    0  502  0.56471543989E+02 -0.97168334396E+02  0.37217550977E+01  0.20613395639E+03  0.17276178983E+03 0.  0.
        -24    2    5    5    0    0  0.99173756350E+02 -0.10150227108E+03 -0.32280123668E+01  0.16240008833E+03  0.78900086443E+02 0.  0.
          5    1    3    3  501    0 -0.93041497662E+02  0.48576248566E+02  0.30502176353E+02  0.10940221650E+03  0.47000000000E+01 0. -1.
        -11    1    4    4    0    0  0.38143725331E+02  0.64724907984E+02  0.49420223056E+02  0.89925613384E+02  0.00000000000E+00 0.  1.
         12    1    4    4    0    0 -0.15737716577E+01 -0.16132822154E+02 -0.80189255517E+01  0.18084465015E+02  0.00000000000E+00 0. -1.
         -5    1    5    5    0  502 -0.42702212361E+02  0.43339366880E+01  0.69497674645E+01  0.43733868061E+02  0.47000000000E+01 0.  1.
         11    1    6    6    0    0  0.23506009430E+02  0.10838806437E+02 -0.72891953044E+01  0.26891347540E+02  0.00000000000E+00 0. -1.
        -12    1    6    6    0    0  0.75667746919E+02 -0.11234107752E+03  0.40611829376E+01  0.13550874079E+03  0.00000000000E+00 0.  1.
</event>
<event>
12    1  0.8451514E-002  0.2219473E+03  0.7818608E-02  0.1132516E+00
         21   -1    0    0  503  502  0.00000000000E+00  0.00000000000E+00  0.32410525146E+03  0.32410525146E+03  0.00000000000E+00 0.  1.
         21   -1    0    0  501  503 -0.00000000000E+00 -0.00000000000E+00 -0.15171422581E+03  0.15171422581E+03  0.00000000000E+00 0.  1.
          6    2    1    2  501    0  0.12889651900E+03 -0.51584202779E+02  0.88054296820E+02  0.23877638067E+03  0.17316280833E+03 0.  0.
         24    2    3    3    0    0 -0.41369977484E+01 -0.73023374399E+01  0.39612753044E+02  0.90359827212E+02  0.80779262733E+02 0.  0.
         -6    2    1    2    0  502 -0.12889651900E+03  0.51584202779E+02  0.84336728829E+02  0.23704309660E+03  0.17263111895E+03 0.  0.
        -24    2    5    5    0    0 -0.85928164538E+01  0.45862325074E+02 -0.35188591921E+01  0.87890774872E+02  0.74399036162E+02 0.  0.
          5    1    3    3  501    0  0.13303351675E+03 -0.44281865339E+02  0.48441543776E+02  0.14841655346E+03  0.47000000000E+01 0. -1.
        -13    1    4    4    0    0 -0.94102743038E+01 -0.43523895038E+02  0.19728271832E+02  0.48704080027E+02  0.00000000000E+00 0.  1.
         14    1    4    4    0    0  0.52732765554E+01  0.36221557599E+02  0.19884481211E+02  0.41655747185E+02  0.00000000000E+00 0. -1.
         -5    1    5    5    0  502 -0.12030370255E+03  0.57218777050E+01  0.87855588021E+02  0.14915232173E+03  0.47000000000E+01 0.  1.
         11    1    6    6    0    0 -0.68564828786E+00 -0.18801185882E+02 -0.11820346249E+02  0.22218804863E+02  0.00000000000E+00 0. -1.
        -12    1    6    6    0    0 -0.79071681659E+01  0.64663510956E+02  0.83014870564E+01  0.65671970009E+02  0.00000000000E+00 0.  1.
</event>
<event>
12    1  0.8451514E-002  0.2104837E+03  0.7818608E-02  0.1141394E+00
         21   -1    0    0  501  502  0.00000000000E+00  0.00000000000E+00  0.26445074975E+04  0.26445074975E+04  0.00000000000E+00 0.  1.
         21   -1    0    0  502  503 -0.00000000000E+00 -0.00000000000E+00 -0.17943894132E+02  0.17943894132E+02  0.00000000000E+00 0. -1.
         -6    2    1    2    0  503 -0.94010653617E+02 -0.76808254966E+02  0.95524641239E+03  0.97793231316E+03  0.17064111381E+03 0.  0.
        -24    2    3    3    0    0 -0.44062807406E+02  0.10282289751E+02  0.27979120154E+03  0.29504038747E+03  0.81966196064E+02 0.  0.
          6    2    1    2  501    0  0.94010653617E+02  0.76808254966E+02  0.16713171909E+04  0.16845190784E+04  0.17194726471E+03 0.  0.
         24    2    5    5    0    0  0.86903517415E+02 -0.13212152974E+02  0.87279224571E+03  0.88089082894E+03  0.80470901619E+02 0.  0.
          5    1    5    5  501    0  0.71071362013E+01  0.90020407939E+02  0.79852494523E+03  0.80362824949E+03  0.47000000000E+01 0. -1.
        -13    1    6    6    0    0  0.15758173680E+02 -0.28728696447E+02  0.49883031639E+03  0.49990533363E+03  0.00000000000E+00 0.  1.
         14    1    6    6    0    0  0.71145343736E+02  0.15516543474E+02  0.37396192932E+03  0.38098549531E+03  0.00000000000E+00 0. -1.
         -5    1    3    3    0  503 -0.49947846211E+02 -0.87090544717E+02  0.67545521084E+03  0.68289192569E+03  0.47000000000E+01 0.  1.
         13    1    4    4    0    0 -0.47549103030E+02 -0.19269114256E+02  0.95938843645E+02  0.10879557750E+03  0.00000000000E+00 0. -1.
        -14    1    4    4    0    0  0.34862956242E+01  0.29551404007E+02  0.18385235790E+03  0.18624480997E+03  0.00000000000E+00 0.  1.
</event>
<event>
12    1  0.8451514E-002  0.1814321E+03  0.7818608E-02  0.1166484E+00
         21   -1    0    0  501  502  0.00000000000E+00  0.00000000000E+00  0.22678258666E+03  0.22678258666E+03  0.00000000000E+00 0.  1.
         21   -1    0    0  502  503 -0.00000000000E+00 -0.00000000000E+00 -0.18552429602E+03  0.18552429602E+03  0.00000000000E+00 0.  1.
         -6    2    1    2    0  503 -0.57060603951E+02  0.10087774426E+02 -0.75788202362E+02  0.19639601727E+03  0.17166790110E+03 0.  0.
        -24    2    3    3    0    0  0.21827316064E+02  0.41091547848E+02 -0.24074367083E+02  0.96993056301E+02  0.81628002482E+02 0.  0.
          6    2    1    2  501    0  0.57060603951E+02 -0.10087774426E+02  0.11704649300E+03  0.21591086541E+03  0.17193005718E+03 0.  0.
         24    2    5    5    0    0 -0.29227972622E+02  0.19042475971E+02  0.41077556407E+02  0.97219419791E+02  0.80915756621E+02 0.  0.
          5    1    5    5  501    0  0.86288576573E+02 -0.29130250397E+02  0.75968936594E+02  0.11869144562E+03  0.47000000000E+01 0. -1.
        -13    1    6    6    0    0  0.11534531059E+02  0.38810092531E+02  0.83714272755E+01  0.41344279939E+02  0.00000000000E+00 0.  1.
         14    1    6    6    0    0 -0.40762503681E+02 -0.19767616560E+02  0.32706129131E+02  0.55875139853E+02  0.00000000000E+00 0. -1.
         -5    1    3    3    0  503 -0.78887920015E+02 -0.31003773422E+02 -0.51713835279E+02  0.99402960972E+02  0.47000000000E+01 0.  1.
         11    1    4    4    0    0  0.40068106873E+02 -0.42096695571E+01  0.42921650728E+01  0.40516628526E+02  0.00000000000E+00 0. -1.
        -12    1    4    4    0    0 -0.18240790809E+02  0.45301217405E+02 -0.28366532156E+02  0.56476427775E+02  0.00000000000E+00 0.  1.
</event>
<event>
12    1  0.8451514E-002  0.2074173E+03  0.7818608E-02  0.1144318E+00
         21   -1    0    0  501  502  0.00000000000E+00  0.00000000000E+00  0.43524896747E+03  0.43524896747E+03  0.00000000000E+00 0. -1.
         21   -1    0    0  502  503 -0.00000000000E+00 -0.00000000000E+00 -0.12533092877E+03  0.12533092877E+03  0.00000000000E+00 0. -1.
         -6    2    1    2    0  503 -0.10334467355E+03 -0.53129748998E+02  0.21250703150E+02  0.20512134265E+03  0.16769102852E+03 0.  0.
        -24    2    3    3    0    0 -0.77883996783E+02 -0.99908692103E+02  0.42259269141E+01  0.14901030465E+03  0.78348891007E+02 0.  0.
          6    2    1    2  501    0  0.10334467355E+03  0.53129748998E+02  0.28866733555E+03  0.35545855359E+03  0.17181111993E+03 0.  0.
         24    2    5    5    0    0  0.11375370010E+03  0.31254219889E+02  0.29722360299E+03  0.32933985684E+03  0.78779061841E+02 0.  0.
          5    1    5    5  501    0 -0.10409026545E+02  0.21875529109E+02 -0.85562674421E+01  0.26118696751E+02  0.47000000000E+01 0. -1.
        -13    1    6    6    0    0  0.11162023015E+03  0.31798179720E+02  0.19381675116E+03  0.22590956828E+03  0.00000000000E+00 0.  1.
         14    1    6    6    0    0  0.21334699502E+01 -0.54395983137E+00  0.10340685183E+03  0.10343028856E+03  0.00000000000E+00 0. -1.
         -5    1    3    3    0  503 -0.25460676768E+02  0.46778943105E+02  0.17024776235E+02  0.56111038000E+02  0.47000000000E+01 0.  1.
         13    1    4    4    0    0 -0.46054659566E+02 -0.74728433070E+02 -0.33155470325E+02  0.93833126290E+02  0.00000000000E+00 0. -1.
        -14    1    4    4    0    0 -0.31829337217E+02 -0.25180259033E+02  0.37381397239E+02  0.55177178364E+02  0.00000000000E+00 0.  1.
</event>
<event>
12    1  0.8451514E-002  0.2033890E+03  0.7818608E-02  0.1149084E+00
         21   -1    0    0  503  502  0.00000000000E+00  0.00000000000E+00  0.62164797420E+02  0.62164797420E+02  0.00000000000E+00 0. -1.
         21   -1    0    0  501  503 -0.00000000000E+00 -0.00000000000E+00 -0.99865847835E+03  0.99865847835E+03  0.00000000000E+00 0.  1.
          6    2    1    2  501    0 -0.70990018436E+02 -0.53600336882E+02 -0.79707810814E+03  0.82261813712E+03  0.18290574136E+03 0.  0.
         24    2    3    3    0    0 -0.97977606251E+02 -0.71209897017E+02 -0.75832340976E+03  0.77199755681E+03  0.79090917195E+02 0.  0.
         -6    2    1    2    0  502  0.70990018436E+02  0.53600336882E+02 -0.13941557279E+03  0.23820513865E+03  0.17144213983E+03 0.  0.
        -24    2    5    5    0    0  0.69718594454E+02 -0.17171926466E+02 -0.12945368456E+03  0.16656953999E+03  0.76364898573E+02 0.  0.
          5    1    3    3  501    0  0.26987587815E+02  0.17609560135E+02 -0.38754698381E+02  0.50620580309E+02  0.47000000000E+01 0. -1.
        -13    1    4    4    0    0 -0.60039668674E+02 -0.82326141849E+01 -0.20373550331E+03  0.21255750530E+03  0.00000000000E+00 0.  1.
         14    1    4    4    0    0 -0.37937937577E+02 -0.62977282832E+02 -0.55458790644E+03  0.55944005151E+03  0.00000000000E+00 0. -1.
         -5    1    5    5    0  502  0.12714239816E+01  0.70772263348E+02 -0.99618882343E+01  0.71635598661E+02  0.47000000000E+01 0.  1.
         11    1    6    6    0    0  0.27253050520E+02 -0.41233941096E+02 -0.36031909198E+02  0.61165882168E+02  0.00000000000E+00 0. -1.
        -12    1    6    6    0    0  0.42465543935E+02  0.24062014630E+02 -0.93421775362E+02  0.10540365782E+03  0.00000000000E+00 0.  1.
</event>
<event>
12    1  0.8451514E-002  0.2201656E+03  0.7818608E-02  0.1134340E+00
         21   -1    0    0  503  502  0.00000000000E+00  0.00000000000E+00  0.49048084304E+02  0.49048084304E+02  0.00000000000E+00 0.  1.
         21   -1    0    0  501  503 -0.00000000000E+00 -0.00000000000E+00 -0.13941546387E+04  0.13941546387E+04  0.00000000000E+00 0. -1.
          6    2    1    2  501    0 -0.77414406912E+02 -0.10941822120E+03 -0.10717963538E+04  0.10941756303E+04  0.17466410136E+03 0.  0.
         24    2    3    3    0    0  0.23468984170E+02 -0.68844008072E+02 -0.60389009362E+03  0.61377779130E+03  0.82156200295E+02 0.  0.
         -6    2    1    2    0  502  0.77414406912E+02  0.10941822120E+03 -0.27331020055E+03  0.34902709270E+03  0.17075159790E+03 0.  0.
        -24    2    5    5    0    0  0.71309456981E+02 -0.79826579611E+00 -0.11807580115E+03  0.15848903042E+03  0.78046153423E+02 0.  0.
          5    1    3    3  501    0 -0.10088339108E+03 -0.40574213124E+02 -0.46790626021E+03  0.48039783900E+03  0.47000000000E+01 0. -1.
        -11    1    4    4    0    0 -0.15997162070E+02 -0.93929830956E+01 -0.33708130709E+03  0.33759138750E+03  0.00000000000E+00 0.  1.
         12    1    4    4    0    0  0.39466146239E+02 -0.59451024976E+02 -0.26680878653E+03  0.27618640379E+03  0.00000000000E+00 0. -1.
         -5    1    5    5    0  502  0.61049499311E+01  0.11021648699E+03 -0.15523439940E+03  0.19053806227E+03  0.47000000000E+01 0.  1.
         11    1    6    6    0    0  0.34569369770E+02 -0.12994642985E+02 -0.11368030701E+03  0.11952871737E+03  0.00000000000E+00 0. -1.
        -12    1    6    6    0    0  0.36740087211E+02  0.12196377189E+02 -0.43954941368E+01  0.38960313057E+02  0.00000000000E+00 0.  1.
</event>
<event>
12    1  0.8451514E-002  0.2487376E+03  0.7818608E-02  0.1114132E+00
         21   -1    0    0  503  502  0.00000000000E+00  0.00000000000E+00  0.35461327158E+03  0.35461327158E+03  0.00000000000E+00 0.  1.
         21   -1    0    0  501  503 -0.00000000000E+00 -0.00000000000E+00 -0.61155301530E+03  0.61155301530E+03  0.00000000000E+00 0. -1.
          6    2    1    2  501    0  0.56025085254E+02 -0.17035679963E+03 -0.53693712726E+03  0.59175321684E+03  0.17236630083E+03 0.  0.
         24    2    3    3    0    0  0.10161231455E+03 -0.12809688431E+03 -0.44474172841E+03  0.48046001181E+03  0.79452776688E+02 0.  0.
         -6    2    1    2    0  502 -0.56025085254E+02  0.17035679963E+03  0.27999738354E+03  0.37441307003E+03  0.17212310381E+03 0.  0.
        -24    2    5    5    0    0 -0.53381700268E+02  0.18537783690E+03  0.28847994998E+03  0.35633924978E+03  0.80885295678E+02 0.  0.
          5    1    3    3  501    0 -0.45587229297E+02 -0.42259915313E+02 -0.92195398848E+02  0.11129320503E+03  0.47000000000E+01 0. -1.
        -11    1    4    4    0    0  0.40246361147E+02 -0.48888596173E+02 -0.79027908298E+02  0.10126833025E+03  0.00000000000E+00 0.  1.
         12    1    4    4    0    0  0.61365953404E+02 -0.79208288139E+02 -0.36571382011E+03  0.37919168156E+03  0.00000000000E+00 0. -1.
         -5    1    5    5    0  502 -0.26433849851E+01 -0.15021037272E+02 -0.84825664458E+01  0.18073820249E+02  0.47000000000E+01 0.  1.
         13    1    6    6    0    0 -0.37933668756E+02  0.19790583447E+02  0.54896968977E+02  0.69601060490E+02  0.00000000000E+00 0. -1.
        -14    1    6    6    0    0 -0.15448031512E+02  0.16558725345E+03  0.23358298100E+03  0.28673818929E+03  0.00000000000E+00 0.  1.
</event>
<event>
12    1  0.8451514E-002  0.1875153E+03  0.7818608E-02  0.1161244E+00
         21   -1    0    0  501  502  0.00000000000E+00  0.00000000000E+00  0.10280671525E+03  0.10280671525E+03  0.00000000000E+00 0. -1.
         21   -1    0    0  502  503 -0.00000000000E+00 -0.00000000000E+00 -0.42805493017E+03  0.42805493017E+03  0.00000000000E+00 0.  1.
         -6    2    1    2    0  503  0.27085854819E+02  0.64093922945E+02 -0.28520909542E+03  0.34133007450E+03  0.17412730159E+03 0.  0.
        -24    2    3    3    0    0 -0.35843637386E+02  0.13258712182E+02 -0.75374272316E+02  0.11639212166E+03  0.80033026102E+02 0.  0.
          6    2    1    2  501    0 -0.27085854819E+02 -0.64093922945E+02 -0.40039119499E+02  0.18953157092E+03  0.17168986806E+03 0.  0.
         24    2    5    5    0    0  0.51727828733E+02 -0.34814375023E+02 -0.21475849896E+02  0.10330179868E+03  0.79512517934E+02 0.  0.
          5    1    5    5  501    0 -0.78813683552E+02 -0.29279547922E+02 -0.18563269602E+02  0.86229772236E+02  0.47000000000E+01 0. -1.
        -13    1    6    6    0    0 -0.96934789912E+01  0.58341621272E+01 -0.27166788188E+02  0.29428478777E+02  0.00000000000E+00 0.  1.
         14    1    6    6    0    0  0.61421307724E+02 -0.40648537150E+02  0.56909382914E+01  0.73873319904E+02  0.00000000000E+00 0. -1.
         -5    1    3    3    0  503  0.62929492204E+02  0.50835210763E+02 -0.20983482310E+03  0.22493795284E+03  0.47000000000E+01 0.  1.
         13    1    4    4    0    0  0.14684302009E+02  0.22577863813E+02 -0.22570691307E+01  0.27027449397E+02  0.00000000000E+00 0. -1.
        -14    1    4    4    0    0 -0.50527939395E+02 -0.93191516310E+01 -0.73117203185E+02  0.89364672261E+02  0.00000000000E+00 0.  1.
</event>
<event>
12    1  0.8451514E-002  0.1836082E+03  0.7818608E-02  0.1164556E+00
         21   -1    0    0  501  502  0.00000000000E+00  0.00000000000E+00  0.39853316448E+02  0.39853316448E+02  0.00000000000E+00 0. -1.
         21   -1    0    0  502  503 -0.00000000000E+00 -0.00000000000E+00 -0.10305741424E+04  0.10305741424E+04  0.00000000000E+00 0. -1.
         -6    2    1    2    0  503 -0.65466854855E+02  0.75591204699E+01 -0.72336138043E+03  0.74609266771E+03  0.17046856815E+03 0.  0.
        -24    2    3    3    0    0  0.31533888286E+02  0.60552028457E+00 -0.33009140212E+03  0.34094965276E+03  0.79319475520E+02 0.  0.
          6    2    1    2  501    0  0.65466854855E+02 -0.75591204699E+01 -0.26735944554E+03  0.32433479115E+03  0.17137366848E+03 0.  0.
         24    2    5    5    0    0  0.58569248609E+02 -0.44682619630E+02 -0.85751461481E+02  0.13878350165E+03  0.80502508070E+02 0.  0.
          5    1    5    5  501    0  0.68976062455E+01  0.37123499160E+02 -0.18160798405E+03  0.18555128950E+03  0.47000000000E+01 0. -1.
        -11    1    6    6    0    0  0.30540543032E+01  0.12961851574E+02  0.79873706206E+01  0.15528519998E+02  0.00000000000E+00 0.  1.
         12    1    6    6    0    0  0.55515194306E+02 -0.57644471203E+02 -0.93738832102E+02  0.12325498166E+03  0.00000000000E+00 0. -1.
         -5    1    3    3    0  503 -0.97000743140E+02  0.69536001853E+01 -0.39326997831E+03  0.40514301495E+03  0.47000000000E+01 0.  1.
         11    1    4    4    0    0  0.18548343432E+02 -0.99273425616E+01 -0.16044273341E+02  0.26457737648E+02  0.00000000000E+00 0. -1.
        -12    1    4    4    0    0  0.12985544854E+02  0.10532862846E+02 -0.31404712878E+03  0.31449191511E+03  0.00000000000E+00 0.  1.
</event>
<event>
12    1  0.8451514E-002  0.1996887E+03  0.7818608E-02  0.1151391E+00
         21   -1    0    0  503  502  0.00000000000E+00  0.00000000000E+00  0.78113790675E+02  0.78113790675E+02  0.00000000000E+00 0.  1.
         21   -1    0    0  501  503 -0.00000000000E+00 -0.00000000000E+00 -0.59292095207E+03  0.59292095207E+03  0.00000000000E+00 0.  1.
          6    2    1    2  501    0  0.24767724368E+02  0.84307825264E+02 -0.39788619922E+03  0.44518424845E+03  0.17931630704E+03 0.  0.
         24    2    3    3    0    0  0.55480412702E+02  0.68595983480E+02 -0.13373426459E+03  0.17874764105E+03  0.79261469279E+02 0.  0.
         -6    2    1    2    0  502 -0.24767724368E+02 -0.84307825264E+02 -0.11692096217E+03  0.22585049429E+03  0.17209498774E+03 0.  0.
        -24    2    5    5    0    0 -0.79634354739E+02 -0.61871361459E+02 -0.53075150684E+02  0.13860303197E+03  0.78893174785E+02 0.  0.
          5    1    3    3  501    0 -0.30712688334E+02  0.15711841783E+02 -0.26415193463E+03  0.26643660740E+03  0.47000000000E+01 0. -1.
        -11    1    4    4    0    0  0.40371685181E+02  0.71439011145E+02 -0.13989513858E+03  0.16218524926E+03  0.00000000000E+00 0.  1.
         12    1    4    4    0    0  0.15108727521E+02 -0.28430276642E+01  0.61608739913E+01  0.16562391794E+02  0.00000000000E+00 0. -1.
         -5    1    5    5    0  502  0.54866630371E+02 -0.22436463805E+02 -0.63845811490E+02  0.87247462319E+02  0.47000000000E+01 0.  1.
         13    1    6    6    0    0  0.42052012105E+01 -0.77871001770E+01 -0.36385233234E+02  0.37446065800E+02  0.00000000000E+00 0. -1.
        -14    1    6    6    0    0 -0.83839555949E+02 -0.54084261282E+02 -0.16689917449E+02  0.10115696617E+03  0.00000000000E+00 0.  1.
</event>
<event>
12    1  0.8451514E-002  0.1767570E+03  0.7818608E-02  0.1171201E+00
         21   -1    0    0  501  502  0.00000000000E+00  0.00000000000E+00  0.11327583527E+04  0.11327583527E+04  0.00000000000E+00 0.  1.
         21   -1    0    0  502  503 -0.00000000000E+00 -0.00000000000E+00 -0.30166609606E+02  0.30166609606E+02  0.00000000000E+00 0.  1.
         -6    2    1    2    0  503 -0.38847119325E+02  0.16651785195E+01  0.72732014725E+03  0.74849023891E+03  0.17242728800E+03 0.  0.
        -24    2    3    3    0    0  0.20227796565E+02 -0.53482149519E+02  0.45735353658E+03  0.46664784616E+03  0.72927709598E+02 0.  0.
          6    2    1    2  501    0  0.38847119325E+02 -0.16651785195E+01  0.37527159586E+03  0.41443472342E+03  0.17150946858E+03 0.  0.
         24    2    5    5    0    0 -0.38011753085E+02  0.28980174298E+02  0.19705323601E+03  0.21788880586E+03  0.79754686531E+02 0.  0.
          5    1    5    5  501    0  0.76858872410E+02 -0.30645352818E+02  0.17821835986E+03  0.19654591755E+03  0.47000000000E+01 0. -1.
        -13    1    6    6    0    0  0.16625791935E+02 -0.74247452538E+01  0.93643821465E+02  0.95397636754E+02  0.00000000000E+00 0.  1.
         14    1    6    6    0    0 -0.54637545020E+02  0.36404919552E+02  0.10340941454E+03  0.12249116911E+03  0.00000000000E+00 0. -1.
         -5    1    3    3    0  503 -0.59074915890E+02  0.55147328038E+02  0.26996661067E+03  0.28184239276E+03  0.47000000000E+01 0.  1.
         11    1    4    4    0    0  0.25350750688E+02 -0.29820341093E+02  0.42193026354E+03  0.42374173808E+03  0.00000000000E+00 0. -1.
        -12    1    4    4    0    0 -0.51229541236E+01 -0.23661808426E+02  0.35423273044E+02  0.42906108075E+02  0.00000000000E+00 0.  1.
</event>
<event>
12    1  0.8451514E-002  0.1940706E+03  0.7818608E-02  0.1159322E+00
         21   -1    0    0  503  502  0.00000000000E+00  0.00000000000E+00  0.10378488963E+04  0.10378488963E+04  0.00000000000E+00 0.  1.
         21   -1    0    0  501  503 -0.00000000000E+00 -0.00000000000E+00 -0.32839325400E+02  0.32839325400E+02  0.00000000000E+00 0.  1.
          6    2    1    2  501    0 -0.17411421987E+02  0.25405975739E+02  0.45120500727E+03  0.48386380766E+03  0.17201629155E+03 0.  0.
         24    2    3    3    0    0  0.39606592055E+02 -0.30244358590E+02  0.27115811887E+03  0.28691968954E+03  0.79453001586E+02 0.  0.
         -6    2    1    2    0  502  0.17411421987E+02 -0.25405975739E+02  0.55380456364E+03  0.58682441405E+03  0.19161100437E+03 0.  0.
        -24    2    5    5    0    0  0.28245729086E+02  0.36812960776E+02  0.14165138488E+03  0.16983411316E+03  0.81397148984E+02 0.  0.
          5    1    3    3  501    0 -0.57018014043E+02  0.55650334329E+02  0.18004688841E+03  0.19694411812E+03  0.47000000000E+01 0. -1.
        -11    1    4    4    0    0 -0.14130506490E+02 -0.39378189592E+01  0.16009916996E+03  0.16076977905E+03  0.00000000000E+00 0.  1.
         12    1    4    4    0    0  0.53737098545E+02 -0.26306539631E+02  0.11105894890E+03  0.12614991050E+03  0.00000000000E+00 0. -1.
         -5    1    5    5    0  502 -0.10834307098E+02 -0.62218936515E+02  0.41215317876E+03  0.41699030089E+03  0.47000000000E+01 0.  1.
         13    1    6    6    0    0  0.17487188761E+02  0.82458895522E+01  0.13770346181E+03  0.13905408970E+03  0.00000000000E+00 0. -1.
        -14    1    6    6    0    0  0.10758540325E+02  0.28567071224E+02  0.39479230679E+01  0.30780023470E+02  0.00000000000E+00 0.  1.
</event>
<event>
12    1  0.8451514E-002  0.1999557E+03  0.7818608E-02  0.1150158E+00
         21   -1    0    0  501  502  0.00000000000E+00  0.00000000000E+00  0.43493409198E+03  0.43493409198E+03  0.00000000000E+00 0. -1.
         21   -1    0    0  502  503 -0.00000000000E+00 -0.00000000000E+00 -0.14179103788E+03  0.14179103788E+03  0.00000000000E+00 0.  1.
         -6    2    1    2    0  503  0.37458408995E+02 -0.91047109291E+02 -0.25416692725E+02  0.20156456701E+03  0.17403895510E+03 0.  0.
        -24    2    3    3    0    0  0.66241095515E+02 -0.30699857414E+02 -0.60525337962E+02  0.12590122832E+03  0.82809653884E+02 0.  0.
          6    2    1    2  501    0 -0.37458408995E+02  0.91047109291E+02  0.31855974683E+03  0.37516056284E+03  0.17196635455E+03 0.  0.
         24    2    5    5    0    0 -0.28783719061E+02  0.93265017090E+02  0.33387161497E+03  0.35681083080E+03  0.79478599616E+02 0.  0.
          5    1    5    5  501    0 -0.86746899341E+01 -0.22179077991E+01 -0.15311868136E+02  0.18349732049E+02  0.47000000000E+01 0. -1.
        -11    1    6    6    0    0  0.11497003841E+02 -0.60117962786E+01  0.83173139794E+02  0.84178940211E+02  0.00000000000E+00 0.  1.
         12    1    6    6    0    0 -0.40280722902E+02  0.99276813368E+02  0.25069847517E+03  0.27263189058E+03  0.00000000000E+00 0. -1.
         -5    1    3    3    0  503 -0.28782686519E+02 -0.60347251877E+02  0.35108645237E+02  0.75663338697E+02  0.47000000000E+01 0.  1.
         11    1    4    4    0    0  0.78380903468E+02 -0.80292186905E+01 -0.26245122141E+02  0.83047220408E+02  0.00000000000E+00 0. -1.
        -12    1    4    4    0    0 -0.12139807953E+02 -0.22670638723E+02 -0.34280215821E+02  0.42854007911E+02  0.00000000000E+00 0.  1.
</event>
<event>
12    1  0.8451514E-002  0.2408166E+03  0.7818608E-02  0.1119362E+00
         21   -1    0    0  503  502  0.00000000000E+00  0.00000000000E+00  0.41814305713E+03  0.41814305713E+03  0.00000000000E+00 0. -1.
         21   -1    0    0  501  503 -0.00000000000E+00 -0.00000000000E+00 -0.18856674358E+03  0.18856674358E+03  0.00000000000E+00 0.  1.
          6    2    1    2  501    0  0.14296342941E+03 -0.88634527884E+02 -0.41950943389E+02  0.24377774926E+03  0.17138578616E+03 0.  0.
         24    2    3    3    0    0  0.49487330094E+02 -0.10431721872E+03 -0.36602586514E+01  0.14144498582E+03  0.81622353308E+02 0.  0.
         -6    2    1    2    0  502 -0.14296342941E+03  0.88634527884E+02  0.27152725694E+03  0.36293205145E+03  0.17233107969E+03 0.  0.
        -24    2    5    5    0    0 -0.64725809567E+02  0.34149937732E+02  0.46059550152E+02  0.11809032191E+03  0.80425078778E+02 0.  0.
          5    1    3    3  501    0  0.93476099317E+02  0.15682690831E+02 -0.38290684738E+02  0.10233276344E+03  0.47000000000E+01 0. -1.
        -13    1    4    4    0    0  0.56157825658E+02 -0.26218395663E+02  0.68756961098E+01  0.62356882946E+02  0.00000000000E+00 0.  1.
         14    1    4    4    0    0 -0.66704955638E+01 -0.78098823052E+02 -0.10535954761E+02  0.79088102872E+02  0.00000000000E+00 0. -1.
         -5    1    5    5    0  502 -0.78237619844E+02  0.54484590152E+02  0.22546770679E+03  0.24484172954E+03  0.47000000000E+01 0.  1.
         11    1    6    6    0    0 -0.29598071829E+02  0.22114697441E+02  0.66225986077E+02  0.75835261791E+02  0.00000000000E+00 0. -1.
        -12    1    6    6    0    0 -0.35127737738E+02  0.12035240291E+02 -0.20166435926E+02  0.42255060116E+02  0.00000000000E+00 0.  1.
</event>
<event>
12    1  0.8451514E-002  0.2231468E+03  0.7818608E-02  0.1131840E+00
         21   -1    0    0  503  502  0.00000000000E+00  0.00000000000E+00  0.82273603163E+03  0.82273603163E+03  0.00000000000E+00 0. -1.
         21   -1    0    0  501  503 -0.00000000000E+00 -0.00000000000E+00 -0.80458258799E+02  0.80458258799E+02  0.00000000000E+00 0. -1.
          6    2    1    2  501    0  0.98820393200E+02  0.10206858277E+03  0.14306839641E+03  0.26378333196E+03  0.17008707908E+03 0.  0.
         24    2    3    3    0    0  0.87288734142E+01  0.51279521915E+02  0.10085770290E+02  0.95252980128E+02  0.79155700123E+02 0.  0.
         -6    2    1    2    0  502 -0.98820393200E+02 -0.10206858277E+03  0.59920937642E+03  0.63941095846E+03  0.17207856146E+03 0.  0.
        -24    2    5    5    0    0 -0.93234896650E+02 -0.71546938100E+02  0.23900352291E+03  0.27784061197E+03  0.79126552996E+02 0.  0.
          5    1    3    3  501    0  0.90091519785E+02  0.50789060857E+02  0.13298262612E+03  0.16853035183E+03  0.47000000000E+01 0. -1.
        -11    1    4    4    0    0  0.17809406026E+02 -0.17621474805E+02  0.18474735206E+00  0.25054449682E+02  0.00000000000E+00 0.  1.
         12    1    4    4    0    0 -0.90805326113E+01  0.68900996720E+02  0.99010229380E+01  0.70198530446E+02  0.00000000000E+00 0. -1.
         -5    1    5    5    0  502 -0.55854965498E+01 -0.30521644673E+02  0.36020585351E+03  0.36157034650E+03  0.47000000000E+01 0.  1.
         11    1    6    6    0    0 -0.72279332057E+02 -0.60711087718E+02  0.23585166611E+03  0.25403965522E+03  0.00000000000E+00 0. -1.
        -12    1    6    6    0    0 -0.20955564593E+02 -0.10835850381E+02  0.31518567979E+01  0.23800956749E+02  0.00000000000E+00 0.  1.
</event>
<event>
12    1  0.8451514E-002  0.1806505E+03  0.7818608E-02  0.1167314E+00
         21   -1    0    0  501  502  0.00000000000E+00  0.00000000000E+00  0.34167916732E+03  0.34167916732E+03  0.00000000000E+00 0. -1.
         21   -1    0    0  502  503 -0.00000000000E+00 -0.00000000000E+00 -0.27934069140E+03  0.27934069140E+03  0.00000000000E+00 0. -1.
         -6    2    1    2    0  503  0.46970847729E+02 -0.26498469165E+02 -0.22094876844E+03  0.28503434005E+03  0.17180741348E+03 0.  0.
        -24    2    3    3    0    0  0.63184256787E+02 -0.59274417432E+02 -0.90727452553E+02  0.14969469867E+03  0.81678181261E+02 0.  0.
          6    2    1    2  501    0 -0.46970847729E+02  0.26498469165E+02  0.28328724437E+03  0.33598551867E+03  0.17241280849E+03 0.  0.
         24    2    5    5    0    0 -0.41364142918E+02  0.37944055978E+02  0.29933552237E+03  0.31495996700E+03  0.80294969679E+02 0.  0.
          5    1    5    5  501    0 -0.56067048115E+01 -0.11445586814E+02 -0.16048278003E+02  0.21025551674E+02  0.47000000000E+01 0. -1.
        -13    1    6    6    0    0 -0.12886044506E+02  0.50431617100E+02  0.95481601821E+02  0.10874803186E+03  0.00000000000E+00 0.  1.
         14    1    6    6    0    0 -0.28478098412E+02 -0.12487561121E+02  0.20385392055E+03  0.20621193514E+03  0.00000000000E+00 0. -1.
         -5    1    3    3    0  503 -0.16213409058E+02  0.32775948267E+02 -0.13022131589E+03  0.13533964138E+03  0.47000000000E+01 0.  1.
         11    1    4    4    0    0 -0.19692768360E+02 -0.74272807709E+01 -0.12406227821E+02  0.24431211883E+02  0.00000000000E+00 0. -1.
        -12    1    4    4    0    0  0.82877025147E+02 -0.51847136661E+02 -0.78321224732E+02  0.12526348678E+03  0.00000000000E+00 0.  1.
</event>
<event>
12    1  0.8451514E-002  0.2809024E+03  0.7818608E-02  0.1095243E+00
         21   -1    0    0  501  502  0.00000000000E+00  0.00000000000E+00  0.56101573295E+03  0.56101573295E+03  0.00000000000E+00 0. -1.
         21   -1    0    0  502  503 -0.00000000000E+00 -0.00000000000E+00 -0.17270199505E+03  0.17270199505E+03  0.00000000000E+00 0.  1.
         -6    2    1    2    0  503  0.65028073927E+00 -0.22127332684E+03  0.35271244770E+03  0.45090154659E+03  0.17304284418E+03 0.  0.
        -24    2    3    3    0    0  0.10677479215E+02 -0.24254373271E+03  0.33774907049E+03  0.42263553285E+03  0.74865801075E+02 0.  0.
          6    2    1    2  501    0 -0.65028073927E+00  0.22127332684E+03  0.35601290198E+02  0.28281618141E+03  0.17249705090E+03 0.  0.
         24    2    5    5    0    0  0.60954764348E+02  0.16087135038E+03  0.46230884039E+02  0.19576068988E+03  0.81178065969E+02 0.  0.
          5    1    5    5  501    0 -0.61605045087E+02  0.60401976461E+02 -0.10629593842E+02  0.87055491531E+02  0.47000000000E+01 0. -1.
        -11    1    6    6    0    0 -0.67822101755E+01  0.92965203416E+02  0.33284272123E+02  0.98976614368E+02  0.00000000000E+00 0.  1.
         12    1    6    6    0    0  0.67736974523E+02  0.67906146962E+02  0.12946611916E+02  0.96784075513E+02  0.00000000000E+00 0. -1.
         -5    1    3    3    0  503 -0.10027198475E+02  0.21270405875E+02  0.14963377213E+02  0.28266013744E+02  0.47000000000E+01 0.  1.
         13    1    4    4    0    0  0.49828860136E+01 -0.13412897465E+03  0.24710559215E+03  0.28120559145E+03  0.00000000000E+00 0. -1.
        -14    1    4    4    0    0  0.56945932009E+01 -0.10841475807E+03  0.90643478340E+02  0.14142994140E+03  0.00000000000E+00 0.  1.
</event>
<event>
12    1  0.8451514E-002  0.2622799E+03  0.7818608E-02  0.1105956E+00
         21   -1    0    0  503  502  0.00000000000E+00  0.00000000000E+00  0.26022951495E+03  0.26022951495E+03  0.00000000000E+00 0. -1.
         21   -1    0    0  501  503 -0.00000000000E+00 -0.00000000000E+00 -0.26586900755E+03  0.26586900755E+03  0.00000000000E+00 0.  1.
          6    2    1    2  501    0 -0.18140918462E+03  0.75241578808E+02 -0.29347663738E+02  0.26274927558E+03  0.17206193363E+03 0.  0.
         24    2    3    3    0    0 -0.19960971143E+03  0.60726575513E+02  0.21723925784E+01  0.22328348727E+03  0.79492405487E+02 0.  0.
         -6    2    1    2    0  502  0.18140918462E+03 -0.75241578808E+02  0.23708171138E+02  0.26334924691E+03  0.17383946912E+03 0.  0.
        -24    2    5    5    0    0  0.10563424316E+03 -0.10728739891E+03  0.48334863803E+02  0.17734145464E+03  0.80277974456E+02 0.  0.
          5    1    3    3  501    0  0.18200526805E+02  0.14515003295E+02 -0.31520056316E+02  0.39465788309E+02  0.47000000000E+01 0. -1.
        -13    1    4    4    0    0 -0.16913784525E+03  0.79152882554E+02  0.92726436189E+01  0.18697264889E+03  0.00000000000E+00 0.  1.
         14    1    4    4    0    0 -0.30471866179E+02 -0.18426307041E+02 -0.71002510405E+01  0.36310838388E+02  0.00000000000E+00 0. -1.
         -5    1    5    5    0  502  0.75774941457E+02  0.32045820103E+02 -0.24626692665E+02  0.86007792266E+02  0.47000000000E+01 0.  1.
         13    1    6    6    0    0  0.82439381544E+02 -0.10217672660E+03  0.92587319265E+01  0.13161329418E+03  0.00000000000E+00 0. -1.
        -14    1    6    6    0    0  0.23194861620E+02 -0.51106723106E+01  0.39076131876E+02  0.45728160465E+02  0.00000000000E+00 0.  1.
</event>
<event>
12    1  0.8451514E-002  0.2132606E+03  0.7818608E-02  0.1139303E+00
         21   -1    0    0  503  502  0.00000000000E+00  0.00000000000E+00  0.55143472337E+02  0.55143472337E+02  0.00000000000E+00 0. -1.
         21   -1    0    0  501  503 -0.00000000000E+00 -0.00000000000E+00 -0.94860244300E+03  0.94860244300E+03  0.00000000000E+00 0.  1.
          6    2    1    2  501    0  0.99636379595E+02 -0.75671235123E+02 -0.63090268394E+03  0.66549174333E+03  0.17084355379E+03 0.  0.
         24    2    3    3    0    0  0.89383528553E+02 -0.10250719961E+03 -0.60906302936E+03  0.62910011714E+03  0.79448363740E+02 0.  0.
         -6    2    1    2    0  502 -0.99636379595E+02  0.75671235123E+02 -0.26255628673E+03  0.33825417201E+03  0.17270361091E+03 0.  0.
        -24    2    5    5    0    0 -0.23605206331E+02  0.79020766429E+02 -0.22450633531E+03  0.25303769784E+03  0.82604446858E+02 0.  0.
          5    1    3    3  501    0  0.10252851042E+02  0.26835964488E+02 -0.21839654574E+02  0.36391626185E+02  0.47000000000E+01 0. -1.
        -11    1    4    4    0    0  0.87294396013E+02 -0.60611082296E+02 -0.32442724474E+03  0.34138988269E+03  0.00000000000E+00 0.  1.
         12    1    4    4    0    0  0.20891325404E+01 -0.41896117315E+02 -0.28463578462E+03  0.28771023445E+03  0.00000000000E+00 0. -1.
         -5    1    5    5    0  502 -0.76031173264E+02 -0.33495313060E+01 -0.38049951421E+02  0.85216474176E+02  0.47000000000E+01 0.  1.
         11    1    6    6    0    0 -0.50546925329E+02  0.44259338197E+02 -0.95690920008E+02  0.11692148156E+03  0.00000000000E+00 0. -1.
        -12    1    6    6    0    0  0.26941718998E+02  0.34761428233E+02 -0.12881541530E+03  0.13611621628E+03  0.00000000000E+00 0.  1.
</event>
<event>
12    1  0.8451514E-002  0.2338576E+03  0.7818608E-02  0.1124490E+00
         21   -1    0    0  503  502  0.00000000000E+00  0.00000000000E+00  0.69150419884E+03  0.69150419884E+03  0.00000000000E+00 0. -1.
         21   -1    0    0  501  503 -0.00000000000E+00 -0.00000000000E+00 -0.99803951961E+02  0.99803951961E+02  0.00000000000E+00 0. -1.
          6    2    1    2  501    0  0.84819647243E+02 -0.12865391133E+03  0.11265567918E+03  0.25957785647E+03  0.17590667997E+03 0.  0.
         24    2    3    3    0    0  0.48985597220E+02 -0.78222000586E+02  0.14477149789E+03  0.18971389886E+03  0.80711255157E+02 0.  0.
         -6    2    1    2    0  502 -0.84819647243E+02  0.12865391133E+03  0.47904456770E+03  0.53173029433E+03  0.17177661834E+03 0.  0.
        -24    2    5    5    0    0 -0.20710151726E+01  0.12422109837E+03  0.29293628093E+03  0.32795254691E+03  0.79410565757E+02 0.  0.
          5    1    3    3  501    0  0.35834050023E+02 -0.50431910741E+02 -0.32115818706E+02  0.69863957612E+02  0.47000000000E+01 0. -1.
        -13    1    4    4    0    0 -0.21665982330E+02 -0.20633879390E+02  0.23708267162E+02  0.38173992466E+02  0.00000000000E+00 0.  1.
         14    1    4    4    0    0  0.70651579550E+02 -0.57588121195E+02  0.12106323072E+03  0.15153990639E+03  0.00000000000E+00 0. -1.
         -5    1    5    5    0  502 -0.82748632071E+02  0.44328129524E+01  0.18610828676E+03  0.20377774742E+03  0.47000000000E+01 0.  1.
         13    1    6    6    0    0 -0.35677765060E+02  0.91817020300E+02  0.22392681858E+03  0.24463541897E+03  0.00000000000E+00 0. -1.
        -14    1    6    6    0    0  0.33606749887E+02  0.32404078075E+02  0.69009462357E+02  0.83317127943E+02  0.00000000000E+00 0.  1.
</event>
<event>
12    1  0.8451514E-002  0.2087415E+03  0.7818608E-02  0.1142935E+00
         21   -1    0    0  503  502  0.00000000000E+00  0.00000000000E+00  0.13585267659E+04  0.13585267659E+04  0.00000000000E+00 0.  1.
         21   -1    0    0  501  503 -0.00000000000E+00 -0.00000000000E+00 -0.32501377788E+02  0.32501377788E+02  0.00000000000E+00 0. -1.
          6    2    1    2  501    0  0.94434887173E+02 -0.69540179822E+02  0.76290943465E+03  0.79046790854E+03  0.17045505106E+03 0.  0.
         24    2    3    3    0    0  0.87677025842E+02  0.18898331605E+02  0.43693169538E+03  0.45260607954E+03  0.76802011800E+02 0.  0.
         -6    2    1    2    0  502 -0.94434887173E+02  0.69540179822E+02  0.56311595342E+03  0.60056023511E+03  0.17268246717E+03 0.  0.
        -24    2    5    5    0    0  0.13703400514E+02  0.27735577397E+02  0.32308351258E+03  0.33395345218E+03  0.78644177657E+02 0.  0.
          5    1    3    3  501    0  0.67578613306E+01 -0.88438511427E+02  0.32597773927E+03  0.33786182900E+03  0.47000000000E+01 0. -1.
        -13    1    4    4    0    0  0.18243253657E+02 -0.14287048475E+01  0.27063947348E+03  0.27125740931E+03  0.00000000000E+00 0.  1.
         14    1    4    4    0    0  0.69433772186E+02  0.20327036453E+02  0.16629222189E+03  0.18134867023E+03  0.00000000000E+00 0. -1.
         -5    1    5    5    0  502 -0.10813828769E+03  0.41804602425E+02  0.24003244084E+03  0.26660678293E+03  0.47000000000E+01 0.  1.
         11    1    6    6    0    0 -0.64088217524E+01 -0.26111586963E+02  0.11220781072E+03  0.11538405763E+03  0.00000000000E+00 0. -1.
        -12    1    6    6    0    0  0.20112222266E+02  0.53847164360E+02  0.21087570187E+03  0.21856939454E+03  0.00000000000E+00 0.  1.
</event>
<event>
12    1  0.8451514E-002  0.2621361E+03  0.7818608E-02  0.1105956E+00
         21   -1    0    0  503  502  0.00000000000E+00  0.00000000000E+00  0.11534582034E+04  0.11534582034E+04  0.00000000000E+00 0. -1.
         21   -1    0    0  501  503 -0.00000000000E+00 -0.00000000000E+00 -0.12264158053E+03  0.12264158053E+03  0.00000000000E+00 0.  1.
          6    2    1    2  501    0 -0.19392419062E+03 -0.40099982758E+02  0.57074562958E+02  0.26769066229E+03  0.17083964591E+03 0.  0.
         24    2    3    3    0    0 -0.13320792251E+03 -0.79585579752E+02 -0.27914850515E+01  0.17360766017E+03  0.77804962294E+02 0.  0.
         -6    2    1    2    0  502  0.19392419062E+03  0.40099982758E+02  0.97374205987E+03  0.10084091216E+04  0.17175784415E+03 0.  0.
        -24    2    5    5    0    0  0.15649919164E+03  0.70157027512E+02  0.90402949447E+03  0.92363891302E+03  0.80159274380E+02 0.  0.
          5    1    3    3  501    0 -0.60716268114E+02  0.39485596994E+02  0.59866048009E+02  0.94083002120E+02  0.47000000000E+01 0. -1.
        -13    1    4    4    0    0 -0.13639741256E+03 -0.76734635235E+02  0.13197623970E+02  0.15705615453E+03  0.00000000000E+00 0.  1.
         14    1    4    4    0    0  0.31894900577E+01 -0.28509445174E+01 -0.15989109021E+02  0.16551505634E+02  0.00000000000E+00 0. -1.
         -5    1    5    5    0  502  0.37424998979E+02 -0.30057044754E+02  0.69712565399E+02  0.84770208579E+02  0.47000000000E+01 0.  1.
         11    1    6    6    0    0  0.84566974476E+02 -0.19826291356E+01  0.33188569433E+03  0.34249615777E+03  0.00000000000E+00 0. -1.
        -12    1    6    6    0    0  0.71932217165E+02  0.72139656648E+02  0.57214380015E+03  0.58114275524E+03  0.00000000000E+00 0.  1.
</event>
<event>
12    1  0.8451514E-002  0.2041036E+03  0.7818608E-02  0.1146402E+00
         21   -1    0    0  501  502  0.00000000000E+00  0.00000000000E+00  0.10038139853E+03  0.10038139853E+03  0.00000000000E+00 0. -1.
         21   -1    0    0  502  503 -0.00000000000E+00 -0.00000000000E+00 -0.74666786289E+03  0.74666786289E+03  0.00000000000E+00 0.  1.
         -6    2    1    2    0  503  0.10068466928E+03 -0.42752002038E+02 -0.60592017325E+03  0.63937277818E+03  0.17231702416E+03 0.  0.
        -24    2    3    3    0    0 -0.16601939951E+01 -0.52110176403E+02 -0.21532219862E+03  0.23545333788E+03  0.79727024089E+02 0.  0.
          6    2    1    2  501    0 -0.10068466928E+03  0.42752002038E+02 -0.40366291107E+02  0.20767648325E+03  0.17185734761E+03 0.  0.
         24    2    5    5    0    0 -0.96415011670E+01  0.71186561281E+02 -0.61168254920E+01  0.10622453149E+03  0.78011220248E+02 0.  0.
          5    1    5    5  501    0 -0.91043168116E+02 -0.28434559244E+02 -0.34249465615E+02  0.10145195176E+03  0.47000000000E+01 0. -1.
        -11    1    6    6    0    0 -0.32380956932E+02  0.54162789006E+02 -0.29285323013E+02  0.69568414016E+02  0.00000000000E+00 0.  1.
         12    1    6    6    0    0  0.22739455765E+02  0.17023772276E+02  0.23168497521E+02  0.36656117475E+02  0.00000000000E+00 0. -1.
         -5    1    3    3    0  503  0.10234486328E+03  0.93581743655E+01 -0.39059797463E+03  0.40391944030E+03  0.47000000000E+01 0.  1.
         13    1    4    4    0    0 -0.26744128931E+02  0.86132468849E+01 -0.84703369214E+02  0.89241790717E+02  0.00000000000E+00 0. -1.
        -14    1    4    4    0    0  0.25083934936E+02 -0.60723423288E+02 -0.13061882941E+03  0.14621154716E+03  0.00000000000E+00 0.  1.
</event>
<event>
12    1  0.8451514E-002  0.2038668E+03  0.7818608E-02  0.1146606E+00
         21   -1    0    0  501  502  0.00000000000E+00  0.00000000000E+00  0.20263691597E+03  0.20263691597E+03  0.00000000000E+00 0. -1.
         21   -1    0    0  502  503 -0.00000000000E+00 -0.00000000000E+00 -0.23678831094E+03  0.23678831094E+03  0.00000000000E+00 0.  1.
         -6    2    1    2    0  503  0.85796204197E+02  0.69195977233E+02 -0.98011503116E+02  0.22620327529E+03  0.17150100608E+03 0.  0.
        -24    2    3    3    0    0  0.44396424689E+02  0.20018992588E+01 -0.11309751807E+03  0.14571312865E+03  0.80412792157E+02 0.  0.
          6    2    1    2  501    0 -0.85796204197E+02 -0.69195977233E+02  0.63860108143E+02  0.21322195162E+03  0.17098659398E+03 0.  0.
         24    2    5    5    0    0  0.20865439206E+02 -0.21257876216E+02  0.15886357011E+02  0.86737413037E+02  0.79898301777E+02 0.  0.
          5    1    5    5  501    0 -0.10666164340E+03 -0.47938101017E+02  0.47973751132E+02  0.12648453858E+03  0.47000000000E+01 0. -1.
        -13    1    6    6    0    0  0.14756943457E+01 -0.50165940837E+02  0.12787728055E+02  0.51791169930E+02  0.00000000000E+00 0.  1.
         14    1    6    6    0    0  0.19389744860E+02  0.28908064622E+02  0.30986289561E+01  0.34946243107E+02  0.00000000000E+00 0. -1.
         -5    1    3    3    0  503  0.41399779508E+02  0.67194077974E+02  0.15086014953E+02  0.80490146635E+02  0.47000000000E+01 0.  1.
         13    1    4    4    0    0 -0.21828198816E+02  0.48668358972E+01 -0.13656817084E+02  0.26204293695E+02  0.00000000000E+00 0. -1.
        -14    1    4    4    0    0  0.66224623505E+02 -0.28649366384E+01 -0.99440700985E+02  0.11950883496E+03  0.00000000000E+00 0.  1.
</event>
<event>
12    1  0.8451514E-002  0.1931660E+03  0.7818608E-02  0.1156425E+00
         21   -1    0    0  503  502  0.00000000000E+00  0.00000000000E+00  0.81125007852E+03  0.81125007852E+03  0.00000000000E+00 0. -1.
         21   -1    0    0  501  503 -0.00000000000E+00 -0.00000000000E+00 -0.50462913820E+02  0.50462913820E+02  0.00000000000E+00 0. -1.
          6    2    1    2  501    0 -0.63338802312E+02 -0.63182494573E+02  0.23752128812E+03  0.30393141613E+03  0.16719483217E+03 0.  0.
         24    2    3    3    0    0 -0.12541453374E+02 -0.21613013866E+02  0.22061605818E+03  0.23598828414E+03  0.79966334822E+02 0.  0.
         -6    2    1    2    0  502  0.63338802312E+02  0.63182494573E+02  0.52326587658E+03  0.55778157620E+03  0.17119952589E+03 0.  0.
        -24    2    5    5    0    0  0.15824531344E+02 -0.29611400476E+02  0.28062151401E+03  0.29364772833E+03  0.79707611943E+02 0.  0.
          5    1    3    3  501    0 -0.50797348938E+02 -0.41569480707E+02  0.16905229942E+02  0.67943131991E+02  0.47000000000E+01 0. -1.
        -13    1    4    4    0    0 -0.19392702502E+01  0.16875226795E+02  0.17308335430E+03  0.17391486878E+03  0.00000000000E+00 0.  1.
         14    1    4    4    0    0 -0.10602183124E+02 -0.38488240661E+02  0.47532703878E+02  0.62073415357E+02  0.00000000000E+00 0. -1.
         -5    1    5    5    0  502  0.47514270969E+02  0.92793895049E+02  0.24264436257E+03  0.26413384787E+03  0.47000000000E+01 0.  1.
         13    1    6    6    0    0  0.16064262276E+02 -0.17052075965E+02  0.28009716409E+03  0.28107517704E+03  0.00000000000E+00 0. -1.
        -14    1    6    6    0    0 -0.23973093251E+00 -0.12559324511E+02  0.52434991339E+00  0.12572551290E+02  0.00000000000E+00 0.  1.
</event>
<event>
12    1  0.8451514E-002  0.1846104E+03  0.7818608E-02  0.1163615E+00
         21   -1    0    0  503  502  0.00000000000E+00  0.00000000000E+00  0.29695309281E+03  0.29695309281E+03  0.00000000000E+00 0. -1.
         21   -1    0    0  501  503 -0.00000000000E+00 -0.00000000000E+00 -0.11873590056E+03  0.11873590056E+03  0.00000000000E+00 0.  1.
          6    2    1    2  501    0  0.49751588718E+02  0.39152468266E+02  0.48848494129E+02  0.19096383814E+03  0.17341532731E+03 0.  0.
         24    2    3    3    0    0  0.11070879622E+02 -0.43276419521E+02  0.88194297765E+01  0.91389068285E+02  0.79238668580E+02 0.  0.
         -6    2    1    2    0  502 -0.49751588718E+02 -0.39152468266E+02  0.12936869812E+03  0.22472515523E+03  0.17250217097E+03 0.  0.
        -24    2    5    5    0    0 -0.29290534239E+02  0.11164307990E+02  0.15688109796E+01  0.85781519626E+02  0.79833769625E+02 0.  0.
          5    1    3    3  501    0  0.38680709096E+02  0.82428887786E+02  0.40029064353E+02  0.99574769851E+02  0.47000000000E+01 0. -1.
        -11    1    4    4    0    0 -0.22500047572E+02 -0.51739123323E+01  0.28718090820E+02  0.36847662747E+02  0.00000000000E+00 0.  1.
         12    1    4    4    0    0  0.33570927194E+02 -0.38102507188E+02 -0.19898661044E+02  0.54541405538E+02  0.00000000000E+00 0. -1.
         -5    1    5    5    0  502 -0.20461054479E+02 -0.50316776255E+02  0.12779988714E+03  0.13894363561E+03  0.47000000000E+01 0.  1.
         11    1    6    6    0    0  0.23370142498E+02  0.15165138400E+02 -0.13363489750E+02  0.30898670543E+02  0.00000000000E+00 0. -1.
        -12    1    6    6    0    0 -0.52660676737E+02 -0.40008304101E+01  0.14932300729E+02  0.54882849083E+02  0.00000000000E+00 0.  1.
</event>
<event>
12    1  0.8451514E-002  0.1972985E+03  0.7818608E-02  0.1152061E+00
         21   -1    0    0  503  502  0.00000000000E+00  0.00000000000E+00  0.16029353790E+03  0.16029353790E+03  0.00000000000E+00 0.  1.
         21   -1    0    0  501  503 -0.00000000000E+00 -0.00000000000E+00 -0.31012221649E+03  0.31012221649E+03  0.00000000000E+00 0.  1.
          6    2    1    2  501    0 -0.16410602322E+02  0.94258011797E+02 -0.18455293333E+03  0.27008486820E+03  0.17243018928E+03 0.  0.
         24    2    3    3    0    0  0.80812941044E+01  0.12174073248E+03 -0.18330528455E+03  0.23295267793E+03  0.76026374037E+02 0.  0.
         -6    2    1    2    0  502  0.16410602322E+02 -0.94258011797E+02  0.34724254737E+02  0.20033088619E+03  0.17254799170E+03 0.  0.
        -24    2    5    5    0    0  0.57101400602E+02 -0.76784755641E+02  0.62563983739E+02  0.14781235369E+03  0.93689760341E+02 0.  0.
          5    1    3    3  501    0 -0.24491896426E+02 -0.27482720688E+02 -0.12476487771E+01  0.37132190272E+02  0.47000000000E+01 0. -1.
        -11    1    4    4    0    0  0.15308632812E+02  0.99927014880E+02 -0.18402211657E+03  0.20996166776E+03  0.00000000000E+00 0.  1.
         12    1    4    4    0    0 -0.72273387078E+01  0.21813717605E+02  0.71683201635E+00  0.22991010171E+02  0.00000000000E+00 0. -1.
         -5    1    5    5    0  502 -0.40690798280E+02 -0.17473256155E+02 -0.27839729002E+02  0.52518532503E+02  0.47000000000E+01 0.  1.
         11    1    6    6    0    0  0.53391723653E+02 -0.20634157240E+02  0.70686483860E+02  0.90956163069E+02  0.00000000000E+00 0. -1.
        -12    1    6    6    0    0  0.37096769485E+01 -0.56150598401E+02 -0.81225001208E+01  0.56856190622E+02  0.00000000000E+00 0.  1.
</event>
<event>
12    1  0.8451514E-002  0.2679706E+03  0.7818608E-02  0.1102534E+00
         21   -1    0    0  503  502  0.00000000000E+00  0.00000000000E+00  0.78837596170E+03  0.78837596170E+03  0.00000000000E+00 0. -1.
         21   -1    0    0  501  503 -0.00000000000E+00 -0.00000000000E+00 -0.94791345172E+02  0.94791345172E+02  0.00000000000E+00 0. -1.
          6    2    1    2  501    0 -0.19576678230E+03  0.61255904757E+02  0.43612446717E+03  0.51155731216E+03  0.17149173112E+03 0.  0.
         24    2    3    3    0    0 -0.77417071394E+01  0.27770643038E+02  0.58096259275E+02  0.87998452490E+02  0.59476126763E+02 0.  0.
         -6    2    1    2    0  502  0.19576678230E+03 -0.61255904757E+02  0.25746014936E+03  0.37160999472E+03  0.17242778414E+03 0.  0.
        -24    2    5    5    0    0  0.12448448341E+03 -0.10760965881E+03  0.18336563262E+03  0.25872986333E+03  0.79006086311E+02 0.  0.
          5    1    3    3  501    0 -0.18802507516E+03  0.33485261719E+02  0.37802820789E+03  0.42355885967E+03  0.47000000000E+01 0. -1.
        -13    1    4    4    0    0 -0.18533643690E+02  0.88760682577E+01 -0.50900350088E+01  0.21170474547E+02  0.00000000000E+00 0.  1.
         14    1    4    4    0    0  0.10791936551E+02  0.18894574780E+02  0.63186294284E+02  0.66827977943E+02  0.00000000000E+00 0. -1.
         -5    1    5    5    0  502  0.71282298895E+02  0.46353754052E+02  0.74094516747E+02  0.11288013139E+03  0.47000000000E+01 0.  1.
         11    1    6    6    0    0  0.72754916287E+02 -0.13200899442E+02  0.87709830617E+02  0.11471946642E+03  0.00000000000E+00 0. -1.
        -12    1    6    6    0    0  0.51729567119E+02 -0.94408759367E+02  0.95655802000E+02  0.14401039690E+03  0.00000000000E+00 0.  1.
</event>
<event>
12    1  0.8451514E-002  0.2396832E+03  0.7818608E-02  0.1120204E+00
         21   -1    0    0  503  502  0.00000000000E+00  0.00000000000E+00  0.48237545190E+03  0.48237545190E+03  0.00000000000E+00 0.  1.
         21   -1    0    0  501  503 -0.00000000000E+00 -0.00000000000E+00 -0.19946634492E+03  0.19946634492E+03  0.00000000000E+00 0.  1.
          6    2    1    2  501    0  0.11411442542E+03 -0.12143627310E+03 -0.75539052831E+02  0.25130491625E+03  0.17227635333E+03 0.  0.
         24    2    3    3    0    0  0.12499331356E+03 -0.11676777780E+03 -0.10710552900E+03  0.21726556442E+03  0.80465450796E+02 0.  0.
         -6    2    1    2    0  502 -0.11411442542E+03  0.12143627310E+03  0.35844815981E+03  0.43053688057E+03  0.17061081955E+03 0.  0.
        -24    2    5    5    0    0 -0.77315291856E+02  0.94097972706E+02  0.12301577008E+03  0.19063677838E+03  0.79858742537E+02 0.  0.
          5    1    3    3  501    0 -0.10878888139E+02 -0.46684952953E+01  0.31566476172E+02  0.34039351835E+02  0.47000000000E+01 0. -1.
        -11    1    4    4    0    0  0.23415342617E+02 -0.95885653739E+01  0.11568426159E+02  0.27821706267E+02  0.00000000000E+00 0.  1.
         12    1    4    4    0    0  0.10157797094E+03 -0.10717921243E+03 -0.11867395516E+03  0.18944385815E+03  0.00000000000E+00 0. -1.
         -5    1    5    5    0  502 -0.36799133564E+02  0.27338300394E+02  0.23543238973E+03  0.23990010219E+03  0.47000000000E+01 0.  1.
         13    1    6    6    0    0 -0.49629509279E+02  0.19099158694E+02  0.13179787632E+02  0.54786612016E+02  0.00000000000E+00 0. -1.
        -14    1    6    6    0    0 -0.27685782576E+02  0.74998814012E+02  0.10983598245E+03  0.13585016636E+03  0.00000000000E+00 0.  1.
</event>
<event>
12    1  0.8451514E-002  0.1767580E+03  0.7818608E-02  0.1171862E+00
         21   -1    0    0  503  502  0.00000000000E+00  0.00000000000E+00  0.42484670338E+03  0.42484670338E+03  0.00000000000E+00 0. -1.
         21   -1    0    0  501  503 -0.00000000000E+00 -0.00000000000E+00 -0.72845428906E+02  0.72845428906E+02  0.00000000000E+00 0. -1.
          6    2    1    2  501    0  0.19448563816E+01  0.12699020496E+02  0.15224843027E+03  0.23328735577E+03  0.17629055066E+03 0.  0.
         24    2    3    3    0    0 -0.31787990756E+02 -0.35448294739E+02  0.14721096445E+03  0.17409668926E+03  0.79821871680E+02 0.  0.
         -6    2    1    2    0  502 -0.19448563816E+01 -0.12699020496E+02  0.19975284420E+03  0.26440477652E+03  0.17275311717E+03 0.  0.
        -24    2    5    5    0    0  0.53277955810E+02  0.33268811278E+02  0.10567638102E+03  0.14593506955E+03  0.78639637845E+02 0.  0.
          5    1    3    3  501    0  0.33732847138E+02  0.48147315235E+02  0.50374658228E+01  0.59190666513E+02  0.47000000000E+01 0. -1.
        -13    1    4    4    0    0 -0.21273979350E+01 -0.31976085265E+02  0.98491179479E+01  0.33526123772E+02  0.00000000000E+00 0.  1.
         14    1    4    4    0    0 -0.29660592821E+02 -0.34722094739E+01  0.13736184650E+03  0.14057056548E+03  0.00000000000E+00 0. -1.
         -5    1    5    5    0  502 -0.55222812192E+02 -0.45967831774E+02  0.94076463180E+02  0.11846970697E+03  0.47000000000E+01 0.  1.
         11    1    6    6    0    0  0.24094418904E+02 -0.20611116739E+02  0.11803518215E+02  0.33833152348E+02  0.00000000000E+00 0. -1.
        -12    1    6    6    0    0  0.29183536906E+02  0.53879928017E+02  0.93872862806E+02  0.11210191720E+03  0.00000000000E+00 0.  1.
</event>
<event>
12    1  0.8451514E-002  0.1863051E+03  0.7818608E-02  0.1162316E+00
         21   -1    0    0  503  502  0.00000000000E+00  0.00000000000E+00  0.59061631453E+02  0.59061631453E+02  0.00000000000E+00 0.  1.
         21   -1    0    0  501  503 -0.00000000000E+00 -0.00000000000E+00 -0.68226790810E+03  0.68226790810E+03  0.00000000000E+00 0.  1.
          6    2    1    2  501    0  0.27066782106E+02 -0.71044773674E+02 -0.45278305413E+03  0.48883466625E+03  0.16782987297E+03 0.  0.
         24    2    3    3    0    0  0.63724634410E+02 -0.59112560082E+02 -0.28937754759E+03  0.32087745318E+03  0.10801782777E+03 0.  0.
         -6    2    1    2    0  502 -0.27066782106E+02  0.71044773674E+02 -0.17042322251E+03  0.25249487330E+03  0.17008708273E+03 0.  0.
        -24    2    5    5    0    0 -0.52853637872E+02  0.13685771509E+02 -0.16128516482E+03  0.18877194840E+03  0.81493169864E+02 0.  0.
          5    1    3    3  501    0 -0.36657852303E+02 -0.11932213592E+02 -0.16340550654E+03  0.16795721308E+03  0.47000000000E+01 0. -1.
        -11    1    4    4    0    0 -0.12369302513E+02 -0.26533749655E+02 -0.18674075464E+03  0.18902155686E+03  0.00000000000E+00 0.  1.
         12    1    4    4    0    0  0.76093936923E+02 -0.32578810427E+02 -0.10263679296E+03  0.13185589632E+03  0.00000000000E+00 0. -1.
         -5    1    5    5    0  502  0.25786855765E+02  0.57359002165E+02 -0.91380576998E+01  0.63722924903E+02  0.47000000000E+01 0.  1.
         13    1    6    6    0    0 -0.41934855332E+02 -0.30469290289E+02 -0.74035857751E+02  0.90378194136E+02  0.00000000000E+00 0. -1.
        -14    1    6    6    0    0 -0.10918782540E+02  0.44155061798E+02 -0.87249307064E+02  0.98393754262E+02  0.00000000000E+00 0.  1.
</event>
<event>
12    1  0.8451514E-002  0.2774582E+03  0.7818608E-02  0.1097214E+00
         21   -1    0    0  503  502  0.00000000000E+00  0.00000000000E+00  0.16248349106E+03  0.16248349106E+03  0.00000000000E+00 0. -1.
         21   -1    0    0  501  503 -0.00000000000E+00 -0.00000000000E+00 -0.67565799788E+03  0.67565799788E+03  0.00000000000E+00 0. -1.
          6    2    1    2  501    0 -0.18561906124E+03  0.11257827233E+03 -0.48685066355E+03  0.56036291698E+03  0.17278520431E+03 0.  0.
         24    2    3    3    0    0 -0.16386024335E+03  0.29138873323E+02 -0.26648564448E+03  0.32368082832E+03  0.77816621731E+02 0.  0.
         -6    2    1    2    0  502  0.18561906124E+03 -0.11257827233E+03 -0.26323843262E+02  0.27777857195E+03  0.17128831547E+03 0.  0.
        -24    2    5    5    0    0  0.18448714710E+02 -0.17019094462E+02 -0.46450809641E-01  0.83381883230E+02  0.79514348658E+02 0.  0.
          5    1    3    3  501    0 -0.21758817887E+02  0.83439399007E+02 -0.22036501908E+03  0.23668208867E+03  0.47000000000E+01 0. -1.
        -11    1    4    4    0    0 -0.13815582126E+03  0.58082524564E+01 -0.15894235324E+03  0.21067377245E+03  0.00000000000E+00 0.  1.
         12    1    4    4    0    0 -0.25704422087E+02  0.23330620866E+02 -0.10754329124E+03  0.11300705587E+03  0.00000000000E+00 0. -1.
         -5    1    5    5    0  502  0.16717034653E+03 -0.95559177868E+02 -0.26277392452E+02  0.19439668872E+03  0.47000000000E+01 0.  1.
         13    1    6    6    0    0  0.12753701004E+02 -0.46953704119E+02 -0.12860073289E+02  0.50325825426E+02  0.00000000000E+00 0. -1.
        -14    1    6    6    0    0  0.56950137060E+01  0.29934609658E+02  0.12813622479E+02  0.33056057804E+02  0.00000000000E+00 0.  1.
</event>
<event>
12    1  0.8451514E-002  0.1940920E+03  0.7818608E-02  0.1155191E+00
         21   -1    0    0  501  502  0.00000000000E+00  0.00000000000E+00  0.38243087071E+02  0.38243087071E+02  0.00000000000E+00 0.  1.
         21   -1    0    0  502  503 -0.00000000000E+00 -0.00000000000E+00 -0.99907560683E+03  0.99907560683E+03  0.00000000000E+00 0. -1.
         -6    2    1    2    0  503  0.69537245002E+02  0.52877846315E+02 -0.55621642244E+03  0.58855831282E+03  0.17144294653E+03 0.  0.
        -24    2    3    3    0    0  0.38123216487E+02  0.49939626995E+02 -0.14892842334E+03  0.18002302850E+03  0.79254460635E+02 0.  0.
          6    2    1    2  501    0 -0.69537245002E+02 -0.52877846315E+02 -0.40461609732E+03  0.44876038109E+03  0.17332108456E+03 0.  0.
         24    2    5    5    0    0 -0.11454412621E+03 -0.47687713723E+02 -0.32776178738E+03  0.35942264109E+03  0.79764470608E+02 0.  0.
          5    1    5    5  501    0  0.45006881207E+02 -0.51901325916E+01 -0.76854309937E+02  0.89337740000E+02  0.47000000000E+01 0. -1.
        -13    1    6    6    0    0 -0.40020378805E+02 -0.56762127432E+02 -0.12186950795E+03  0.14027026341E+03  0.00000000000E+00 0.  1.
         14    1    6    6    0    0 -0.74523747405E+02  0.90744137089E+01 -0.20589227943E+03  0.21915237768E+03  0.00000000000E+00 0. -1.
         -5    1    3    3    0  503  0.31414028515E+02  0.29382193199E+01 -0.40728799910E+03  0.40853528432E+03  0.47000000000E+01 0.  1.
         13    1    4    4    0    0  0.32617871292E+02 -0.45775763057E+01 -0.16781364371E+02  0.36966118576E+02  0.00000000000E+00 0. -1.
        -14    1    4    4    0    0  0.55053451950E+01  0.54517203301E+02 -0.13214705897E+03  0.14305690992E+03  0.00000000000E+00 0.  1.
</event>
<event>
12    1  0.8451514E-002  0.2001467E+03  0.7818608E-02  0.1152013E+00
         21   -1    0    0  501  502  0.00000000000E+00  0.00000000000E+00  0.18407057880E+03  0.18407057880E+03  0.00000000000E+00 0.  1.
         21   -1    0    0  502  503 -0.00000000000E+00 -0.00000000000E+00 -0.22291363515E+03  0.22291363515E+03  0.00000000000E+00 0.  1.
         -6    2    1    2    0  503 -0.87354374858E+02 -0.47348781495E+02  0.36449824907E+02  0.20343871345E+03  0.17374126303E+03 0.  0.
        -24    2    3    3    0    0 -0.71165073663E+02  0.36761386939E+02  0.23468237358E+02  0.11667912884E+03  0.81531550107E+02 0.  0.
          6    2    1    2  501    0  0.87354374858E+02  0.47348781495E+02 -0.75292881259E+02  0.20354550049E+03  0.16090077341E+03 0.  0.
         24    2    5    5    0    0  0.10343461149E+03 -0.76759261631E+01 -0.35819937611E+02  0.13378522710E+03  0.76536137633E+02 0.  0.
          5    1    5    5  501    0 -0.16080236631E+02  0.55024707658E+02 -0.39472943648E+02  0.69760273388E+02  0.47000000000E+01 0. -1.
        -13    1    6    6    0    0  0.19983791933E+02 -0.15787524482E+02  0.20574362496E+02  0.32739918470E+02  0.00000000000E+00 0.  1.
         14    1    6    6    0    0  0.83450819556E+02  0.81115983185E+01 -0.56394300107E+02  0.10104530863E+03  0.00000000000E+00 0. -1.
         -5    1    3    3    0  503 -0.16189301196E+02 -0.84110168435E+02  0.12981587550E+02  0.86759584615E+02  0.47000000000E+01 0.  1.
         11    1    4    4    0    0 -0.27971415955E+02  0.17179773232E+02 -0.30517959604E+02  0.44820649005E+02  0.00000000000E+00 0. -1.
        -12    1    4    4    0    0 -0.43193657708E+02  0.19581613707E+02  0.53986196962E+02  0.71858479833E+02  0.00000000000E+00 0.  1.
</event>
<event>
12    1  0.8451514E-002  0.2488938E+03  0.7818608E-02  0.1114147E+00
         21   -1    0    0  501  502  0.00000000000E+00  0.00000000000E+00  0.57017680097E+02  0.57017680097E+02  0.00000000000E+00 0.  1.
         21   -1    0    0  502  503 -0.00000000000E+00 -0.00000000000E+00 -0.11001004199E+04  0.11001004199E+04  0.00000000000E+00 0. -1.
         -6    2    1    2    0  503 -0.17755359022E+03  0.23324422927E+02 -0.44769260206E+03  0.51179837860E+03  0.17157974325E+03 0.  0.
        -24    2    3    3    0    0 -0.19062082035E+03  0.73674887287E+01 -0.31027608502E+03  0.37276325567E+03  0.79313421326E+02 0.  0.
          6    2    1    2  501    0  0.17755359022E+03 -0.23324422927E+02 -0.59539013775E+03  0.64531972140E+03  0.17285491199E+03 0.  0.
         24    2    5    5    0    0  0.29162502012E+02 -0.30809900913E+01 -0.11776952871E+03  0.14474680183E+03  0.78879849920E+02 0.  0.
          5    1    5    5  501    0  0.14839108821E+03 -0.20243432836E+02 -0.47762060904E+03  0.50057291957E+03  0.47000000000E+01 0. -1.
        -13    1    6    6    0    0  0.39091210038E+02  0.29956443503E+02 -0.76163966336E+02  0.90699840008E+02  0.00000000000E+00 0.  1.
         14    1    6    6    0    0 -0.99287080254E+01 -0.33037433594E+02 -0.41605562374E+02  0.54046961820E+02  0.00000000000E+00 0. -1.
         -5    1    3    3    0  503  0.13067230133E+02  0.15956934199E+02 -0.13741651703E+03  0.13903512292E+03  0.47000000000E+01 0.  1.
         13    1    4    4    0    0 -0.59034708548E+02  0.88635983311E+01 -0.17114335857E+03  0.18125592230E+03  0.00000000000E+00 0. -1.
        -14    1    4    4    0    0 -0.13158611180E+03 -0.14961096024E+01 -0.13913272645E+03  0.19150733337E+03  0.00000000000E+00 0.  1.
</event>
<event>
12    1  0.8451514E-002  0.1754211E+03  0.7818608E-02  0.1174083E+00
         21   -1    0    0  503  502  0.00000000000E+00  0.00000000000E+00  0.17087920496E+03  0.17087920496E+03  0.00000000000E+00 0.  1.
         21   -1    0    0  501  503 -0.00000000000E+00 -0.00000000000E+00 -0.19658422450E+03  0.19658422450E+03  0.00000000000E+00 0. -1.
          6    2    1    2  501    0  0.34975157156E+02  0.15753406718E+02 -0.76659644818E+02  0.19144000546E+03  0.17117576670E+03 0.  0.
         24    2    3    3    0    0  0.34319315071E+02  0.29298739569E+02  0.16143542592E+02  0.97533521312E+02  0.84946702613E+02 0.  0.
         -6    2    1    2    0  502 -0.34975157156E+02 -0.15753406718E+02  0.50954625275E+02  0.17602342400E+03  0.16406230682E+03 0.  0.
        -24    2    5    5    0    0 -0.28487043397E+02 -0.70258908234E+02  0.55758579322E+02  0.12072321342E+03  0.75612494091E+02 0.  0.
          5    1    3    3  501    0  0.65584208470E+00 -0.13545332851E+02 -0.92803187409E+02  0.93906484143E+02  0.47000000000E+01 0. -1.
        -11    1    4    4    0    0  0.33119788796E+02 -0.14687415546E+02  0.34338428347E+02  0.49917614593E+02  0.00000000000E+00 0.  1.
         12    1    4    4    0    0  0.11995262754E+01  0.43986155115E+02 -0.18194885755E+02  0.47615906719E+02  0.00000000000E+00 0. -1.
         -5    1    5    5    0  502 -0.64881137595E+01  0.54505501516E+02 -0.48039540472E+01  0.55300210580E+02  0.47000000000E+01 0.  1.
         13    1    6    6    0    0  0.70154344662E+01 -0.46327648009E+02 -0.42038479863E+01  0.47044017990E+02  0.00000000000E+00 0. -1.
        -14    1    6    6    0    0 -0.35502477863E+02 -0.23931260225E+02  0.59962427308E+02  0.73679195429E+02  0.00000000000E+00 0.  1.
</event>
<event>
12    1  0.8451514E-002  0.1862758E+03  0.7818608E-02  0.1162683E+00
         21   -1    0    0  503  502  0.00000000000E+00  0.00000000000E+00  0.42904158117E+03  0.42904158117E+03  0.00000000000E+00 0.  1.
         21   -1    0    0  501  503 -0.00000000000E+00 -0.00000000000E+00 -0.10649174805E+03  0.10649174805E+03  0.00000000000E+00 0.  1.
          6    2    1    2  501    0 -0.47936554400E+02 -0.28163022214E+02  0.24980683537E+02  0.18446911428E+03  0.17410844467E+03 0.  0.
         24    2    3    3    0    0  0.23014691700E+02 -0.73314931657E+01  0.59769596586E+02  0.10261320186E+03  0.79835065571E+02 0.  0.
         -6    2    1    2    0  502  0.47936554400E+02  0.28163022214E+02  0.29756914959E+03  0.35106421494E+03  0.17778530636E+03 0.  0.
        -24    2    5    5    0    0  0.13889275454E+02  0.71774827125E+02  0.26587829963E+03  0.28712982120E+03  0.80048274357E+02 0.  0.
          5    1    3    3  501    0 -0.70951246101E+02 -0.20831529048E+02 -0.34788913049E+02  0.81855912412E+02  0.47000000000E+01 0. -1.
        -11    1    4    4    0    0 -0.99615707342E+01 -0.29408548105E+02  0.21820868983E+00  0.31050655520E+02  0.00000000000E+00 0.  1.
         12    1    4    4    0    0  0.32976262435E+02  0.22077054940E+02  0.59551387896E+02  0.71562546345E+02  0.00000000000E+00 0. -1.
         -5    1    5    5    0  502  0.34047278946E+02 -0.43611804912E+02  0.31690849953E+02  0.63934393733E+02  0.47000000000E+01 0.  1.
         11    1    6    6    0    0  0.61859999819E+00 -0.11283049533E+02  0.10485309279E+03  0.10546023393E+03  0.00000000000E+00 0. -1.
        -12    1    6    6    0    0  0.13270675456E+02  0.83057876658E+02  0.16102520684E+03  0.18166958728E+03  0.00000000000E+00 0.  1.
</event>
<event>
12    1  0.8451514E-002  0.3059193E+03  0.7818608E-02  0.1082436E+00
         21   -1    0    0  501  502  0.00000000000E+00  0.00000000000E+00  0.10039592280E+04  0.10039592280E+04  0.00000000000E+00 0.  1.
         21   -1    0    0  502  503 -0.00000000000E+00 -0.00000000000E+00 -0.93063051426E+02  0.93063051426E+02  0.00000000000E+00 0.  1.
         -6    2    1    2    0  503  0.23732953290E+03 -0.83551713239E+02  0.43358808349E+03  0.53009224744E+03  0.17231647824E+03 0.  0.
        -24    2    3    3    0    0  0.42609740933E+02 -0.16337651327E+02  0.84013035187E+02  0.12431110951E+03  0.79451576397E+02 0.  0.
          6    2    1    2  501    0 -0.23732953290E+03  0.83551713239E+02  0.47730809313E+03  0.56693003203E+03  0.17401278540E+03 0.  0.
         24    2    5    5    0    0 -0.12084322489E+03  0.52624934938E+02  0.38975682649E+03  0.41789030625E+03  0.73139971894E+02 0.  0.
          5    1    5    5  501    0 -0.11648630801E+03  0.30926778300E+02  0.87551266642E+02  0.14903972578E+03  0.47000000000E+01 0. -1.
        -13    1    6    6    0    0 -0.77620567160E+02 -0.51625276374E+01  0.22336150128E+03  0.23652053693E+03  0.00000000000E+00 0.  1.
         14    1    6    6    0    0 -0.43222657732E+02  0.57787462576E+02  0.16639532521E+03  0.18136976932E+03  0.00000000000E+00 0. -1.
         -5    1    3    3    0  503  0.19471979197E+03 -0.67214061912E+02  0.34957504831E+03  0.40578113793E+03  0.47000000000E+01 0.  1.
         13    1    4    4    0    0  0.22669331743E+02 -0.43011809673E+02  0.75727919432E+02  0.89992400538E+02  0.00000000000E+00 0. -1.
        -14    1    4    4    0    0  0.19940409190E+02  0.26674158346E+02  0.82851157553E+01  0.34318708968E+02  0.00000000000E+00 0.  1.
</event>
<event>
12    1  0.8451514E-002  0.2129252E+03  0.7818608E-02  0.1139808E+00
         21   -1    0    0  501  502  0.00000000000E+00  0.00000000000E+00  0.33070943664E+04  0.33070943664E+04  0.00000000000E+00 0.  1.
         21   -1    0    0  502  503 -0.00000000000E+00 -0.00000000000E+00 -0.17983316217E+02  0.17983316217E+02  0.00000000000E+00 0. -1.
         -6    2    1    2    0  503  0.11693982355E+03 -0.32445526164E+02  0.82552572532E+03  0.85254318331E+03  0.17495577083E+03 0.  0.
        -24    2    3    3    0    0 -0.18346790433E+02 -0.66313277661E+01  0.38626244024E+03  0.39217032966E+03  0.64948560389E+02 0.  0.
          6    2    1    2  501    0 -0.11693982355E+03  0.32445526164E+02  0.24635853248E+04  0.24725344993E+04  0.17160000839E+03 0.  0.
         24    2    5    5    0    0 -0.38240081761E+02  0.73716145134E+02  0.15550093823E+04  0.15596110377E+04  0.86232453099E+02 0.  0.
          5    1    5    5  501    0 -0.78699741786E+02 -0.41270618970E+02  0.90857594259E+03  0.91292346164E+03  0.47000000000E+01 0. -1.
        -11    1    6    6    0    0 -0.21429578000E+02  0.67632055510E+01  0.10096543010E+04  0.10099043397E+04  0.00000000000E+00 0.  1.
         12    1    6    6    0    0 -0.16810503761E+02  0.66952939583E+02  0.54535508126E+03  0.54970669798E+03  0.00000000000E+00 0. -1.
         -5    1    3    3    0  503  0.13528661398E+03 -0.25814198398E+02  0.43926328508E+03  0.46037285365E+03  0.47000000000E+01 0.  1.
         13    1    4    4    0    0 -0.34509373927E+02 -0.16355438080E+02  0.34104413563E+03  0.34317561057E+03  0.00000000000E+00 0. -1.
        -14    1    4    4    0    0  0.16162583493E+02  0.97241103136E+01  0.45218304615E+02  0.48994719091E+02  0.00000000000E+00 0.  1.
</event>
<event>
12    1  0.8451514E-002  0.1754349E+03  0.7818608E-02  0.1172674E+00
         21   -1    0    0  503  502  0.00000000000E+00  0.00000000000E+00  0.21437831137E+03  0.21437831137E+03  0.00000000000E+00 0. -1.
         21   -1    0    0  501  503 -0.00000000000E+00 -0.00000000000E+00 -0.19924216838E+03  0.19924216838E+03  0.00000000000E+00 0. -1.
          6    2    1    2  501    0 -0.11409909221E+02  0.25583453165E+02 -0.10297907123E+03  0.20212906131E+03  0.17165887455E+03 0.  0.
         24    2    3    3    0    0  0.41320845687E+01  0.63336977807E+02 -0.12040568086E+03  0.15748985302E+03  0.79226756467E+02 0.  0.
         -6    2    1    2    0  502  0.11409909221E+02 -0.25583453165E+02  0.11811521423E+03  0.21149141844E+03  0.17318405566E+03 0.  0.
        -24    2    5    5    0    0  0.46707120868E+02 -0.67171757240E+02  0.51783975229E+02  0.12548325921E+03  0.79817718220E+02 0.  0.
          5    1    3    3  501    0 -0.15541993790E+02 -0.37753524642E+02  0.17426609628E+02  0.44639208293E+02  0.47000000000E+01 0. -1.
        -13    1    4    4    0    0 -0.19485571605E+02 -0.63846198742E+01 -0.58532806867E+01  0.21323971640E+02  0.00000000000E+00 0.  1.
         14    1    4    4    0    0  0.23617656174E+02  0.69721597682E+02 -0.11455240018E+03  0.13616588138E+03  0.00000000000E+00 0. -1.
         -5    1    5    5    0  502 -0.35297211647E+02  0.41588304075E+02  0.66331238997E+02  0.86008159222E+02  0.47000000000E+01 0.  1.
         13    1    6    6    0    0 -0.25330078891E+01 -0.60623709479E+02  0.12023244740E+02  0.61856355325E+02  0.00000000000E+00 0. -1.
        -14    1    6    6    0    0  0.49240128757E+02 -0.65480477611E+01  0.39760730489E+02  0.63626903889E+02  0.00000000000E+00 0.  1.
</event>
<event>
12    1  0.8451514E-002  0.2209601E+03  0.7818608E-02  0.1133507E+00
         21   -1    0    0  503  502  0.00000000000E+00  0.00000000000E+00  0.58995174414E+03  0.58995174414E+03  0.00000000000E+00 0. -1.
         21   -1    0    0  501  503 -0.00000000000E+00 -0.00000000000E+00 -0.91801154102E+02  0.91801154102E+02  0.00000000000E+00 0. -1.
          6    2    1    2  501    0 -0.13502393453E+03 -0.11011194898E+02  0.13907288172E+03  0.26108359200E+03  0.17455848954E+03 0.  0.
         24    2    3    3    0    0 -0.39387297443E+02  0.28553297554E+02  0.12521188244E+03  0.15655640550E+03  0.80406732283E+02 0.  0.
         -6    2    1    2    0  502  0.13502393453E+03  0.11011194898E+02  0.35907770832E+03  0.42066930624E+03  0.17225897741E+03 0.  0.
        -24    2    5    5    0    0  0.45348062166E+02  0.28522086820E+02  0.71943095089E+02  0.11931109824E+03  0.78672568619E+02 0.  0.
          5    1    3    3  501    0 -0.95636637086E+02 -0.39564492451E+02  0.13860999278E+02  0.10452718650E+03  0.47000000000E+01 0. -1.
        -11    1    4    4    0    0  0.13309592201E+02  0.38137858554E+02  0.52115983306E+02  0.65937221776E+02  0.00000000000E+00 0.  1.
         12    1    4    4    0    0 -0.52696889644E+02 -0.95845610000E+01  0.73095899138E+02  0.90619183722E+02  0.00000000000E+00 0. -1.
         -5    1    5    5    0  502  0.89675872363E+02 -0.17510891922E+02  0.28713461323E+03  0.30135820801E+03  0.47000000000E+01 0.  1.
         11    1    6    6    0    0  0.44910872197E+02 -0.82840124298E+01  0.68518874276E+02  0.82343472331E+02  0.00000000000E+00 0. -1.
        -12    1    6    6    0    0  0.43718996903E+00  0.36806099250E+02  0.34242208130E+01  0.36967625908E+02  0.00000000000E+00 0.  1.
</event>
<event>
12    1  0.8451514E-002  0.2962121E+03  0.7818608E-02  0.1087171E+00
         21   -1    0    0  503  502  0.00000000000E+00  0.00000000000E+00  0.67893962042E+03  0.67893962042E+03  0.00000000000E+00 0. -1.
         21   -1    0    0  501  503 -0.00000000000E+00 -0.00000000000E+00 -0.17389859112E+03  0.17389859112E+03  0.00000000000E+00 0.  1.
          6    2    1    2  501    0  0.16622770606E+03  0.17317723706E+03  0.36287003501E+02  0.29842648430E+03  0.17355003375E+03 0.  0.
         24    2    3    3    0    0  0.13192915333E+03  0.43608472640E+02  0.26141641579E+01  0.16014992974E+03  0.79587472359E+02 0.  0.
         -6    2    1    2    0  502 -0.16622770606E+03 -0.17317723706E+03  0.46875402580E+03  0.55441172724E+03  0.17326286646E+03 0.  0.
        -24    2    5    5    0    0 -0.96602203806E+02 -0.15317826361E+03  0.22776244555E+03  0.30272402143E+03  0.83489731839E+02 0.  0.
          5    1    3    3  501    0  0.34298552727E+02  0.12956876442E+03  0.33672839343E+02  0.13827655456E+03  0.47000000000E+01 0. -1.
        -11    1    4    4    0    0  0.12071933527E+02  0.28783506106E+02 -0.20288481628E+02  0.37226929629E+02  0.00000000000E+00 0.  1.
         12    1    4    4    0    0  0.11985721981E+03  0.14824966534E+02  0.22902645786E+02  0.12292300011E+03  0.00000000000E+00 0. -1.
         -5    1    5    5    0  502 -0.69625502254E+02 -0.19998973447E+02  0.24099158026E+03  0.25168770581E+03  0.47000000000E+01 0.  1.
         11    1    6    6    0    0 -0.76894962819E+02 -0.75934436641E+02  0.17953991711E+03  0.20955537648E+03  0.00000000000E+00 0. -1.
        -12    1    6    6    0    0 -0.19707240987E+02 -0.77243826973E+02  0.48222528441E+02  0.93168644950E+02  0.00000000000E+00 0.  1.
</event>
<event>
12    1  0.8451514E-002  0.2245666E+03  0.7818608E-02  0.1130983E+00
         21   -1    0    0  503  502  0.00000000000E+00  0.00000000000E+00  0.40207844133E+03  0.40207844133E+03  0.00000000000E+00 0. -1.
         21   -1    0    0  501  503 -0.00000000000E+00 -0.00000000000E+00 -0.19349352429E+03  0.19349352429E+03  0.00000000000E+00 0.  1.
          6    2    1    2  501    0  0.13713130111E+03  0.35368660392E+02 -0.74513555468E+02  0.23422048195E+03  0.17102932010E+03 0.  0.
         24    2    3    3    0    0  0.94006871537E+02 -0.31068535895E+02 -0.84334980283E+02  0.15426944780E+03  0.82970644241E+02 0.  0.
         -6    2    1    2    0  502 -0.13713130111E+03 -0.35368660392E+02  0.28309847251E+03  0.36135148367E+03  0.17428199486E+03 0.  0.
        -24    2    5    5    0    0 -0.11243048443E+03 -0.37019065940E+02  0.11713120058E+03  0.19348225023E+03  0.98512120752E+02 0.  0.
          5    1    3    3  501    0  0.43124429569E+02  0.66437196287E+02  0.98214248147E+01  0.79951034149E+02  0.47000000000E+01 0. -1.
        -13    1    4    4    0    0  0.55265509033E+01  0.22946557546E+02 -0.60496183959E+01  0.24365655149E+02  0.00000000000E+00 0.  1.
         14    1    4    4    0    0  0.88480320634E+02 -0.54015093441E+02 -0.78285361887E+02  0.12990379265E+03  0.00000000000E+00 0. -1.
         -5    1    5    5    0  502 -0.24700816681E+02  0.16504055484E+01  0.16596727193E+03  0.16786923344E+03  0.47000000000E+01 0.  1.
         11    1    6    6    0    0 -0.66202916815E+01  0.26456930874E+02  0.38453203062E+02  0.47142828500E+02  0.00000000000E+00 0. -1.
        -12    1    6    6    0    0 -0.10581019274E+03 -0.63475996814E+02  0.78677997516E+02  0.14633942173E+03  0.00000000000E+00 0.  1.
</event>
<event>
12    1  0.8451514E-002  0.2214470E+03  0.7818608E-02  0.1134082E+00
         21   -1    0    0  501  502  0.00000000000E+00  0.00000000000E+00  0.10163059113E+04  0.10163059113E+04  0.00000000000E+00 0.  1.
         21   -1    0    0  502  503 -0.00000000000E+00 -0.00000000000E+00 -0.11983436711E+03  0.11983436711E+03  0.00000000000E+00 0.  1.
         -6    2    1    2    0  503  0.35275357865E+02  0.12955942577E+03  0.74551984952E+01  0.22157245149E+03  0.17609308788E+03 0.  0.
        -24    2    3    3    0    0  0.24075937196E+02  0.34382345320E+02  0.62708143657E+02  0.11085171443E+03  0.81203416741E+02 0.  0.
          6    2    1    2  501    0 -0.35275357865E+02 -0.12955942577E+03  0.88901634565E+03  0.91456782687E+03  0.16749403403E+03 0.  0.
         24    2    5    5    0    0 -0.32353484618E+02 -0.15905719774E+03  0.68432852663E+03  0.70769141654E+03  0.78585422119E+02 0.  0.
          5    1    5    5  501    0 -0.29218732469E+01  0.29497771973E+02  0.20468781902E+03  0.20687641033E+03  0.47000000000E+01 0. -1.
        -13    1    6    6    0    0 -0.33765395592E+02 -0.58723734482E+02  0.15840465649E+03  0.17228062609E+03  0.00000000000E+00 0.  1.
         14    1    6    6    0    0  0.14119109746E+01 -0.10033346326E+03  0.52592387014E+03  0.53541079045E+03  0.00000000000E+00 0. -1.
         -5    1    3    3    0  503  0.11199420669E+02  0.95177080447E+02 -0.55252945162E+02  0.11072073706E+03  0.47000000000E+01 0.  1.
         13    1    4    4    0    0 -0.17594230138E+02  0.32321682169E+02  0.58239693581E+02  0.68892016814E+02  0.00000000000E+00 0. -1.
        -14    1    4    4    0    0  0.41670167333E+02  0.20606631509E+01  0.44684500759E+01  0.41959697619E+02  0.00000000000E+00 0.  1.
</event>
<event>
12    1  0.8451514E-002  0.2071936E+03  0.7818608E-02  0.1144283E+00
         21   -1    0    0  503  502  0.00000000000E+00  0.00000000000E+00  0.14943661937E+03  0.14943661937E+03  0.00000000000E+00 0. -1.
         21   -1    0    0  501  503 -0.00000000000E+00 -0.00000000000E+00 -0.29298534665E+03  0.29298534665E+03  0.00000000000E+00 0. -1.
          6    2    1    2  501    0  0.55649613065E+02  0.96202397371E+02 -0.11084466153E+03  0.23498026394E+03  0.17486396071E+03 0.  0.
         24    2    3    3    0    0  0.16430676794E+02  0.91298818961E+02 -0.62778962749E+01  0.12309430218E+03  0.80668170695E+02 0.  0.
         -6    2    1    2    0  502 -0.55649613065E+02 -0.96202397371E+02 -0.32704065757E+02  0.20744170208E+03  0.17207766604E+03 0.  0.
        -24    2    5    5    0    0 -0.19818843380E+02 -0.10753613515E+03  0.24911127350E+02  0.13849318400E+03  0.81258789274E+02 0.  0.
          5    1    3    3  501    0  0.39218936271E+02  0.49035784103E+01 -0.10456676525E+03  0.11188596176E+03  0.47000000000E+01 0. -1.
        -11    1    4    4    0    0  0.39397095140E+02  0.34593659755E+02  0.20521407058E+02  0.56302580300E+02  0.00000000000E+00 0.  1.
         12    1    4    4    0    0 -0.22966418346E+02  0.56705159205E+02 -0.26799303333E+02  0.66791721877E+02  0.00000000000E+00 0. -1.
         -5    1    5    5    0  502 -0.35830769685E+02  0.11333737778E+02 -0.57615193107E+02  0.68948518077E+02  0.47000000000E+01 0.  1.
         11    1    6    6    0    0  0.14273849228E+02 -0.44621957186E+02 -0.23186603686E+02  0.52273132921E+02  0.00000000000E+00 0. -1.
        -12    1    6    6    0    0 -0.34092692609E+02 -0.62914177963E+02  0.48097731036E+02  0.86220051084E+02  0.00000000000E+00 0.  1.
</event>
<event>
12    1  0.8451514E-002  0.1916932E+03  0.7818608E-02  0.1156968E+00
         21   -1    0    0  501  502  0.00000000000E+00  0.00000000000E+00  0.13632020833E+04  0.13632020833E+04  0.00000000000E+00 0.  1.
         21   -1    0    0  502  503 -0.00000000000E+00 -0.00000000000E+00 -0.31882752588E+02  0.31882752588E+02  0.00000000000E+00 0. -1.
         -6    2    1    2    0  503 -0.70936119771E+02  0.44157893426E+02  0.39117374914E+03  0.43561815731E+03  0.17252369206E+03 0.  0.
        -24    2    3    3    0    0 -0.57852265755E+02  0.74257379490E+02  0.16028198849E+03  0.20235808479E+03  0.79983970786E+02 0.  0.
          6    2    1    2  501    0  0.70936119771E+02 -0.44157893426E+02  0.94014558158E+03  0.95946667858E+03  0.17239704207E+03 0.  0.
         24    2    5    5    0    0  0.98059093304E+02 -0.61203384447E+02  0.52885835532E+03  0.54690701388E+03  0.77811835818E+02 0.  0.
          5    1    5    5  501    0 -0.27122973534E+02  0.17045491021E+02  0.41128722626E+03  0.41255966470E+03  0.47000000000E+01 0. -1.
        -11    1    6    6    0    0  0.72840675008E+01 -0.14211830256E+02  0.23937537775E+03  0.23990749307E+03  0.00000000000E+00 0.  1.
         12    1    6    6    0    0  0.90775025804E+02 -0.46991554191E+02  0.28948297756E+03  0.30699952081E+03  0.00000000000E+00 0. -1.
         -5    1    3    3    0  503 -0.13083854016E+02 -0.30099486064E+02  0.23089176065E+03  0.23326007253E+03  0.47000000000E+01 0.  1.
         13    1    4    4    0    0 -0.31756266758E+02 -0.10439345250E+02  0.30827652745E+02  0.45472899417E+02  0.00000000000E+00 0. -1.
        -14    1    4    4    0    0 -0.26095998997E+02  0.84696724740E+02  0.12945433575E+03  0.15688518537E+03  0.00000000000E+00 0.  1.
</event>
<event>
12    1  0.8451514E-002  0.2893993E+03  0.7818608E-02  0.1090731E+00
         21   -1    0    0  501  502  0.00000000000E+00  0.00000000000E+00  0.50113792640E+03  0.50113792640E+03  0.00000000000E+00 0.  1.
         21   -1    0    0  502  503 -0.00000000000E+00 -0.00000000000E+00 -0.17159480265E+03  0.17159480265E+03  0.00000000000E+00 0.  1.
         -6    2    1    2    0  503 -0.90985396190E+02 -0.21441570840E+03  0.10853656394E+03  0.30859557852E+03  0.17087599903E+03 0.  0.
        -24    2    3    3    0    0 -0.81604246188E+02 -0.58142194192E+02  0.24724306476E+02  0.13095548812E+03  0.80611914732E+02 0.  0.
          6    2    1    2  501    0  0.90985396190E+02  0.21441570840E+03  0.22100655981E+03  0.36413715053E+03  0.17175426221E+03 0.  0.
         24    2    5    5    0    0  0.50616807342E+02  0.20546744377E+03  0.23252063580E+03  0.32095893436E+03  0.64574451888E+02 0.  0.
          5    1    5    5  501    0  0.40368588848E+02  0.89482646333E+01 -0.11514075993E+02  0.43178216168E+02  0.47000000000E+01 0. -1.
        -13    1    6    6    0    0  0.34522811025E+02  0.19170644907E+03  0.18371665243E+03  0.26775921175E+03  0.00000000000E+00 0.  1.
         14    1    6    6    0    0  0.16093996317E+02  0.13760994693E+02  0.48803983372E+02  0.53199722606E+02  0.00000000000E+00 0. -1.
         -5    1    3    3    0  503 -0.93811500025E+01 -0.15627351421E+03  0.83812257459E+02  0.17764009040E+03  0.47000000000E+01 0.  1.
         13    1    4    4    0    0 -0.26322529476E+02  0.19506175901E+02  0.12286005642E+01  0.32785300299E+02  0.00000000000E+00 0. -1.
        -14    1    4    4    0    0 -0.55281716711E+02 -0.77648370094E+02  0.23495705912E+02  0.98170187822E+02  0.00000000000E+00 0.  1.
</event>
<event>
12    1  0.8451514E-002  0.2221734E+03  0.7818608E-02  0.1132690E+00
         21   -1    0    0  503  502  0.00000000000E+00  0.00000000000E+00  0.56547964698E+03  0.56547964698E+03  0.00000000000E+00 0.  1.
         21   -1    0    0  501  503 -0.00000000000E+00 -0.00000000000E+00 -0.94909131427E+02  0.94909131427E+02  0.00000000000E+00 0. -1.
          6    2    1    2  501    0  0.13952324116E+03 -0.17429709970E+02  0.13755240978E+03  0.26130765655E+03  0.17201888361E+03 0.  0.
         24    2    3    3    0    0  0.37799336143E+02 -0.62592418932E+02  0.85151592162E+02  0.13820055350E+03  0.80634971443E+02 0.  0.
         -6    2    1    2    0  502 -0.13952324116E+03  0.17429709970E+02  0.33301810577E+03  0.39908112186E+03  0.16909805865E+03 0.  0.
        -24    2    5    5    0    0 -0.27081479669E+02 -0.37164022052E+02  0.10972152241E+03  0.14313761355E+03  0.79592668362E+02 0.  0.
          5    1    3    3  501    0  0.10172390502E+03  0.45162708962E+02  0.52400817618E+02  0.12310710305E+03  0.47000000000E+01 0. -1.
        -11    1    4    4    0    0  0.21517831838E+01 -0.20153119456E+02  0.80011414702E+02  0.82538505422E+02  0.00000000000E+00 0.  1.
         12    1    4    4    0    0  0.35647552959E+02 -0.42439299476E+02  0.51401774593E+01  0.55662048078E+02  0.00000000000E+00 0. -1.
         -5    1    5    5    0  502 -0.11244176149E+03  0.54593732022E+02  0.22329658337E+03  0.25594350831E+03  0.47000000000E+01 0.  1.
         11    1    6    6    0    0 -0.52606772256E+02 -0.25320686928E+02  0.94672323353E+02  0.11122705823E+03  0.00000000000E+00 0. -1.
        -12    1    6    6    0    0  0.25525292587E+02 -0.11843335123E+02  0.15049199053E+02  0.31910555317E+02  0.00000000000E+00 0.  1.
</event>
<event>
12    1  0.8451514E-002  0.2287573E+03  0.7818608E-02  0.1127746E+00
         21   -1    0    0  501  502  0.00000000000E+00  0.00000000000E+00  0.12211170573E+04  0.12211170573E+04  0.00000000000E+00 0.  1.
         21   -1    0    0  502  503 -0.00000000000E+00 -0.00000000000E+00 -0.63427675849E+02  0.63427675849E+02  0.00000000000E+00 0. -1.
         -6    2    1    2    0  503  0.21571152547E+02 -0.14746699381E+03  0.94567041207E+03  0.97264423110E+03  0.17185006004E+03 0.  0.
        -24    2    3    3    0    0  0.11544781047E+02  0.67108030446E+00  0.33587271732E+03  0.34501318052E+03  0.78037684313E+02 0.  0.
          6    2    1    2  501    0 -0.21571152547E+02  0.14746699381E+03  0.21201896934E+03  0.31190050201E+03  0.17354552979E+03 0.  0.
         24    2    5    5    0    0  0.10470128769E+02  0.39267826202E+02  0.27837183961E+02  0.95847907387E+02  0.82221206319E+02 0.  0.
          5    1    5    5  501    0 -0.32041281315E+02  0.10819916761E+03  0.18418178538E+03  0.21605259463E+03  0.47000000000E+01 0. -1.
        -11    1    6    6    0    0 -0.30619393800E+01  0.36122387482E+02  0.54690039416E+02  0.65614043935E+02  0.00000000000E+00 0.  1.
         12    1    6    6    0    0  0.13532068149E+02  0.31454387198E+01 -0.26852855455E+02  0.30233863452E+02  0.00000000000E+00 0. -1.
         -5    1    3    3    0  503  0.10026371499E+02 -0.14813807411E+03  0.60979769475E+03  0.62763105058E+03  0.47000000000E+01 0.  1.
         13    1    4    4    0    0  0.40872702102E+02  0.10523251073E+02  0.12620799080E+03  0.13307807307E+03  0.00000000000E+00 0. -1.
        -14    1    4    4    0    0 -0.29327921054E+02 -0.98521707682E+01  0.20966472653E+03  0.21193510745E+03  0.00000000000E+00 0.  1.
</event>
<event>
12    1  0.8451514E-002  0.1972248E+03  0.7818608E-02  0.1152577E+00
         21   -1    0    0  503  502  0.00000000000E+00  0.00000000000E+00  0.12976407922E+03  0.12976407922E+03  0.00000000000E+00 0.  1.
         21   -1    0    0  501  503 -0.00000000000E+00 -0.00000000000E+00 -0.29746505040E+03  0.29746505040E+03  0.00000000000E+00 0.  1.
          6    2    1    2  501    0  0.49629852400E+02  0.81932590218E+02 -0.71658042365E+02  0.20983920382E+03  0.17239937597E+03 0.  0.
         24    2    3    3    0    0  0.39350108138E+02  0.97214500087E+02  0.35908111234E+01  0.13222677013E+03  0.80448336077E+02 0.  0.
         -6    2    1    2    0  502 -0.49629852400E+02 -0.81932590218E+02 -0.96042928813E+02  0.21738992579E+03  0.16987661426E+03 0.  0.
        -24    2    5    5    0    0 -0.13143394153E+02 -0.11361059761E+03 -0.92497403518E+02  0.16871325235E+03  0.82633378009E+02 0.  0.
          5    1    3    3  501    0  0.10279744262E+02 -0.15281909869E+02 -0.75248853488E+02  0.77612433686E+02  0.47000000000E+01 0. -1.
        -13    1    4    4    0    0  0.16619675279E+02  0.65989192254E+02 -0.35942332185E+02  0.76958679456E+02  0.00000000000E+00 0.  1.
         14    1    4    4    0    0  0.22730432858E+02  0.31225307834E+02  0.39533143308E+02  0.55268090677E+02  0.00000000000E+00 0. -1.
         -5    1    5    5    0  502 -0.36486458247E+02  0.31678007395E+02 -0.35455252950E+01  0.48676673444E+02  0.47000000000E+01 0.  1.
         13    1    6    6    0    0 -0.21033808341E+02  0.45609609864E+01 -0.69623309387E+01  0.22620731874E+02  0.00000000000E+00 0. -1.
        -14    1    6    6    0    0  0.78904141882E+01 -0.11817155860E+03 -0.85535072579E+02  0.14609252048E+03  0.00000000000E+00 0.  1.
</event>
<event>
12    1  0.8451514E-002  0.1951544E+03  0.7818608E-02  0.1153979E+00
         21   -1    0    0  501  502  0.00000000000E+00  0.00000000000E+00  0.13456751509E+04  0.13456751509E+04  0.00000000000E+00 0.  1.
         21   -1    0    0  502  503 -0.00000000000E+00 -0.00000000000E+00 -0.30206290541E+02  0.30206290541E+02  0.00000000000E+00 0. -1.
         -6    2    1    2    0  503  0.60333449266E+02  0.71251551548E+02  0.48179363344E+03  0.51966907124E+03  0.17092082871E+03 0.  0.
        -24    2    3    3    0    0 -0.13411935361E+02  0.66067565647E+01  0.32661104176E+03  0.33603612749E+03  0.77601399052E+02 0.  0.
          6    2    1    2  501    0 -0.60333449266E+02 -0.71251551548E+02  0.83367522689E+03  0.85621237017E+03  0.17137190609E+03 0.  0.
         24    2    5    5    0    0 -0.97599691816E+02 -0.64658659611E+02  0.76199919674E+03  0.77502257797E+03  0.79440408083E+02 0.  0.
          5    1    5    5  501    0  0.37266242550E+02 -0.65928919371E+01  0.71676030156E+02  0.81189792196E+02  0.47000000000E+01 0. -1.
        -13    1    6    6    0    0 -0.10291034192E+03 -0.65570132849E+02  0.56850081015E+03  0.58144918259E+03  0.00000000000E+00 0.  1.
         14    1    6    6    0    0  0.53106501019E+01  0.91147323793E+00  0.19349838659E+03  0.19357339539E+03  0.00000000000E+00 0. -1.
         -5    1    3    3    0  503  0.73745384627E+02  0.64644794983E+02  0.15518259168E+03  0.18363294376E+03  0.47000000000E+01 0.  1.
         11    1    4    4    0    0 -0.32167370458E+02  0.11466527491E+02  0.62549272553E+02  0.71264524638E+02  0.00000000000E+00 0. -1.
        -12    1    4    4    0    0  0.18755435098E+02 -0.48597709260E+01  0.26406176920E+03  0.26477160285E+03  0.00000000000E+00 0.  1.
</event>
<event>
12    1  0.8451514E-002  0.1820726E+03  0.7818608E-02  0.1166735E+00
         21   -1    0    0  501  502  0.00000000000E+00  0.00000000000E+00  0.33388168545E+03  0.33388168545E+03  0.00000000000E+00 0. -1.
         21   -1    0    0  502  503 -0.00000000000E+00 -0.00000000000E+00 -0.14674715404E+03  0.14674715404E+03  0.00000000000E+00 0. -1.
         -6    2    1    2    0  503  0.13734906610E+02  0.49148139561E+02 -0.46709166640E+02  0.18426200356E+03  0.17078217830E+03 0.  0.
        -24    2    3    3    0    0 -0.12630827091E+02  0.44189512072E+02 -0.92929188860E+02  0.13061388752E+03  0.79447483923E+02 0.  0.
          6    2    1    2  501    0 -0.13734906610E+02 -0.49148139561E+02  0.23384369805E+03  0.29636683592E+03  0.17477482381E+03 0.  0.
         24    2    5    5    0    0  0.37361771627E+02  0.17121806568E+02  0.74334795194E+02  0.11617872207E+03  0.79263960571E+02 0.  0.
          5    1    5    5  501    0 -0.51096678237E+02 -0.66269946129E+02  0.15950890285E+03  0.18018811386E+03  0.47000000000E+01 0. -1.
        -11    1    6    6    0    0  0.13540642507E+02 -0.31007640775E+02  0.17907737888E+02  0.38281978295E+02  0.00000000000E+00 0.  1.
         12    1    6    6    0    0  0.23821129120E+02  0.48129447343E+02  0.56427057306E+02  0.77896743772E+02  0.00000000000E+00 0. -1.
         -5    1    3    3    0  503  0.26365733701E+02  0.49586274892E+01  0.46220022221E+02  0.53648116036E+02  0.47000000000E+01 0.  1.
         13    1    4    4    0    0 -0.12574349347E+02 -0.12692749712E+02  0.39237702088E+01  0.18292515667E+02  0.00000000000E+00 0. -1.
        -14    1    4    4    0    0 -0.56477743679E-01  0.56882261784E+02 -0.96852959069E+02  0.11232137186E+03  0.00000000000E+00 0.  1.
</event>
<event>
12    1  0.8451514E-002  0.1840442E+03  0.7818608E-02  0.1166189E+00
         21   -1    0    0  503  502  0.00000000000E+00  0.00000000000E+00  0.11723792770E+03  0.11723792770E+03  0.00000000000E+00 0. -1.
         21   -1    0    0  501  503 -0.00000000000E+00 -0.00000000000E+00 -0.65151208066E+03  0.65151208066E+03  0.00000000000E+00 0. -1.
          6    2    1    2  501    0 -0.31693533170E+02  0.86868590130E+01 -0.56239389916E+03  0.59174246836E+03  0.18108646963E+03 0.  0.
         24    2    3    3    0    0 -0.15531329057E+02  0.74357048075E+02 -0.28053650453E+03  0.30184684666E+03  0.81489850192E+02 0.  0.
         -6    2    1    2    0  502  0.31693533170E+02 -0.86868590130E+01  0.28119746198E+02  0.17700754000E+03  0.17164209136E+03 0.  0.
        -24    2    5    5    0    0 -0.42031525556E+02 -0.15167534540E+02  0.42116293377E+02  0.10153981993E+03  0.80869336711E+02 0.  0.
          5    1    3    3  501    0 -0.16162204113E+02 -0.65670189062E+02 -0.28185739463E+03  0.28989562170E+03  0.47000000000E+01 0. -1.
        -13    1    4    4    0    0  0.32840249239E+02  0.23408993980E+02 -0.85251193172E+02  0.94309219626E+02  0.00000000000E+00 0.  1.
         14    1    4    4    0    0 -0.48371578296E+02  0.50948054095E+02 -0.19528531136E+03  0.20753762703E+03  0.00000000000E+00 0. -1.
         -5    1    5    5    0  502  0.73725058726E+02  0.64806755272E+01 -0.13996547179E+02  0.75467720068E+02  0.47000000000E+01 0.  1.
         13    1    6    6    0    0 -0.50468075085E+02 -0.40919924486E+02  0.25800060410E+02  0.69907867511E+02  0.00000000000E+00 0. -1.
        -14    1    6    6    0    0  0.84365495296E+01  0.25752389946E+02  0.16316232967E+02  0.31631952424E+02  0.00000000000E+00 0.  1.
</event>
<event>
12    1  0.8451514E-002  0.2628827E+03  0.7818608E-02  0.1105713E+00
         21   -1    0    0  503  502  0.00000000000E+00  0.00000000000E+00  0.91241444055E+02  0.91241444055E+02  0.00000000000E+00 0.  1.
         21   -1    0    0  501  503 -0.00000000000E+00 -0.00000000000E+00 -0.81603291659E+03  0.81603291659E+03  0.00000000000E+00 0.  1.
          6    2    1    2  501    0 -0.39863655259E+02  0.19434710537E+03 -0.23389461668E+03  0.35041975198E+03  0.16949160005E+03 0.  0.
         24    2    3    3    0    0 -0.20384513314E+01  0.11767200742E+03 -0.21478327063E+03  0.26268634759E+03  0.94981088916E+02 0.  0.
         -6    2    1    2    0  502  0.39863655259E+02 -0.19434710537E+03 -0.49089685585E+03  0.55685460866E+03  0.17247441469E+03 0.  0.
        -24    2    5    5    0    0 -0.17012050897E+02 -0.27633387740E+02 -0.13437310721E+03  0.15916178381E+03  0.78888069367E+02 0.  0.
          5    1    3    3  501    0 -0.37825203927E+02  0.76675097957E+02 -0.19111346047E+02  0.87733404394E+02  0.47000000000E+01 0. -1.
        -11    1    4    4    0    0 -0.42762473386E+02  0.38407832048E+02 -0.11719954903E+03  0.13053553150E+03  0.00000000000E+00 0.  1.
         12    1    4    4    0    0  0.40724022055E+02  0.79264175368E+02 -0.97583721604E+02  0.13215081608E+03  0.00000000000E+00 0. -1.
         -5    1    5    5    0  502  0.56875706155E+02 -0.16671371763E+03 -0.35652374864E+03  0.39769282485E+03  0.47000000000E+01 0.  1.
         11    1    6    6    0    0  0.55084047026E+01  0.24381745277E+02 -0.21982505110E+02  0.33287273184E+02  0.00000000000E+00 0. -1.
        -12    1    6    6    0    0 -0.22520455599E+02 -0.52015133016E+02 -0.11239060210E+03  0.12587451062E+03  0.00000000000E+00 0.  1.
</event>
<event>
12    1  0.8451514E-002  0.1958979E+03  0.7818608E-02  0.1153705E+00
         21   -1    0    0  501  502  0.00000000000E+00  0.00000000000E+00  0.10661072909E+03  0.10661072909E+03  0.00000000000E+00 0.  1.
         21   -1    0    0  502  503 -0.00000000000E+00 -0.00000000000E+00 -0.41612973788E+03  0.41612973788E+03  0.00000000000E+00 0. -1.
         -6    2    1    2    0  503 -0.65862742278E+02 -0.60305748482E+02 -0.25473908805E+03  0.32135336175E+03  0.17435967426E+03 0.  0.
        -24    2    3    3    0    0 -0.52670259147E+02 -0.63153834882E+02 -0.27380607188E+03  0.29752495265E+03  0.82393988829E+02 0.  0.
          6    2    1    2  501    0  0.65862742278E+02  0.60305748482E+02 -0.54779920738E+02  0.20138710522E+03  0.17199198329E+03 0.  0.
         24    2    5    5    0    0  0.72058875807E+02  0.10192233575E+03 -0.58938439349E+02  0.15884635202E+03  0.78598853745E+02 0.  0.
          5    1    5    5  501    0 -0.61961335298E+01 -0.41616587265E+02  0.41585186106E+01  0.42540753206E+02  0.47000000000E+01 0. -1.
        -11    1    6    6    0    0 -0.11784519801E+02  0.82938213116E+01  0.79661109372E+01  0.16465761517E+02  0.00000000000E+00 0.  1.
         12    1    6    6    0    0  0.83843395608E+02  0.93628514435E+02 -0.66904550286E+02  0.14238059050E+03  0.00000000000E+00 0. -1.
         -5    1    3    3    0  503 -0.13192483131E+02  0.28480864005E+01  0.19066983833E+02  0.23828409091E+02  0.47000000000E+01 0.  1.
         11    1    4    4    0    0 -0.53437883660E+02 -0.10674011454E+01 -0.14492317566E+03  0.15446512098E+03  0.00000000000E+00 0. -1.
        -12    1    4    4    0    0  0.76762451283E+00 -0.62086433737E+02 -0.12888289622E+03  0.14305983168E+03  0.00000000000E+00 0.  1.
</event>
<event>
12    1  0.8451514E-002  0.2176684E+03  0.7818608E-02  0.1135884E+00
         21   -1    0    0  501  502  0.00000000000E+00  0.00000000000E+00  0.66659402010E+02  0.66659402010E+02  0.00000000000E+00 0.  1.
         21   -1    0    0  502  503 -0.00000000000E+00 -0.00000000000E+00 -0.75126667290E+03  0.75126667290E+03  0.00000000000E+00 0. -1.
         -6    2    1    2    0  503 -0.11788286485E+03 -0.62409465708E+02 -0.44119161251E+03  0.49138248780E+03  0.17033907105E+03 0.  0.
        -24    2    3    3    0    0 -0.38459081008E+02  0.14466359303E+01 -0.32432891377E+03  0.33625441325E+03  0.79978700008E+02 0.  0.
          6    2    1    2  501    0  0.11788286485E+03  0.62409465708E+02 -0.24341565838E+03  0.32654358711E+03  0.17201226789E+03 0.  0.
         24    2    5    5    0    0  0.12497576855E+03  0.33500647782E+02 -0.10603749200E+03  0.18589907199E+03  0.81075761668E+02 0.  0.
          5    1    5    5  501    0 -0.70929037021E+01  0.28908817926E+02 -0.13737816638E+03  0.14064451513E+03  0.47000000000E+01 0. -1.
        -13    1    6    6    0    0  0.99966791077E+02  0.48669432354E+02 -0.48396166062E+02  0.12126113084E+03  0.00000000000E+00 0.  1.
         14    1    6    6    0    0  0.25008977472E+02 -0.15168784572E+02 -0.57641325935E+02  0.64637941143E+02  0.00000000000E+00 0. -1.
         -5    1    3    3    0  503 -0.79423783839E+02 -0.63856101639E+02 -0.11686269875E+03  0.15512807455E+03  0.47000000000E+01 0.  1.
         13    1    4    4    0    0 -0.42133248908E+02 -0.27989365650E+02 -0.26653166028E+03  0.27128903624E+03  0.00000000000E+00 0. -1.
        -14    1    4    4    0    0  0.36741678992E+01  0.29436001581E+02 -0.57797253486E+02  0.64965377004E+02  0.00000000000E+00 0.  1.
</event>
<event>
12    1  0.8451514E-002  0.2142677E+03  0.7818608E-02  0.1138272E+00
         21   -1    0    0  501  502  0.00000000000E+00  0.00000000000E+00  0.75935239885E+03  0.75935239885E+03  0.00000000000E+00 0.  1.
         21   -1    0    0  502  503 -0.00000000000E+00 -0.00000000000E+00 -0.20754469069E+03  0.20754469069E+03  0.00000000000E+00 0.  1.
         -6    2    1    2    0  503 -0.92762828690E+02 -0.88177822805E+02 -0.13120619034E+03  0.25106286655E+03  0.17157280599E+03 0.  0.
        -24    2    3    3    0    0 -0.78195348033E+01 -0.13381808453E+02 -0.49139286631E+01  0.81411364055E+02  0.79771207715E+02 0.  0.
          6    2    1    2  501    0  0.92762828690E+02  0.88177822805E+02  0.68301389850E+03  0.71583422300E+03  0.17184405270E+03 0.  0.
         24    2    5    5    0    0  0.25824575378E+02 -0.20995271015E+02  0.28055413592E+03  0.29346537393E+03  0.79395166181E+02 0.  0.
          5    1    5    5  501    0  0.66938253313E+02  0.10917309382E+03  0.40245976258E+03  0.42236884907E+03  0.47000000000E+01 0. -1.
        -13    1    6    6    0    0 -0.26108509752E+02  0.41322218658E+01  0.11953152821E+03  0.12241942564E+03  0.00000000000E+00 0.  1.
         14    1    6    6    0    0  0.51933085130E+02 -0.25127492881E+02  0.16102260772E+03  0.17104594829E+03  0.00000000000E+00 0. -1.
         -5    1    3    3    0  503 -0.84943293887E+02 -0.74796014352E+02 -0.12629226167E+03  0.16965150249E+03  0.47000000000E+01 0.  1.
         13    1    4    4    0    0  0.32386214849E+02 -0.29138703982E+01 -0.18855572089E+02  0.37588431090E+02  0.00000000000E+00 0. -1.
        -14    1    4    4    0    0 -0.40205749653E+02 -0.10467938054E+02  0.13941643426E+02  0.43822932965E+02  0.00000000000E+00 0.  1.
</event>
<event>
12    1  0.8451514E-002  0.1829030E+03  0.7818608E-02  0.1165145E+00
         21   -1    0    0  501  502  0.00000000000E+00  0.00000000000E+00  0.66458809904E+02  0.66458809904E+02  0.00000000000E+00 0.  1.
         21   -1    0    0  502  503 -0.00000000000E+00 -0.00000000000E+00 -0.72115189916E+03  0.72115189916E+03  0.00000000000E+00 0.  1.
         -6    2    1    2    0  503  0.62046329389E+02 -0.12729696851E+02 -0.54413658628E+03  0.57389066873E+03  0.17103824997E+03 0.  0.
        -24    2    3    3    0    0  0.68055394285E+02 -0.54954000129E+02 -0.49237235941E+03  0.50665506929E+03  0.81347035009E+02 0.  0.
          6    2    1    2  501    0 -0.62046329389E+02  0.12729696851E+02 -0.11055650298E+03  0.21372004034E+03  0.17158590594E+03 0.  0.
         24    2    5    5    0    0 -0.52840291407E+02 -0.56260633309E+02 -0.52487263269E+02  0.12295361818E+03  0.80033269094E+02 0.  0.
          5    1    5    5  501    0 -0.92060379816E+01  0.68990330160E+02 -0.58069239708E+02  0.90766422156E+02  0.47000000000E+01 0. -1.
        -13    1    6    6    0    0 -0.60884091063E+02 -0.20275823448E+02 -0.72307595594E+01  0.64577592436E+02  0.00000000000E+00 0.  1.
         14    1    6    6    0    0  0.80437996561E+01 -0.35984809861E+02 -0.45256503710E+02  0.58376025744E+02  0.00000000000E+00 0. -1.
         -5    1    3    3    0  503 -0.60090648964E+01  0.42224303279E+02 -0.51764226866E+02  0.67235599435E+02  0.47000000000E+01 0.  1.
         11    1    4    4    0    0 -0.16851481944E+02 -0.41177624656E+01 -0.40254804438E+02  0.43833522466E+02  0.00000000000E+00 0. -1.
        -12    1    4    4    0    0  0.84906876229E+02 -0.50836237664E+02 -0.45211755497E+03  0.46282154683E+03  0.00000000000E+00 0.  1.
</event>
<event>
12    1  0.8451514E-002  0.1991237E+03  0.7818608E-02  0.1151928E+00
         21   -1    0    0  503  502  0.00000000000E+00  0.00000000000E+00  0.19528139420E+03  0.19528139420E+03  0.00000000000E+00 0. -1.
         21   -1    0    0  501  503 -0.00000000000E+00 -0.00000000000E+00 -0.19710714551E+03  0.19710714551E+03  0.00000000000E+00 0. -1.
          6    2    1    2  501    0 -0.94148683382E+02 -0.36401459570E+02 -0.13692977522E+02  0.19291148891E+03  0.16382400336E+03 0.  0.
         24    2    3    3    0    0 -0.54951749156E+01  0.17738804013E+02 -0.32153003894E+02  0.87301473863E+02  0.79011831798E+02 0.  0.
         -6    2    1    2    0  502  0.94148683382E+02  0.36401459570E+02  0.11867226215E+02  0.19947705080E+03  0.17164271582E+03 0.  0.
        -24    2    5    5    0    0  0.12295109442E+02  0.35451804124E+02  0.57337194785E+02  0.10571929136E+03  0.80504748486E+02 0.  0.
          5    1    3    3  501    0 -0.88653508467E+02 -0.54140263583E+02  0.18460026371E+02  0.10561001505E+03  0.47000000000E+01 0. -1.
        -11    1    4    4    0    0 -0.22001090706E+02  0.20228444383E+01  0.20367192208E+02  0.30049332942E+02  0.00000000000E+00 0.  1.
         12    1    4    4    0    0  0.16505915790E+02  0.15715959574E+02 -0.52520196101E+02  0.57252140920E+02  0.00000000000E+00 0. -1.
         -5    1    5    5    0  502  0.81853573940E+02  0.94965544625E+00 -0.45469968570E+02  0.93757759433E+02  0.47000000000E+01 0.  1.
         11    1    6    6    0    0  0.32211006547E+02  0.29420926241E+02 -0.11504481492E+01  0.43640157820E+02  0.00000000000E+00 0. -1.
        -12    1    6    6    0    0 -0.19915897105E+02  0.60308778835E+01  0.58487642934E+02  0.62079133543E+02  0.00000000000E+00 0.  1.
</event>
<event>
12    1  0.8451514E-002  0.1954263E+03  0.7818608E-02  0.1153770E+00
         21   -1    0    0  501  502  0.00000000000E+00  0.00000000000E+00  0.90667667655E+02  0.90667667655E+02  0.00000000000E+00 0. -1.
         21   -1    0    0  502  503 -0.00000000000E+00 -0.00000000000E+00 -0.42304163975E+03  0.42304163975E+03  0.00000000000E+00 0. -1.
         -6    2    1    2    0  503  0.90751923771E+02 -0.22175584584E+02 -0.18737463395E+03  0.27036541658E+03  0.17105711565E+03 0.  0.
        -24    2    3    3    0    0  0.87624435547E+02  0.31543682913E+02 -0.17802014256E+03  0.21554628313E+03  0.78076778749E+02 0.  0.
          6    2    1    2  501    0 -0.90751923771E+02  0.22175584584E+02 -0.14499933814E+03  0.24334389082E+03  0.17165014687E+03 0.  0.
         24    2    5    5    0    0 -0.47970856338E+02 -0.51826799970E+02 -0.10507883022E+03  0.14888591285E+03  0.78346883991E+02 0.  0.
          5    1    5    5  501    0 -0.42781067432E+02  0.74002384555E+02 -0.39920507924E+02  0.94457977976E+02  0.47000000000E+01 0. -1.
        -11    1    6    6    0    0 -0.25005259698E+02 -0.39715223385E+02 -0.70267749329E+01  0.47454584046E+02  0.00000000000E+00 0.  1.
         12    1    6    6    0    0 -0.22965596641E+02 -0.12111576586E+02 -0.98052055286E+02  0.10143132880E+03  0.00000000000E+00 0. -1.
         -5    1    3    3    0  503  0.31274882232E+01 -0.53719267497E+02 -0.93544913989E+01  0.54819133451E+02  0.47000000000E+01 0.  1.
         13    1    4    4    0    0  0.34795924481E+02  0.34014505625E+02 -0.27251153686E+02  0.55770676261E+02  0.00000000000E+00 0. -1.
        -14    1    4    4    0    0  0.52828511066E+02 -0.24708227119E+01 -0.15076898887E+03  0.15977560687E+03  0.00000000000E+00 0.  1.
</event>
<event>
12    1  0.8451514E-002  0.2083660E+03  0.7818608E-02  0.1144195E+00
         21   -1    0    0  501  502  0.00000000000E+00  0.00000000000E+00  0.96804670296E+02  0.96804670296E+02  0.00000000000E+00 0.  1.
         21   -1    0    0  502  503 -0.00000000000E+00 -0.00000000000E+00 -0.46127790495E+03  0.46127790495E+03  0.00000000000E+00 0.  1.
         -6    2    1    2    0  503  0.94835970632E+02 -0.46156807230E+02 -0.24666492771E+03  0.31871841141E+03  0.17208581300E+03 0.  0.
        -24    2    3    3    0    0  0.22666272247E+02 -0.38760519466E+02 -0.22316157181E+03  0.24231377690E+03  0.83058663446E+02 0.  0.
          6    2    1    2  501    0 -0.94835970632E+02  0.46156807230E+02 -0.11780830694E+03  0.23936416383E+03  0.17970000991E+03 0.  0.
         24    2    5    5    0    0  0.14734049156E+02 -0.43317527125E+01 -0.77401193980E+02  0.11204759499E+03  0.79547862500E+02 0.  0.
          5    1    5    5  501    0 -0.10957001979E+03  0.50488559942E+02 -0.40407112962E+02  0.12731656883E+03  0.47000000000E+01 0. -1.
        -11    1    6    6    0    0 -0.72327301855E+01  0.37115693439E+01  0.14821308231E+02  0.16904416897E+02  0.00000000000E+00 0.  1.
         12    1    6    6    0    0  0.21966779342E+02 -0.80433220564E+01 -0.92222502212E+02  0.95143178098E+02  0.00000000000E+00 0. -1.
         -5    1    3    3    0  503  0.72169698384E+02 -0.73962877640E+01 -0.23503355896E+02  0.76404634519E+02  0.47000000000E+01 0.  1.
         11    1    4    4    0    0 -0.17188149981E+02  0.18107021867E+02 -0.60580610896E+02  0.65523332922E+02  0.00000000000E+00 0. -1.
        -12    1    4    4    0    0  0.39854422228E+02 -0.56867541333E+02 -0.16258096092E+03  0.17679044397E+03  0.00000000000E+00 0.  1.
</event>
<event>
12    1  0.8451514E-002  0.1795078E+03  0.7818608E-02  0.1170283E+00
         21   -1    0    0  501  502  0.00000000000E+00  0.00000000000E+00  0.84227337688E+02  0.84227337688E+02  0.00000000000E+00 0. -1.
         21   -1    0    0  502  503 -0.00000000000E+00 -0.00000000000E+00 -0.63469001879E+03  0.63469001879E+03  0.00000000000E+00 0. -1.
         -6    2    1    2    0  503  0.30542694370E+02  0.13996325415E+02 -0.50560895256E+03  0.53389061990E+03  0.16813693170E+03 0.  0.
        -24    2    3    3    0    0  0.28647348223E+02  0.39624697178E+02 -0.49769746706E+03  0.50659433115E+03  0.80896603497E+02 0.  0.
          6    2    1    2  501    0 -0.30542694370E+02 -0.13996325415E+02 -0.44853728536E+02  0.18502673658E+03  0.17633571102E+03 0.  0.
         24    2    5    5    0    0  0.14280810771E+01 -0.73447891322E+02  0.10012334896E+02  0.97911903809E+02  0.63952028132E+02 0.  0.
          5    1    5    5  501    0 -0.31970775447E+02  0.59451565907E+02 -0.54866063432E+02  0.87114832767E+02  0.47000000000E+01 0. -1.
        -11    1    6    6    0    0  0.18414138198E+02  0.33685119775E+01  0.23846478965E+01  0.18870980476E+02  0.00000000000E+00 0.  1.
         12    1    6    6    0    0 -0.16986057121E+02 -0.76816403299E+02  0.76276869998E+01  0.79040923333E+02  0.00000000000E+00 0. -1.
         -5    1    3    3    0  503  0.18953461468E+01 -0.25628371763E+02 -0.79114855055E+01  0.27296288743E+02  0.47000000000E+01 0.  1.
         11    1    4    4    0    0  0.51591561436E+02  0.53615017129E+01 -0.23295921679E+03  0.23866384645E+03  0.00000000000E+00 0. -1.
        -12    1    4    4    0    0 -0.22944213212E+02  0.34263195465E+02 -0.26473825026E+03  0.26793048471E+03  0.00000000000E+00 0.  1.
</event>
<event>
12    1  0.8451514E-002  0.1864560E+03  0.7818608E-02  0.1162364E+00
         21   -1    0    0  501  502  0.00000000000E+00  0.00000000000E+00  0.62858502191E+02  0.62858502191E+02  0.00000000000E+00 0. -1.
         21   -1    0    0  502  503 -0.00000000000E+00 -0.00000000000E+00 -0.55993352278E+03  0.55993352278E+03  0.00000000000E+00 0. -1.
         -6    2    1    2    0  503  0.47067605321E+02 -0.48485513651E+02 -0.30190477834E+03  0.35484130755E+03  0.17378047604E+03 0.  0.
        -24    2    3    3    0    0  0.76799970636E+02 -0.81603398986E+01 -0.11503357137E+03  0.16131334787E+03  0.82610211353E+02 0.  0.
          6    2    1    2  501    0 -0.47067605321E+02  0.48485513651E+02 -0.19517024225E+03  0.26795071742E+03  0.17070430283E+03 0.  0.
         24    2    5    5    0    0  0.36864462089E+02  0.16493648717E+02 -0.12948695788E+03  0.15657542749E+03  0.78217409957E+02 0.  0.
          5    1    5    5  501    0 -0.83932067410E+02  0.31991864934E+02 -0.65683284371E+02  0.11137528993E+03  0.47000000000E+01 0. -1.
        -11    1    6    6    0    0  0.37323089875E+02  0.22795400237E+02 -0.22095970816E+02  0.48998726882E+02  0.00000000000E+00 0.  1.
         12    1    6    6    0    0 -0.45862778570E+00 -0.63017515202E+01 -0.10739098706E+03  0.10757670061E+03  0.00000000000E+00 0. -1.
         -5    1    3    3    0  503 -0.29732365315E+02 -0.40325173752E+02 -0.18687120697E+03  0.19352795968E+03  0.47000000000E+01 0.  1.
         13    1    4    4    0    0  0.81111391312E+02 -0.15390555536E+02 -0.12402878838E+03  0.14899351445E+03  0.00000000000E+00 0. -1.
        -14    1    4    4    0    0 -0.43114206763E+01  0.72302156379E+01  0.89952170077E+01  0.12319833417E+02  0.00000000000E+00 0.  1.
</event>
<event>
12    1  0.8451514E-002  0.2238876E+03  0.7818608E-02  0.1131037E+00
         21   -1    0    0  501  502  0.00000000000E+00  0.00000000000E+00  0.18198812366E+03  0.18198812366E+03  0.00000000000E+00 0. -1.
         21   -1    0    0  502  503 -0.00000000000E+00 -0.00000000000E+00 -0.34731010756E+03  0.34731010756E+03  0.00000000000E+00 0. -1.
         -6    2    1    2    0  503  0.46651789590E+02 -0.13497732723E+03 -0.20318041909E+03  0.30233746553E+03  0.17242503306E+03 0.  0.
        -24    2    3    3    0    0 -0.22048627808E+02 -0.30266043352E+02 -0.12938644005E+03  0.15690073818E+03  0.80466237649E+02 0.  0.
          6    2    1    2  501    0 -0.46651789590E+02  0.13497732723E+03  0.37858435194E+02  0.22696076568E+03  0.17228656275E+03 0.  0.
         24    2    5    5    0    0 -0.79916756629E+02  0.13238900870E+03  0.61831583930E+02  0.18560790260E+03  0.81936628683E+02 0.  0.
          5    1    5    5  501    0  0.33264967038E+02  0.25883185311E+01 -0.23973148736E+02  0.41352863083E+02  0.47000000000E+01 0. -1.
        -11    1    6    6    0    0  0.36842519054E-01  0.69346076795E+02  0.44307714250E+02  0.82292486086E+02  0.00000000000E+00 0.  1.
         12    1    6    6    0    0 -0.79953599148E+02  0.63042931906E+02  0.17523869680E+02  0.10331541651E+03  0.00000000000E+00 0. -1.
         -5    1    3    3    0  503  0.68700417399E+02 -0.10471128388E+03 -0.73793979038E+02  0.14543672736E+03  0.47000000000E+01 0.  1.
         11    1    4    4    0    0  0.26213820464E+02  0.28116399422E-01 -0.69296328633E+02  0.74088773345E+02  0.00000000000E+00 0. -1.
        -12    1    4    4    0    0 -0.48262448272E+02 -0.30294159751E+02 -0.60090111422E+02  0.82811964830E+02  0.00000000000E+00 0.  1.
</event>
<event>
12    1  0.8451514E-002  0.1962643E+03  0.7818608E-02  0.1153278E+00
         21   -1    0    0  501  502  0.00000000000E+00  0.00000000000E+00  0.28996066568E+03  0.28996066568E+03  0.00000000000E+00 0. -1.
         21   -1    0    0  502  503 -0.00000000000E+00 -0.00000000000E+00 -0.25780547161E+03  0.25780547161E+03  0.00000000000E+00 0. -1.
         -6    2    1    2    0  503  0.16524168906E+02  0.88143373104E+02 -0.17546041644E+03  0.26206710872E+03  0.17277299949E+03 0.  0.
        -24    2    3    3    0    0  0.42960303223E+02  0.44005690497E+02 -0.25257475725E+02  0.10322751156E+03  0.78967655494E+02 0.  0.
          6    2    1    2  501    0 -0.16524168906E+02 -0.88143373104E+02  0.20761561052E+03  0.28569902857E+03  0.17457775006E+03 0.  0.
         24    2    5    5    0    0  0.51340926271E+02 -0.88881834101E+02  0.12140750781E+03  0.17588034418E+03  0.75221282722E+02 0.  0.
          5    1    5    5  501    0 -0.67865095177E+02  0.73846099636E+00  0.86208102713E+02  0.10981868439E+03  0.47000000000E+01 0. -1.
        -11    1    6    6    0    0  0.17603092069E+02 -0.11631003550E+02 -0.70400500795E+01  0.22242108693E+02  0.00000000000E+00 0.  1.
         12    1    6    6    0    0  0.33737834202E+02 -0.77250830550E+02  0.12844755789E+03  0.15363823549E+03  0.00000000000E+00 0. -1.
         -5    1    3    3    0  503 -0.26436134317E+02  0.44137682607E+02 -0.15020294072E+03  0.15883959715E+03  0.47000000000E+01 0.  1.
         13    1    4    4    0    0  0.38412429375E+02  0.65257857691E+02 -0.29164130035E+02  0.81145851414E+02  0.00000000000E+00 0. -1.
        -14    1    4    4    0    0  0.45478738484E+01 -0.21252167195E+02  0.39066543102E+01  0.22081660148E+02  0.00000000000E+00 0.  1.
</event>
<event>
12    1  0.8451514E-002  0.3001651E+03  0.7818608E-02  0.1085199E+00
         21   -1    0    0  503  502  0.00000000000E+00  0.00000000000E+00  0.26128813914E+03  0.26128813914E+03  0.00000000000E+00 0. -1.
         21   -1    0    0  501  503 -0.00000000000E+00 -0.00000000000E+00 -0.53084380372E+03  0.53084380372E+03  0.00000000000E+00 0. -1.
          6    2    1    2  501    0  0.21455235874E+03  0.12011999787E+03 -0.36952049602E+03  0.47607195067E+03  0.17215567579E+03 0.  0.
         24    2    3    3    0    0  0.16492115151E+03  0.25171882135E+02 -0.28131198867E+03  0.33721507406E+03  0.82127713575E+02 0.  0.
         -6    2    1    2    0  502 -0.21455235874E+03 -0.12011999787E+03  0.99964831441E+02  0.31605999220E+03  0.17157920216E+03 0.  0.
        -24    2    5    5    0    0 -0.19141729344E+03 -0.91464212857E+02  0.17785310468E+02  0.22588267283E+03  0.75500875194E+02 0.  0.
          5    1    3    3  501    0  0.49631207223E+02  0.94948115738E+02 -0.88208507343E+02  0.13885687660E+03  0.47000000000E+01 0. -1.
        -11    1    4    4    0    0  0.40961037163E+02 -0.26503168197E+02 -0.10314164642E+03  0.11409830724E+03  0.00000000000E+00 0.  1.
         12    1    4    4    0    0  0.12396011435E+03  0.51675050332E+02 -0.17817034226E+03  0.22311676682E+03  0.00000000000E+00 0. -1.
         -5    1    5    5    0  502 -0.23135065300E+02 -0.28655785016E+02  0.82179520973E+02  0.90177319369E+02  0.47000000000E+01 0.  1.
         13    1    6    6    0    0 -0.12933228285E+03 -0.29292093301E+02 -0.11898866260E+02  0.13314071178E+03  0.00000000000E+00 0. -1.
        -14    1    6    6    0    0 -0.62085010591E+02 -0.62172119557E+02  0.29684176728E+02  0.92741961044E+02  0.00000000000E+00 0.  1.
</event>
<event>
12    1  0.8451514E-002  0.2500433E+03  0.7818608E-02  0.1113362E+00
         21   -1    0    0  501  502  0.00000000000E+00  0.00000000000E+00  0.50186864752E+03  0.50186864752E+03  0.00000000000E+00 0. -1.
         21   -1    0    0  502  503 -0.00000000000E+00 -0.00000000000E+00 -0.21155824088E+03  0.21155824088E+03  0.00000000000E+00 0.  1.
         -6    2    1    2    0  503 -0.10262634219E+03 -0.15012744284E+03 -0.84009254868E+02  0.26327483935E+03  0.17083814249E+03 0.  0.
        -24    2    3    3    0    0 -0.23513121899E+02 -0.13459822450E+03 -0.19618433390E+02  0.15998724989E+03  0.80879467473E+02 0.  0.
          6    2    1    2  501    0  0.10262634219E+03  0.15012744284E+03  0.37431966151E+03  0.45015204905E+03  0.17161364476E+03 0.  0.
         24    2    5    5    0    0  0.50033126620E+01  0.32864769848E+02  0.74326186565E+02  0.11355293232E+03  0.79150238125E+02 0.  0.
          5    1    5    5  501    0  0.97623029532E+02  0.11726267299E+03  0.29999347494E+03  0.33659911673E+03  0.47000000000E+01 0. -1.
        -13    1    6    6    0    0 -0.21506643486E+02 -0.93973200399E+01 -0.66938839745E+00  0.23479638387E+02  0.00000000000E+00 0.  1.
         14    1    6    6    0    0  0.26509956148E+02  0.42262089888E+02  0.74995574963E+02  0.90073293937E+02  0.00000000000E+00 0. -1.
         -5    1    3    3    0  503 -0.79113220295E+02 -0.15529218342E+02 -0.64390821477E+02  0.10328758947E+03  0.47000000000E+01 0.  1.
         11    1    4    4    0    0 -0.34391121457E+02 -0.68611755393E+02  0.23678556949E+02  0.80318094302E+02  0.00000000000E+00 0. -1.
        -12    1    4    4    0    0  0.10877999558E+02 -0.65986469103E+02 -0.43296990339E+02  0.79669155584E+02  0.00000000000E+00 0.  1.
</event>
<event>
12    1  0.8451514E-002  0.1787631E+03  0.7818608E-02  0.1169018E+00
         21   -1    0    0  503  502  0.00000000000E+00  0.00000000000E+00  0.10416352297E+03  0.10416352297E+03  0.00000000000E+00 0. -1.
         21   -1    0    0  501  503 -0.00000000000E+00 -0.00000000000E+00 -0.33992065549E+03  0.33992065549E+03  0.00000000000E+00 0. -1.
          6    2    1    2  501    0  0.21517636227E+02  0.44654078354E+02 -0.18727691335E+03  0.25886381350E+03  0.17169984358E+03 0.  0.
         24    2    3    3    0    0 -0.36695312565E+02  0.14687590044E+02 -0.16801061716E+03  0.19045315645E+03  0.80514384180E+02 0.  0.
         -6    2    1    2    0  502 -0.21517636227E+02 -0.44654078354E+02 -0.48480219167E+02  0.18522036496E+03  0.17175347613E+03 0.  0.
        -24    2    5    5    0    0  0.48074007895E+02 -0.24564396965E+02  0.22922002501E+01  0.96639775646E+02  0.80121608956E+02 0.  0.
          5    1    3    3  501    0  0.58212948791E+02  0.29966488310E+02 -0.19266296190E+02  0.68410657046E+02  0.47000000000E+01 0. -1.
        -11    1    4    4    0    0 -0.38744888602E+02  0.27150155748E+02 -0.40382504225E+02  0.62201639829E+02  0.00000000000E+00 0.  1.
         12    1    4    4    0    0  0.20495760370E+01 -0.12462565704E+02 -0.12762811293E+03  0.12825151662E+03  0.00000000000E+00 0. -1.
         -5    1    5    5    0  502 -0.69591644121E+02 -0.20089681389E+02 -0.50772419417E+02  0.88580589314E+02  0.47000000000E+01 0.  1.
         11    1    6    6    0    0 -0.10028230141E+02  0.14939264150E+01  0.26610127878E+02  0.28476237841E+02  0.00000000000E+00 0. -1.
        -12    1    6    6    0    0  0.58102238035E+02 -0.26058323380E+02 -0.24317927628E+02  0.68163537806E+02  0.00000000000E+00 0.  1.
</event>
<event>
12    1  0.8451514E-002  0.2269980E+03  0.7818608E-02  0.1128811E+00
         21   -1    0    0  501  502  0.00000000000E+00  0.00000000000E+00  0.10263733088E+03  0.10263733088E+03  0.00000000000E+00 0. -1.
         21   -1    0    0  502  503 -0.00000000000E+00 -0.00000000000E+00 -0.50600450028E+03  0.50600450028E+03  0.00000000000E+00 0. -1.
         -6    2    1    2    0  503 -0.14206731905E+03 -0.46271830613E+02 -0.23034958232E+03  0.32340224241E+03  0.17089141250E+03 0.  0.
        -24    2    3    3    0    0 -0.15459973137E+03 -0.78669868989E+02 -0.20585528191E+03  0.28063829730E+03  0.79318545061E+02 0.  0.
          6    2    1    2  501    0  0.14206731905E+03  0.46271830613E+02 -0.17301758708E+03  0.28523958876E+03  0.17059405647E+03 0.  0.
         24    2    5    5    0    0  0.62669269426E+02 -0.38343425692E+02 -0.67528437237E+02  0.12835159489E+03  0.80724137972E+02 0.  0.
          5    1    5    5  501    0  0.79398049628E+02  0.84615256305E+02 -0.10548914985E+03  0.15688799387E+03  0.47000000000E+01 0. -1.
        -11    1    6    6    0    0 -0.42596406064E+01 -0.37692807078E+02 -0.79776655221E+01  0.38762551396E+02  0.00000000000E+00 0.  1.
         12    1    6    6    0    0  0.66928910032E+02 -0.65061861393E+00 -0.59550771715E+02  0.89589043496E+02  0.00000000000E+00 0. -1.
         -5    1    3    3    0  503  0.12532412317E+02  0.32398038376E+02 -0.24494300403E+02  0.42763945110E+02  0.47000000000E+01 0.  1.
         11    1    4    4    0    0 -0.11593980343E+03 -0.89287220964E+02 -0.18360233289E+03  0.23478514112E+03  0.00000000000E+00 0. -1.
        -12    1    4    4    0    0 -0.38659927940E+02  0.10617351975E+02 -0.22252949025E+02  0.45853156179E+02  0.00000000000E+00 0.  1.
</event>
<event>
12    1  0.8451514E-002  0.1933748E+03  0.7818608E-02  0.1155562E+00
         21   -1    0    0  503  502  0.00000000000E+00  0.00000000000E+00  0.70309369593E+03  0.70309369593E+03  0.00000000000E+00 0.  1.
         21   -1    0    0  501  503 -0.00000000000E+00 -0.00000000000E+00 -0.61273115473E+02  0.61273115473E+02  0.00000000000E+00 0.  1.
          6    2    1    2  501    0 -0.71992880208E+02  0.51013039311E+02  0.18052450191E+03  0.26417895580E+03  0.17151128219E+03 0.  0.
         24    2    3    3    0    0 -0.23471192428E+02  0.78304331436E+02  0.17219448092E+03  0.20769313404E+03  0.82480503573E+02 0.  0.
         -6    2    1    2    0  502  0.71992880208E+02 -0.51013039311E+02  0.46129607855E+03  0.50018785560E+03  0.17207124636E+03 0.  0.
        -24    2    5    5    0    0 -0.22136149221E+02 -0.39237370283E+02  0.29500980775E+03  0.30868810516E+03  0.78917547288E+02 0.  0.
          5    1    3    3  501    0 -0.48521687780E+02 -0.27291292125E+02  0.83300209839E+01  0.56485821765E+02  0.47000000000E+01 0. -1.
        -11    1    4    4    0    0  0.11524578517E+02  0.62568179692E+02  0.54072182222E+02  0.83494873556E+02  0.00000000000E+00 0.  1.
         12    1    4    4    0    0 -0.34995770945E+02  0.15736151744E+02  0.11812229870E+03  0.12419826048E+03  0.00000000000E+00 0. -1.
         -5    1    5    5    0  502  0.94129029429E+02 -0.11775669027E+02  0.16628627080E+03  0.19149975044E+03  0.47000000000E+01 0.  1.
         11    1    6    6    0    0 -0.22459391014E+02 -0.34437926288E+02  0.29937944492E+03  0.30218942246E+03  0.00000000000E+00 0. -1.
        -12    1    6    6    0    0  0.32324179302E+00 -0.47994439956E+01 -0.43696371608E+01  0.64986827004E+01  0.00000000000E+00 0.  1.
</event>
<event>
12    1  0.8451514E-002  0.1774900E+03  0.7818608E-02  0.1173439E+00
         21   -1    0    0  503  502  0.00000000000E+00  0.00000000000E+00  0.19444668695E+03  0.19444668695E+03  0.00000000000E+00 0. -1.
         21   -1    0    0  501  503 -0.00000000000E+00 -0.00000000000E+00 -0.17649793311E+03  0.17649793311E+03  0.00000000000E+00 0.  1.
          6    2    1    2  501    0 -0.33430976998E+02  0.23018243086E+02 -0.61945780051E+02  0.17630180314E+03  0.15999242603E+03 0.  0.
         24    2    3    3    0    0 -0.24178649173E+02  0.86199147280E+01  0.25001908858E+02  0.87561124550E+02  0.79893335643E+02 0.  0.
         -6    2    1    2    0  502  0.33430976998E+02 -0.23018243086E+02  0.79894533885E+02  0.19464281692E+03  0.17278663113E+03 0.  0.
        -24    2    5    5    0    0 -0.48077436210E+01  0.61763069698E+02  0.36270529062E+02  0.91806954747E+02  0.57229140167E+02 0.  0.
          5    1    3    3  501    0 -0.92523278253E+01  0.14398328358E+02 -0.86947688909E+02  0.88740678589E+02  0.47000000000E+01 0. -1.
        -11    1    4    4    0    0  0.25674139737E+02 -0.12723585960E+02  0.15257839975E+02  0.32463098614E+02  0.00000000000E+00 0.  1.
         12    1    4    4    0    0 -0.49852788910E+02  0.21343500688E+02  0.97440688833E+01  0.55098025936E+02  0.00000000000E+00 0. -1.
         -5    1    5    5    0  502  0.38238720619E+02 -0.84781312784E+02  0.43624004823E+02  0.10283586217E+03  0.47000000000E+01 0.  1.
         11    1    6    6    0    0 -0.25029107334E+02  0.58749693497E+02  0.26338700507E+02  0.69077563972E+02  0.00000000000E+00 0. -1.
        -12    1    6    6    0    0  0.20221363713E+02  0.30133762011E+01  0.99318285550E+01  0.22729390775E+02  0.00000000000E+00 0.  1.
</event>
<event>
12    1  0.8451514E-002  0.2791384E+03  0.7818608E-02  0.1096427E+00
         21   -1    0    0  503  502  0.00000000000E+00  0.00000000000E+00  0.17332673277E+03  0.17332673277E+03  0.00000000000E+00 0. -1.
         21   -1    0    0  501  503 -0.00000000000E+00 -0.00000000000E+00 -0.73268259579E+03  0.73268259579E+03  0.00000000000E+00 0.  1.
          6    2    1    2  501    0 -0.20251899036E+03  0.83067858767E+02 -0.56223604973E+03  0.62685602266E+03  0.17007318104E+03 0.  0.
         24    2    3    3    0    0 -0.41254251959E+02 -0.43082913817E+01 -0.24382272074E+03  0.25936446419E+03  0.78102057947E+02 0.  0.
         -6    2    1    2    0  502  0.20251899036E+03 -0.83067858767E+02  0.28801867049E+01  0.27915330590E+03  0.17321680664E+03 0.  0.
        -24    2    5    5    0    0  0.84513624188E+02  0.24387213349E+02  0.13173416867E+02  0.11915361979E+03  0.79289074580E+02 0.  0.
          5    1    3    3  501    0 -0.16126473840E+03  0.87376150149E+02 -0.31841332899E+03  0.36749155847E+03  0.47000000000E+01 0. -1.
        -13    1    4    4    0    0 -0.36351504059E+02  0.24504301691E+02 -0.66505619735E+02  0.79654818467E+02  0.00000000000E+00 0.  1.
         14    1    4    4    0    0 -0.49027479002E+01 -0.28812593073E+02 -0.17731710100E+03  0.17970964572E+03  0.00000000000E+00 0. -1.
         -5    1    5    5    0  502  0.11800536617E+03 -0.10745507212E+03 -0.10293230162E+02  0.15999968611E+03  0.47000000000E+01 0.  1.
         11    1    6    6    0    0  0.95156629185E+02  0.21752049310E+02  0.27219061907E+02  0.10133515213E+03  0.00000000000E+00 0. -1.
        -12    1    6    6    0    0 -0.10643004996E+02  0.26351640386E+01 -0.14045645040E+02  0.17818467652E+02  0.00000000000E+00 0.  1.
</event>
<event>
12    1  0.8451514E-002  0.2416548E+03  0.7818608E-02  0.1118972E+00
         21   -1    0    0  501  502  0.00000000000E+00  0.00000000000E+00  0.21150611648E+03  0.21150611648E+03  0.00000000000E+00 0. -1.
         21   -1    0    0  502  503 -0.00000000000E+00 -0.00000000000E+00 -0.33110280295E+03  0.33110280295E+03  0.00000000000E+00 0. -1.
         -6    2    1    2    0  503 -0.16093748807E+03 -0.47098334743E+02  0.52845785639E+02  0.24573612496E+03  0.17168120994E+03 0.  0.
        -24    2    3    3    0    0 -0.91011784788E+02 -0.89682334919E+02  0.60385405417E+02  0.16338360881E+03  0.81986220014E+02 0.  0.
          6    2    1    2  501    0  0.16093748807E+03  0.47098334743E+02 -0.17244247211E+03  0.29687279446E+03  0.17400552205E+03 0.  0.
         24    2    5    5    0    0  0.84888806581E+01 -0.44718654207E+01 -0.77390802161E+02  0.10990495390E+03  0.77444844610E+02 0.  0.
          5    1    5    5  501    0  0.15244860741E+03  0.51570200164E+02 -0.95051669947E+02  0.18696784057E+03  0.47000000000E+01 0. -1.
        -11    1    6    6    0    0  0.23919812102E+02 -0.34661298002E+02 -0.55010178303E+02  0.69279742401E+02  0.00000000000E+00 0.  1.
         12    1    6    6    0    0 -0.15430931444E+02  0.30189432581E+02 -0.22380623858E+02  0.40625211496E+02  0.00000000000E+00 0. -1.
         -5    1    3    3    0  503 -0.69925703281E+02  0.42584000176E+02 -0.75396197773E+01  0.82352516153E+02  0.47000000000E+01 0.  1.
         11    1    4    4    0    0 -0.69171994346E+02 -0.75837116219E+02  0.55948540192E+01  0.10279754564E+03  0.00000000000E+00 0. -1.
        -12    1    4    4    0    0 -0.21839790442E+02 -0.13845218699E+02  0.54790551398E+02  0.60586063165E+02  0.00000000000E+00 0.  1.
</event>
<event>
12    1  0.8451514E-002  0.1786651E+03  0.7818608E-02  0.1169859E+00
         21   -1    0    0  503  502  0.00000000000E+00  0.00000000000E+00  0.12304453507E+03  0.12304453507E+03  0.00000000000E+00 0.  1.
         21   -1    0    0  501  503 -0.00000000000E+00 -0.00000000000E+00 -0.30586167203E+03  0.30586167203E+03  0.00000000000E+00 0.  1.
          6    2    1    2  501    0  0.20507400573E+02 -0.41525635965E+02 -0.17820675925E+03  0.25018161736E+03  0.16937609247E+03 0.  0.
         24    2    3    3    0    0 -0.19582148756E+01 -0.54401588266E+02 -0.40568342251E+02  0.11004982989E+03  0.86612973938E+02 0.  0.
         -6    2    1    2    0  502 -0.20507400573E+02  0.41525635965E+02 -0.46103777097E+01  0.17872458974E+03  0.17255808145E+03 0.  0.
        -24    2    5    5    0    0  0.76499755562E+01 -0.35290741601E+02  0.26218560289E+02  0.91168281509E+02  0.79500214345E+02 0.  0.
          5    1    3    3  501    0  0.22465615449E+02  0.12875952301E+02 -0.13763841700E+03  0.14013178747E+03  0.47000000000E+01 0. -1.
        -11    1    4    4    0    0  0.21595361902E+02 -0.24285914365E+02 -0.59188863020E+02  0.67523972024E+02  0.00000000000E+00 0.  1.
         12    1    4    4    0    0 -0.23553576777E+02 -0.30115673902E+02  0.18620520769E+02  0.42525857866E+02  0.00000000000E+00 0. -1.
         -5    1    5    5    0  502 -0.28157376129E+02  0.76816377566E+02 -0.30828937999E+02  0.87556308231E+02  0.47000000000E+01 0.  1.
         11    1    6    6    0    0  0.23920408007E+02  0.14207735040E+02  0.27402947510E+02  0.39050828242E+02  0.00000000000E+00 0. -1.
        -12    1    6    6    0    0 -0.16270432451E+02 -0.49498476641E+02 -0.11843872205E+01  0.52117453267E+02  0.00000000000E+00 0.  1.
</event>
<event>
12    1  0.8451514E-002  0.1939999E+03  0.7818608E-02  0.1155140E+00
         21   -1    0    0  501  502  0.00000000000E+00  0.00000000000E+00  0.59168987232E+03  0.59168987232E+03  0.00000000000E+00 0.  1.
         21   -1    0    0  502  503 -0.00000000000E+00 -0.00000000000E+00 -0.93453806716E+02  0.93453806716E+02  0.00000000000E+00 0.  1.
         -6    2    1    2    0  503  0.34676694207E+02  0.78108111866E+02  0.53907143338E+02  0.20030953274E+03  0.17295831446E+03 0.  0.
        -24    2    3    3    0    0  0.65335304514E+02  0.23754097260E+01 -0.75892479406E+01  0.97941135761E+02  0.72529475405E+02 0.  0.
          6    2    1    2  501    0 -0.34676694207E+02 -0.78108111866E+02  0.44432892226E+03  0.48483414630E+03  0.17416259069E+03 0.  0.
         24    2    5    5    0    0 -0.56404320167E+02 -0.83338579925E+02  0.18923523476E+03  0.22872025185E+03  0.79851194688E+02 0.  0.
          5    1    5    5  501    0  0.21727625960E+02  0.52304680586E+01  0.25509368750E+03  0.25611389445E+03  0.47000000000E+01 0. -1.
        -13    1    6    6    0    0 -0.21835483864E+01  0.12906083351E+02  0.52163135951E+01  0.14090592554E+02  0.00000000000E+00 0.  1.
         14    1    6    6    0    0 -0.54220771780E+02 -0.96244663276E+02  0.18401892117E+03  0.21462965930E+03  0.00000000000E+00 0. -1.
         -5    1    3    3    0  503 -0.30658610307E+02  0.75732702140E+02  0.61496391279E+02  0.10236839698E+03  0.47000000000E+01 0.  1.
         11    1    4    4    0    0  0.63698547796E+02  0.29685597139E+02 -0.47931011056E+01  0.70439431337E+02  0.00000000000E+00 0. -1.
        -12    1    4    4    0    0  0.16367567180E+01 -0.27310187413E+02 -0.27961468350E+01  0.27501704424E+02  0.00000000000E+00 0.  1.
</event>
<event>
12    1  0.8451514E-002  0.1779348E+03  0.7818608E-02  0.1169904E+00
         21   -1    0    0  503  502  0.00000000000E+00  0.00000000000E+00  0.48763578871E+03  0.48763578871E+03  0.00000000000E+00 0.  1.
         21   -1    0    0  501  503 -0.00000000000E+00 -0.00000000000E+00 -0.14254301978E+03  0.14254301978E+03  0.00000000000E+00 0.  1.
          6    2    1    2  501    0  0.55490497754E+01  0.39472124011E+02 -0.60075671167E+02  0.18780276494E+03  0.17341266311E+03 0.  0.
         24    2    3    3    0    0  0.63472730068E+01  0.94147230899E+02 -0.43023219450E+02  0.13033207169E+03  0.78939613233E+02 0.  0.
         -6    2    1    2    0  502 -0.55490497754E+01 -0.39472124011E+02  0.40516844009E+03  0.44237604355E+03  0.17304987296E+03 0.  0.
        -24    2    5    5    0    0 -0.10910808586E+02 -0.76166980481E+01  0.40113439830E+03  0.40948409752E+03  0.81187195945E+02 0.  0.
          5    1    3    3  501    0 -0.79822323137E+00 -0.54675106888E+02 -0.17052451718E+02  0.57470693254E+02  0.47000000000E+01 0. -1.
        -11    1    4    4    0    0  0.30842572156E+02  0.70477030049E+02 -0.19273548289E+01  0.76954471724E+02  0.00000000000E+00 0.  1.
         12    1    4    4    0    0 -0.24495299149E+02  0.23670200849E+02 -0.41095864621E+02  0.53377599961E+02  0.00000000000E+00 0. -1.
         -5    1    5    5    0  502  0.53617588103E+01 -0.31855425963E+02  0.40340417928E+01  0.32891946035E+02  0.47000000000E+01 0.  1.
         13    1    6    6    0    0  0.14471479355E+02 -0.46886622420E+01  0.36451315760E+03  0.36483043916E+03  0.00000000000E+00 0. -1.
        -14    1    6    6    0    0 -0.25382287941E+02 -0.29280358061E+01  0.36621240699E+02  0.44653658362E+02  0.00000000000E+00 0.  1.
</event>
<event>
12    1  0.8451514E-002  0.1913039E+03  0.7818608E-02  0.1157385E+00
         21   -1    0    0  501  502  0.00000000000E+00  0.00000000000E+00  0.14169757507E+03  0.14169757507E+03  0.00000000000E+00 0.  1.
         21   -1    0    0  502  503 -0.00000000000E+00 -0.00000000000E+00 -0.29015500693E+03  0.29015500693E+03  0.00000000000E+00 0.  1.
         -6    2    1    2    0  503  0.67152740790E+02  0.49116439913E+02 -0.14651259390E+03  0.24096289373E+03  0.17226508851E+03 0.  0.
        -24    2    3    3    0    0 -0.23188434275E+02  0.52407191602E+02 -0.68098676317E+02  0.12119983837E+03  0.82266359397E+02 0.  0.
          6    2    1    2  501    0 -0.67152740790E+02 -0.49116439913E+02 -0.19448379638E+01  0.19088968828E+03  0.17179399126E+03 0.  0.
         24    2    5    5    0    0 -0.24986925720E+02  0.32677087691E+02  0.26238139065E+02  0.94533539994E+02  0.80969202326E+02 0.  0.
          5    1    5    5  501    0 -0.42165815070E+02 -0.81793527603E+02 -0.28182977029E+02  0.96356148286E+02  0.47000000000E+01 0. -1.
        -11    1    6    6    0    0 -0.40978152953E+02  0.13140952633E+02  0.45613301728E+02  0.62709384865E+02  0.00000000000E+00 0.  1.
         12    1    6    6    0    0  0.15991227233E+02  0.19536135058E+02 -0.19375162663E+02  0.31824155129E+02  0.00000000000E+00 0. -1.
         -5    1    3    3    0  503  0.90341175065E+02 -0.32907516895E+01 -0.78413917578E+02  0.11976305536E+03  0.47000000000E+01 0.  1.
         13    1    4    4    0    0  0.58344684097E+01 -0.74550885860E+01  0.13141399839E+02  0.16196164891E+02  0.00000000000E+00 0. -1.
        -14    1    4    4    0    0 -0.29022902685E+02  0.59862280188E+02 -0.81240076157E+02  0.10500367348E+03  0.00000000000E+00 0.  1.
</event>
<event>
12    1  0.8451514E-002  0.1813148E+03  0.7818608E-02  0.1167133E+00
         21   -1    0    0  503  502  0.00000000000E+00  0.00000000000E+00  0.16628197788E+03  0.16628197788E+03  0.00000000000E+00 0.  1.
         21   -1    0    0  501  503 -0.00000000000E+00 -0.00000000000E+00 -0.26387414183E+03  0.26387414183E+03  0.00000000000E+00 0.  1.
          6    2    1    2  501    0 -0.53978019644E+02 -0.51844130847E+01 -0.15841190165E+03  0.23891259018E+03  0.17042414858E+03 0.  0.
         24    2    3    3    0    0 -0.29718605943E+02 -0.53174001194E+02 -0.38554626592E+02  0.10746154947E+03  0.79692254582E+02 0.  0.
         -6    2    1    2    0  502  0.53978019644E+02  0.51844130847E+01  0.60819737699E+02  0.19124352953E+03  0.17301601761E+03 0.  0.
        -24    2    5    5    0    0  0.10381983799E+03  0.67442034722E+00  0.47337150237E+02  0.13920107517E+03  0.79731549173E+02 0.  0.
          5    1    3    3  501    0 -0.24259413701E+02  0.47989588109E+02 -0.11985727506E+03  0.13145104071E+03  0.47000000000E+01 0. -1.
        -11    1    4    4    0    0 -0.40986948954E+02  0.21150544839E+01 -0.38595504877E+01  0.41222561419E+02  0.00000000000E+00 0.  1.
         12    1    4    4    0    0  0.11268343011E+02 -0.55289055678E+02 -0.34695076104E+02  0.66238988050E+02  0.00000000000E+00 0. -1.
         -5    1    5    5    0  502 -0.49841818350E+02  0.45099927375E+01  0.13482587462E+02  0.52042454358E+02  0.47000000000E+01 0.  1.
         13    1    6    6    0    0 -0.10524393763E+02  0.38431826466E+00 -0.69560523029E+01  0.12621300577E+02  0.00000000000E+00 0. -1.
        -14    1    6    6    0    0  0.11434423176E+03  0.29010208257E+00  0.54293202539E+02  0.12657977460E+03  0.00000000000E+00 0.  1.
</event>
<event>
12    1  0.8451514E-002  0.1811222E+03  0.7818608E-02  0.1167362E+00
         21   -1    0    0  501  502  0.00000000000E+00  0.00000000000E+00  0.55127943751E+03  0.55127943751E+03  0.00000000000E+00 0.  1.
         21   -1    0    0  502  503 -0.00000000000E+00 -0.00000000000E+00 -0.77214099776E+02  0.77214099776E+02  0.00000000000E+00 0.  1.
         -6    2    1    2    0  503  0.43721236916E+02 -0.19624849338E+02  0.39247717177E+03  0.43225406599E+03  0.17466701443E+03 0.  0.
        -24    2    3    3    0    0  0.58630978679E+01 -0.54760257857E+02  0.35568309683E+03  0.36866452616E+03  0.79812315617E+02 0.  0.
          6    2    1    2  501    0 -0.43721236916E+02  0.19624849338E+02  0.81588165966E+02  0.19623947130E+03  0.17192038856E+03 0.  0.
         24    2    5    5    0    0 -0.76570514449E+02 -0.18677529037E+02  0.16135021314E+02  0.11346054060E+03  0.80006634640E+02 0.  0.
          5    1    5    5  501    0  0.32849277533E+02  0.38302378375E+02  0.65453144652E+02  0.82778930704E+02  0.47000000000E+01 0. -1.
        -13    1    6    6    0    0 -0.60431315607E+02  0.22603446183E+02 -0.42784967688E+01  0.64661930221E+02  0.00000000000E+00 0.  1.
         14    1    6    6    0    0 -0.16139198843E+02 -0.41280975220E+02  0.20413518083E+02  0.48798610379E+02  0.00000000000E+00 0. -1.
         -5    1    3    3    0  503  0.37858139048E+02  0.35135408518E+02  0.36794074941E+02  0.63589539821E+02  0.47000000000E+01 0.  1.
         13    1    4    4    0    0 -0.14026912464E+02 -0.60171761751E+01  0.25124374021E+03  0.25170692815E+03  0.00000000000E+00 0. -1.
        -14    1    4    4    0    0  0.19890010332E+02 -0.48743081681E+02  0.10443935662E+03  0.11695759802E+03  0.00000000000E+00 0.  1.
</event>
<event>
12    1  0.8451514E-002  0.1969419E+03  0.7818608E-02  0.1152473E+00
         21   -1    0    0  501  502  0.00000000000E+00  0.00000000000E+00  0.42410778524E+02  0.42410778524E+02  0.00000000000E+00 0.  1.
         21   -1    0    0  502  503 -0.00000000000E+00 -0.00000000000E+00 -0.19588232537E+04  0.19588232537E+04  0.00000000000E+00 0.  1.
         -6    2    1    2    0  503  0.67310049816E+02 -0.71064776208E+02 -0.16890970121E+04  0.17004709653E+04  0.17021146359E+03 0.  0.
        -24    2    3    3    0    0  0.86041528649E+01  0.21214597875E+02 -0.56253196452E+03  0.56859961146E+03  0.79619196434E+02 0.  0.
          6    2    1    2  501    0 -0.67310049816E+02  0.71064776208E+02 -0.22731546306E+03  0.30076306690E+03  0.17089545764E+03 0.  0.
         24    2    5    5    0    0 -0.79597367380E+02  0.46561260647E+01 -0.81052214353E+02  0.13959199348E+03  0.80987917541E+02 0.  0.
          5    1    5    5  501    0  0.12287317564E+02  0.66408650144E+02 -0.14626324870E+03  0.16117107342E+03  0.47000000000E+01 0. -1.
        -13    1    6    6    0    0 -0.28583563448E+01  0.11656773423E+02  0.13205459201E+02  0.17844739291E+02  0.00000000000E+00 0.  1.
         14    1    6    6    0    0 -0.76739011035E+02 -0.70006473587E+01 -0.94257673554E+02  0.12174725419E+03  0.00000000000E+00 0. -1.
         -5    1    3    3    0  503  0.58705896951E+02 -0.92279374083E+02 -0.11265650476E+04  0.11318713538E+04  0.47000000000E+01 0.  1.
         13    1    4    4    0    0  0.15258471438E+02 -0.28479033388E+02 -0.19381945582E+03  0.19649391275E+03  0.00000000000E+00 0. -1.
        -14    1    4    4    0    0 -0.66543185726E+01  0.49693631263E+02 -0.36871250869E+03  0.37210569871E+03  0.00000000000E+00 0.  1.
</event>
<event>
12    1  0.8451514E-002  0.1753299E+03  0.7818608E-02  0.1173159E+00
         21   -1    0    0  503  502  0.00000000000E+00  0.00000000000E+00  0.48260196402E+03  0.48260196402E+03  0.00000000000E+00 0. -1.
         21   -1    0    0  501  503 -0.00000000000E+00 -0.00000000000E+00 -0.73648648436E+02  0.73648648436E+02  0.00000000000E+00 0. -1.
          6    2    1    2  501    0  0.22012468953E+02 -0.22120834402E+02  0.98314259176E+02  0.20101313003E+03  0.17253030106E+03 0.  0.
         24    2    3    3    0    0  0.76537052969E+02  0.10440393240E+02  0.60774747378E+02  0.12709108492E+03  0.80570786628E+02 0.  0.
         -6    2    1    2    0  502 -0.22012468953E+02  0.22120834402E+02  0.31063905641E+03  0.35523748243E+03  0.16947910034E+03 0.  0.
        -24    2    5    5    0    0 -0.32619016420E+02  0.35396493505E+02  0.32145366857E+03  0.33455445049E+03  0.79229459961E+02 0.  0.
          5    1    3    3  501    0 -0.54524584016E+02 -0.32561227642E+02  0.37539511798E+02  0.73922045113E+02  0.47000000000E+01 0. -1.
        -11    1    4    4    0    0  0.25183589771E+02 -0.33826886193E+02  0.12929198678E+02  0.44109359571E+02  0.00000000000E+00 0.  1.
         12    1    4    4    0    0  0.51353463198E+02  0.44267279433E+02  0.47845548700E+02  0.82981725345E+02  0.00000000000E+00 0. -1.
         -5    1    5    5    0  502  0.10606547467E+02 -0.13275659103E+02 -0.10814612158E+02  0.20683031933E+02  0.47000000000E+01 0.  1.
         11    1    6    6    0    0  0.21432405610E+02  0.25467025495E+02  0.75104430936E+02  0.82149820110E+02  0.00000000000E+00 0. -1.
        -12    1    6    6    0    0 -0.54051422030E+02  0.99294680105E+01  0.24634923763E+03  0.25240463038E+03  0.00000000000E+00 0.  1.
</event>
<event>
12    1  0.8451514E-002  0.2232723E+03  0.7818608E-02  0.1131482E+00
         21   -1    0    0  501  502  0.00000000000E+00  0.00000000000E+00  0.87272242552E+02  0.87272242552E+02  0.00000000000E+00 0.  1.
         21   -1    0    0  502  503 -0.00000000000E+00 -0.00000000000E+00 -0.57713409186E+03  0.57713409186E+03  0.00000000000E+00 0. -1.
         -6    2    1    2    0  503 -0.11388694288E+03  0.85666427287E+02 -0.27916281409E+03  0.35741347679E+03  0.17176595733E+03 0.  0.
        -24    2    3    3    0    0 -0.46068677289E+02  0.10941164657E+03 -0.23036530432E+03  0.27042819328E+03  0.77265793584E+02 0.  0.
          6    2    1    2  501    0  0.11388694288E+03 -0.85666427287E+02 -0.21069903521E+03  0.30699285762E+03  0.17187657975E+03 0.  0.
         24    2    5    5    0    0  0.51356328983E+02 -0.31952818461E+02 -0.20283238711E+03  0.22405189308E+03  0.73483456613E+02 0.  0.
          5    1    5    5  501    0  0.62530613894E+02 -0.53713608825E+02 -0.78666481024E+01  0.82940964544E+02  0.47000000000E+01 0. -1.
        -11    1    6    6    0    0  0.57461453525E+02 -0.48667949368E+02 -0.14280603473E+03  0.16144333834E+03  0.00000000000E+00 0.  1.
         12    1    6    6    0    0 -0.61051245420E+01  0.16715130907E+02 -0.60026352377E+02  0.62608554740E+02  0.00000000000E+00 0. -1.
         -5    1    3    3    0  503 -0.67818265588E+02 -0.23745219282E+02 -0.48797509776E+02  0.86985283505E+02  0.47000000000E+01 0.  1.
         13    1    4    4    0    0 -0.41912259942E+02  0.62328214529E+02 -0.67985045514E+02  0.10130849063E+03  0.00000000000E+00 0. -1.
        -14    1    4    4    0    0 -0.41564173471E+01  0.47083432040E+02 -0.16238025880E+03  0.16911970266E+03  0.00000000000E+00 0.  1.
</event>
<event>
12    1  0.8451514E-002  0.1825098E+03  0.7818608E-02  0.1166930E+00
         21   -1    0    0  503  502  0.00000000000E+00  0.00000000000E+00  0.49137193645E+03  0.49137193645E+03  0.00000000000E+00 0.  1.
         21   -1    0    0  501  503 -0.00000000000E+00 -0.00000000000E+00 -0.68953335575E+02  0.68953335575E+02  0.00000000000E+00 0.  1.
          6    2    1    2  501    0 -0.38999400127E+02  0.50373038927E+02  0.14458905106E+03  0.22791123612E+03  0.16425328491E+03 0.  0.
         24    2    3    3    0    0 -0.68571357235E+02  0.77572364792E+02  0.13029041646E+03  0.18500616735E+03  0.80821943332E+02 0.  0.
         -6    2    1    2    0  502  0.38999400127E+02 -0.50373038927E+02  0.27782954982E+03  0.33241403590E+03  0.17103051264E+03 0.  0.
        -24    2    5    5    0    0 -0.18548905546E+02 -0.78412660537E+02  0.14188961835E+03  0.18208179441E+03  0.80799188306E+02 0.  0.
          5    1    3    3  501    0  0.29571957108E+02 -0.27199325865E+02  0.14298634600E+02  0.42905068769E+02  0.47000000000E+01 0. -1.
        -11    1    4    4    0    0 -0.76181596471E+02  0.64785440493E+02  0.67926723785E+02  0.12089180595E+03  0.00000000000E+00 0.  1.
         12    1    4    4    0    0  0.76102392362E+01  0.12786924299E+02  0.62363692674E+02  0.64114361404E+02  0.00000000000E+00 0. -1.
         -5    1    5    5    0  502  0.57548305674E+02  0.28039621609E+02  0.13593993147E+03  0.15033224149E+03  0.47000000000E+01 0.  1.
         13    1    6    6    0    0 -0.42467682854E+02 -0.30011500063E+02  0.10352017831E+03  0.11584740627E+03  0.00000000000E+00 0. -1.
        -14    1    6    6    0    0  0.23918777307E+02 -0.48401160474E+02  0.38369440044E+02  0.66234388141E+02  0.00000000000E+00 0.  1.
</event>
<event>
12    1  0.8451514E-002  0.1966724E+03  0.7818608E-02  0.1153260E+00
         21   -1    0    0  501  502  0.00000000000E+00  0.00000000000E+00  0.30691328513E+02  0.30691328513E+02  0.00000000000E+00 0.  1.
         21   -1    0    0  502  503 -0.00000000000E+00 -0.00000000000E+00 -0.16096510652E+04  0.16096510652E+04  0.00000000000E+00 0.  1.
         -6    2    1    2    0  503 -0.66127043449E+02  0.66811065683E+02 -0.11774768043E+04  0.11932757481E+04  0.16917116172E+03 0.  0.
        -24    2    3    3    0    0  0.85607507683E+00  0.14331327671E+02 -0.88612940273E+03  0.88971972448E+03  0.78547755785E+02 0.  0.
          6    2    1    2  501    0  0.66127043449E+02 -0.66811065683E+02 -0.40148293239E+03  0.44706664562E+03  0.17275281836E+03 0.  0.
         24    2    5    5    0    0  0.51407815408E+02 -0.88294314667E+02 -0.17671693638E+03  0.22074822255E+03  0.84037210004E+02 0.  0.
          5    1    5    5  501    0  0.14719228041E+02  0.21483248984E+02 -0.22476599600E+03  0.22631842307E+03  0.47000000000E+01 0. -1.
        -13    1    6    6    0    0  0.59966037199E+02 -0.73801472718E+02 -0.18002360781E+03  0.20359538885E+03  0.00000000000E+00 0.  1.
         14    1    6    6    0    0 -0.85582217913E+01 -0.14492841949E+02  0.33066714229E+01  0.17152833698E+02  0.00000000000E+00 0. -1.
         -5    1    3    3    0  503 -0.66983118526E+02  0.52479738013E+02 -0.29134740160E+03  0.30355602364E+03  0.47000000000E+01 0.  1.
         11    1    4    4    0    0  0.84259252712E+01 -0.19637677465E+02 -0.78962050440E+02  0.81802444967E+02  0.00000000000E+00 0. -1.
        -12    1    4    4    0    0 -0.75698501944E+01  0.33969005136E+02 -0.80716735229E+03  0.80791727952E+03  0.00000000000E+00 0.  1.
</event>
<event>
12    1  0.8451514E-002  0.2563667E+03  0.7818608E-02  0.1109728E+00
         21   -1    0    0  501  502  0.00000000000E+00  0.00000000000E+00  0.91223838336E+02  0.91223838336E+02  0.00000000000E+00 0. -1.
         21   -1    0    0  502  503 -0.00000000000E+00 -0.00000000000E+00 -0.97058912674E+03  0.97058912674E+03  0.00000000000E+00 0.  1.
         -6    2    1    2    0  503 -0.18101547975E+03 -0.44759853448E+02 -0.71449046591E+03  0.75909191146E+03  0.17593707904E+03 0.  0.
        -24    2    3    3    0    0 -0.17728067629E+03  0.13025087200E+02 -0.49454668996E+03  0.53160476303E+03  0.80181696417E+02 0.  0.
          6    2    1    2  501    0  0.18101547975E+03  0.44759853448E+02 -0.16487482249E+03  0.30272105362E+03  0.17229707142E+03 0.  0.
         24    2    5    5    0    0  0.11091763649E+03 -0.32030952216E+02 -0.13543062300E+03  0.19455642747E+03  0.78625987064E+02 0.  0.
          5    1    5    5  501    0  0.70097843262E+02  0.76790805664E+02 -0.29444199494E+02  0.10816462614E+03  0.47000000000E+01 0. -1.
        -11    1    6    6    0    0  0.10799828413E+03 -0.23332050404E+02 -0.14433479179E+03  0.18177058637E+03  0.00000000000E+00 0.  1.
         12    1    6    6    0    0  0.29193523595E+01 -0.86989018117E+01  0.89041687853E+01  0.12785841102E+02  0.00000000000E+00 0. -1.
         -5    1    3    3    0  503 -0.37348034533E+01 -0.57784940649E+02 -0.21994377595E+03  0.22748714843E+03  0.47000000000E+01 0.  1.
         13    1    4    4    0    0 -0.48521107699E+01 -0.82520422882E+01 -0.26572392186E+01  0.99347924545E+01  0.00000000000E+00 0. -1.
        -14    1    4    4    0    0 -0.17242856552E+03  0.21277129488E+02 -0.49188945074E+03  0.52166997057E+03  0.00000000000E+00 0.  1.
</event>
<event>
12    1  0.8451514E-002  0.3356775E+03  0.7818608E-02  0.1068655E+00
         21   -1    0    0  501  502  0.00000000000E+00  0.00000000000E+00  0.71830910249E+03  0.71830910249E+03  0.00000000000E+00 0. -1.
         21   -1    0    0  502  503 -0.00000000000E+00 -0.00000000000E+00 -0.15927270932E+03  0.15927270932E+03  0.00000000000E+00 0.  1.
         -6    2    1    2    0  503  0.26576732163E+03 -0.11177751610E+03  0.33359287463E+03  0.47324793700E+03  0.17190963185E+03 0.  0.
        -24    2    3    3    0    0  0.12417655483E+03 -0.95788673051E+02  0.10855799226E+03  0.20685278572E+03  0.80049675959E+02 0.  0.
          6    2    1    2  501    0 -0.26576732163E+03  0.11177751610E+03  0.22544351854E+03  0.40433387480E+03  0.17185639328E+03 0.  0.
         24    2    5    5    0    0 -0.84899169668E+02 -0.10324876627E+02  0.27876275469E+02  0.10992397647E+03  0.63180074243E+02 0.  0.
          5    1    5    5  501    0 -0.18086815196E+03  0.12210239273E+03  0.19756724307E+03  0.29440989833E+03  0.47000000000E+01 0. -1.
        -13    1    6    6    0    0 -0.37671230264E+02  0.19153871403E+02 -0.89170402844E+01  0.43191503641E+02  0.00000000000E+00 0.  1.
         14    1    6    6    0    0 -0.47227939403E+02 -0.29478748030E+02  0.36793315754E+02  0.66732472829E+02  0.00000000000E+00 0. -1.
         -5    1    3    3    0  503  0.14159076680E+03 -0.15988843049E+02  0.22503488237E+03  0.26639515128E+03  0.47000000000E+01 0.  1.
         11    1    4    4    0    0  0.10947731913E+03 -0.39293852745E+02  0.84229998416E+02  0.14361052504E+03  0.00000000000E+00 0. -1.
        -12    1    4    4    0    0  0.14699235696E+02 -0.56494820306E+02  0.24327993844E+02  0.63242260680E+02  0.00000000000E+00 0.  1.
</event>
<event>
12    1  0.8451514E-002  0.1828360E+03  0.7818608E-02  0.1165228E+00
         21   -1    0    0  501  502  0.00000000000E+00  0.00000000000E+00  0.36955865126E+03  0.36955865126E+03  0.00000000000E+00 0.  1.
         21   -1    0    0  502  503 -0.00000000000E+00 -0.00000000000E+00 -0.25445873561E+03  0.25445873561E+03  0.00000000000E+00 0. -1.
         -6    2    1    2    0  503  0.20528784510E+02  0.56609246846E+02 -0.19319448038E+03  0.26558409872E+03  0.17200223377E+03 0.  0.
        -24    2    3    3    0    0 -0.19683310956E+02  0.24970326029E+02 -0.28887195811E+02  0.93430075551E+02  0.82968421844E+02 0.  0.
          6    2    1    2  501    0 -0.20528784510E+02 -0.56609246846E+02  0.30829439603E+03  0.35843328814E+03  0.17263530810E+03 0.  0.
         24    2    5    5    0    0 -0.52328746160E+02 -0.59826711196E+01  0.27390532037E+03  0.28930307582E+03  0.76798796385E+02 0.  0.
          5    1    5    5  501    0  0.31799961650E+02 -0.50626575727E+02  0.34389075666E+02  0.69130212324E+02  0.47000000000E+01 0. -1.
        -11    1    6    6    0    0 -0.22407549895E+02  0.94389542489E+01  0.15766761155E+02  0.28979008039E+02  0.00000000000E+00 0.  1.
         12    1    6    6    0    0 -0.29921196265E+02 -0.15421625368E+02  0.25813855921E+03  0.26032406778E+03  0.00000000000E+00 0. -1.
         -5    1    3    3    0  503  0.40212095466E+02  0.31638920817E+02 -0.16430728457E+03  0.17215402317E+03  0.47000000000E+01 0.  1.
         13    1    4    4    0    0  0.29950875557E+02  0.20143804137E+02 -0.23950399986E+02  0.43318003777E+02  0.00000000000E+00 0. -1.
        -14    1    4    4    0    0 -0.49634186513E+02  0.48265218926E+01 -0.49367958256E+01  0.50112071774E+02  0.00000000000E+00 0.  1.
</event>
<event>
12    1  0.8451514E-002  0.2122599E+03  0.7818608E-02  0.1139947E+00
         21   -1    0    0  503  502  0.00000000000E+00  0.00000000000E+00  0.66250474079E+03  0.66250474079E+03  0.00000000000E+00 0.  1.
         21   -1    0    0  501  503 -0.00000000000E+00 -0.00000000000E+00 -0.68950797490E+02  0.68950797490E+02  0.00000000000E+00 0.  1.
          6    2    1    2  501    0  0.17989615254E+02  0.12247588230E+03  0.24901427781E+03  0.32720385479E+03  0.17242471991E+03 0.  0.
         24    2    3    3    0    0  0.61221252247E+02  0.88853635441E+02  0.97370559861E+02  0.16590494868E+03  0.80002598767E+02 0.  0.
         -6    2    1    2    0  502 -0.17989615254E+02 -0.12247588230E+03  0.34453966549E+03  0.40425168348E+03  0.17142891968E+03 0.  0.
        -24    2    5    5    0    0  0.29723569957E+02 -0.11339891617E+03  0.16126595304E+03  0.21459335113E+03  0.79377540520E+02 0.  0.
          5    1    3    3  501    0 -0.43231636993E+02  0.33622246859E+02  0.15164371795E+03  0.16129890612E+03  0.47000000000E+01 0. -1.
        -13    1    4    4    0    0  0.10712836719E+02  0.35962247380E+02  0.83393993850E+02  0.91447287098E+02  0.00000000000E+00 0.  1.
         14    1    4    4    0    0  0.50508415528E+02  0.52891388062E+02  0.13976566011E+02  0.74457661578E+02  0.00000000000E+00 0. -1.
         -5    1    5    5    0  502 -0.47713185211E+02 -0.90769661256E+01  0.18327371245E+03  0.18965833236E+03  0.47000000000E+01 0.  1.
         11    1    6    6    0    0  0.10786348186E+02 -0.12974199497E+01 -0.59518505825E+01  0.12387620073E+02  0.00000000000E+00 0. -1.
        -12    1    6    6    0    0  0.18937221771E+02 -0.11210149622E+03  0.16721780362E+03  0.20220573106E+03  0.00000000000E+00 0.  1.
</event>
<event>
12    1  0.8451514E-002  0.2070921E+03  0.7818608E-02  0.1144572E+00
         21   -1    0    0  503  502  0.00000000000E+00  0.00000000000E+00  0.21729720936E+03  0.21729720936E+03  0.00000000000E+00 0. -1.
         21   -1    0    0  501  503 -0.00000000000E+00 -0.00000000000E+00 -0.38152039611E+03  0.38152039611E+03  0.00000000000E+00 0. -1.
          6    2    1    2  501    0 -0.10892419020E+03  0.14369412730E+02 -0.29157458053E+03  0.35570132639E+03  0.17157137976E+03 0.  0.
         24    2    3    3    0    0 -0.18422928182E+02  0.40121922602E+01 -0.47740093467E+02  0.95364818151E+02  0.80373067922E+02 0.  0.
         -6    2    1    2    0  502  0.10892419020E+03 -0.14369412730E+02  0.12735139377E+03  0.24311627907E+03  0.17554540274E+03 0.  0.
        -24    2    5    5    0    0  0.13536494265E+03  0.21036211799E+02  0.77874874553E+02  0.17661298899E+03  0.79758773120E+02 0.  0.
          5    1    3    3  501    0 -0.90501262022E+02  0.10357220470E+02 -0.24383448706E+03  0.26033650824E+03  0.47000000000E+01 0. -1.
        -11    1    4    4    0    0  0.23558199407E+02  0.58221059533E+01  0.80079413802E+01  0.25554115171E+02  0.00000000000E+00 0.  1.
         12    1    4    4    0    0 -0.41981127589E+02 -0.18099136931E+01 -0.55748034847E+02  0.69810702980E+02  0.00000000000E+00 0. -1.
         -5    1    5    5    0  502 -0.26440752442E+02 -0.35405624529E+02  0.49476519217E+02  0.66503290082E+02  0.47000000000E+01 0.  1.
         11    1    6    6    0    0  0.64345391309E+02  0.11974135883E+02  0.81977638415E+02  0.10490015497E+03  0.00000000000E+00 0. -1.
        -12    1    6    6    0    0  0.71019551337E+02  0.90620759157E+01 -0.41027638621E+01  0.71712834021E+02  0.00000000000E+00 0.  1.
</event>
<event>
12    1  0.8451514E-002  0.1879476E+03  0.7818608E-02  0.1160395E+00
         21   -1    0    0  501  502  0.00000000000E+00  0.00000000000E+00  0.40679942789E+03  0.40679942789E+03  0.00000000000E+00 0.  1.
         21   -1    0    0  502  503 -0.00000000000E+00 -0.00000000000E+00 -0.86700440164E+02  0.86700440164E+02  0.00000000000E+00 0.  1.
         -6    2    1    2    0  503  0.47407207184E+02  0.58216120286E+02  0.15821333436E+03  0.24567411233E+03  0.17230133588E+03 0.  0.
        -24    2    3    3    0    0  0.76135412360E+01  0.89692165660E+02  0.58722069837E+02  0.13389361762E+03  0.79853420476E+02 0.  0.
          6    2    1    2  501    0 -0.47407207184E+02 -0.58216120286E+02  0.16188565337E+03  0.24782575573E+03  0.17197116177E+03 0.  0.
         24    2    5    5    0    0  0.36145818706E+02 -0.18597345535E+02  0.50177599529E+02  0.10273428547E+03  0.79900941458E+02 0.  0.
          5    1    5    5  501    0 -0.83553025890E+02 -0.39618774751E+02  0.11170805384E+03  0.14509147026E+03  0.47000000000E+01 0. -1.
        -11    1    6    6    0    0  0.18123026864E+02 -0.30593821486E+02  0.66641649521E+02  0.75534994981E+02  0.00000000000E+00 0.  1.
         12    1    6    6    0    0  0.18022791842E+02  0.11996475950E+02 -0.16464049992E+02  0.27199290490E+02  0.00000000000E+00 0. -1.
         -5    1    3    3    0  503  0.39793665948E+02 -0.31476045373E+02  0.99491264519E+02  0.11178049471E+03  0.47000000000E+01 0.  1.
         13    1    4    4    0    0 -0.55570644629E+01 -0.13415330393E+02  0.25762437247E-01  0.14520768530E+02  0.00000000000E+00 0. -1.
        -14    1    4    4    0    0  0.13170605699E+02  0.10310749605E+03  0.58696307400E+02  0.11937284909E+03  0.00000000000E+00 0.  1.
</event>
<event>
12    1  0.8451514E-002  0.1996177E+03  0.7818608E-02  0.1150238E+00
         21   -1    0    0  501  502  0.00000000000E+00  0.00000000000E+00  0.78272585026E+02  0.78272585026E+02  0.00000000000E+00 0.  1.
         21   -1    0    0  502  503 -0.00000000000E+00 -0.00000000000E+00 -0.51769031382E+03  0.51769031382E+03  0.00000000000E+00 0.  1.
         -6    2    1    2    0  503  0.77536971583E+02 -0.66772046380E+02 -0.26215459361E+03  0.32899950080E+03  0.17042638421E+03 0.  0.
        -24    2    3    3    0    0 -0.10142796365E+02 -0.35894461967E+02 -0.20160586073E+03  0.21796164248E+03  0.73966653266E+02 0.  0.
          6    2    1    2  501    0 -0.77536971583E+02  0.66772046380E+02 -0.17726313518E+03  0.26696339804E+03  0.17139646630E+03 0.  0.
         24    2    5    5    0    0  0.17238021341E+02  0.62487014055E+02 -0.97876736016E+02  0.14316941128E+03  0.81950281075E+02 0.  0.
          5    1    5    5  501    0 -0.94774992924E+02  0.42850323246E+01 -0.79386399162E+02  0.12379398676E+03  0.47000000000E+01 0. -1.
        -11    1    6    6    0    0 -0.24381751016E+02  0.57403861395E+02 -0.62737980106E+02  0.88463140536E+02  0.00000000000E+00 0.  1.
         12    1    6    6    0    0  0.41619772357E+02  0.50831526604E+01 -0.35138755910E+02  0.54706270746E+02  0.00000000000E+00 0. -1.
         -5    1    3    3    0  503  0.87679767948E+02 -0.30877584413E+02 -0.60548732886E+02  0.11103785832E+03  0.47000000000E+01 0.  1.
         11    1    4    4    0    0 -0.15993076831E+02 -0.22779115560E+02 -0.16616434236E+02  0.32415621218E+02  0.00000000000E+00 0. -1.
        -12    1    4    4    0    0  0.58502804667E+01 -0.13115346407E+02 -0.18498942649E+03  0.18554602126E+03  0.00000000000E+00 0.  1.
</event>
<event>
12    1  0.8451514E-002  0.2268840E+03  0.7818608E-02  0.1128923E+00
         21   -1    0    0  501  502  0.00000000000E+00  0.00000000000E+00  0.13181381232E+04  0.13181381232E+04  0.00000000000E+00 0. -1.
         21   -1    0    0  502  503 -0.00000000000E+00 -0.00000000000E+00 -0.40496042544E+02  0.40496042544E+02  0.00000000000E+00 0. -1.
         -6    2    1    2    0  503  0.12763894132E+03  0.74080380574E+02  0.76954255698E+03  0.80217977627E+03  0.17180525117E+03 0.  0.
        -24    2    3    3    0    0  0.56903016776E+02  0.15612234851E+02  0.61028199221E+03  0.61830995118E+03  0.79883606112E+02 0.  0.
          6    2    1    2  501    0 -0.12763894132E+03 -0.74080380574E+02  0.50809952368E+03  0.55645438948E+03  0.17232747742E+03 0.  0.
         24    2    5    5    0    0 -0.99184550513E+02  0.43867243890E+01  0.19855448936E+03  0.23581914938E+03  0.79561093249E+02 0.  0.
          5    1    5    5  501    0 -0.28454390812E+02 -0.78467104963E+02  0.30954503432E+03  0.32063524010E+03  0.47000000000E+01 0. -1.
        -13    1    6    6    0    0 -0.21576175360E+02  0.11229623303E+02  0.12933377743E+03  0.13160114652E+03  0.00000000000E+00 0.  1.
         14    1    6    6    0    0 -0.77608375152E+02 -0.68428989135E+01  0.69220711933E+02  0.10421800286E+03  0.00000000000E+00 0. -1.
         -5    1    3    3    0  503  0.70735924548E+02  0.58468145723E+02  0.15926056477E+03  0.18386982508E+03  0.47000000000E+01 0.  1.
         13    1    4    4    0    0  0.76364665665E+02  0.20613271895E+02  0.49849655871E+03  0.50473288796E+03  0.00000000000E+00 0. -1.
        -14    1    4    4    0    0 -0.19461648889E+02 -0.50010370436E+01  0.11178543349E+03  0.11357706322E+03  0.00000000000E+00 0.  1.
</event>
<event>
12    1  0.8451514E-002  0.1863683E+03  0.7818608E-02  0.1162059E+00
         21   -1    0    0  501  502  0.00000000000E+00  0.00000000000E+00  0.17032327424E+03  0.17032327424E+03  0.00000000000E+00 0.  1.
         21   -1    0    0  502  503 -0.00000000000E+00 -0.00000000000E+00 -0.27123257669E+03  0.27123257669E+03  0.00000000000E+00 0. -1.
         -6    2    1    2    0  503 -0.68939279417E+02 -0.12545139615E+02  0.60725140918E+02  0.19485998712E+03  0.17138514250E+03 0.  0.
        -24    2    3    3    0    0 -0.47329590721E+02  0.34382617774E+02 -0.18127233723E+02  0.10047259366E+03  0.79648546193E+02 0.  0.
          6    2    1    2  501    0  0.68939279417E+02  0.12545139615E+02 -0.16163444337E+03  0.24669586381E+03  0.17269380753E+03 0.  0.
         24    2    5    5    0    0  0.27288880556E+02  0.68073196474E+02 -0.14432595131E+03  0.17500350214E+03  0.66465046906E+02 0.  0.
          5    1    5    5  501    0  0.41650398861E+02 -0.55528056858E+02 -0.17308492069E+02  0.71692361667E+02  0.47000000000E+01 0. -1.
        -13    1    6    6    0    0  0.49078810082E+02  0.54322576091E+02 -0.10655738632E+03  0.12928321025E+03  0.00000000000E+00 0.  1.
         14    1    6    6    0    0 -0.21789929525E+02  0.13750620383E+02 -0.37768564981E+02  0.45720291888E+02  0.00000000000E+00 0. -1.
         -5    1    3    3    0  503 -0.21609688696E+02 -0.46927757389E+02  0.78852374642E+02  0.94387393468E+02  0.47000000000E+01 0.  1.
         11    1    4    4    0    0 -0.22892177987E+02 -0.82498438886E+01 -0.39892652955E+02  0.46728315795E+02  0.00000000000E+00 0. -1.
        -12    1    4    4    0    0 -0.24437412734E+02  0.42632461663E+02  0.21765419232E+02  0.53744277862E+02  0.00000000000E+00 0.  1.
</event>
<event>
12    1  0.8451514E-002  0.1986907E+03  0.7818608E-02  0.1150902E+00
         21   -1    0    0  501  502  0.00000000000E+00  0.00000000000E+00  0.12772514031E+04  0.12772514031E+04  0.00000000000E+00 0. -1.
         21   -1    0    0  502  503 -0.00000000000E+00 -0.00000000000E+00 -0.32707260623E+02  0.32707260623E+02  0.00000000000E+00 0. -1.
         -6    2    1    2    0  503  0.41852176421E+02 -0.91187607326E+02  0.46663003566E+03  0.50707114606E+03  0.17120389185E+03 0.  0.
        -24    2    3    3    0    0 -0.26970254462E+02 -0.73111952298E+02  0.18148315223E+03  0.21314242778E+03  0.80129943117E+02 0.  0.
          6    2    1    2  501    0 -0.41852176421E+02  0.91187607326E+02  0.77791410686E+03  0.80288751771E+03  0.17149700882E+03 0.  0.
         24    2    5    5    0    0 -0.59256546991E+01  0.87910542104E+02  0.32476364810E+03  0.34827902418E+03  0.89796852695E+02 0.  0.
          5    1    5    5  501    0 -0.35926521722E+02  0.32770652214E+01  0.45315045876E+03  0.45460849353E+03  0.47000000000E+01 0. -1.
        -13    1    6    6    0    0 -0.26502452297E+02  0.69888363043E+02  0.11777544357E+03  0.13949128423E+03  0.00000000000E+00 0.  1.
         14    1    6    6    0    0  0.20576797598E+02  0.18022179061E+02  0.20698820453E+03  0.20878773995E+03  0.00000000000E+00 0. -1.
         -5    1    3    3    0  503  0.68822430882E+02 -0.18075655027E+02  0.28514688343E+03  0.29392871827E+03  0.47000000000E+01 0.  1.
         11    1    4    4    0    0  0.25951376886E+02 -0.44311151459E+02  0.89424174264E+02  0.10311951827E+03  0.00000000000E+00 0. -1.
        -12    1    4    4    0    0 -0.52921631347E+02 -0.28800800840E+02  0.92058977962E+02  0.11002290951E+03  0.00000000000E+00 0.  1.
</event>
<event>
12    1  0.8451514E-002  0.2442231E+03  0.7818608E-02  0.1117125E+00
         21   -1    0    0  501  502  0.00000000000E+00  0.00000000000E+00  0.63122960794E+03  0.63122960794E+03  0.00000000000E+00 0.  1.
         21   -1    0    0  502  503 -0.00000000000E+00 -0.00000000000E+00 -0.18835224641E+03  0.18835224641E+03  0.00000000000E+00 0. -1.
         -6    2    1    2    0  503  0.14856734506E+03 -0.87748594002E+02 -0.68100544445E+02  0.25354010462E+03  0.17283757905E+03 0.  0.
        -24    2    3    3    0    0  0.12347819069E+03 -0.67510821336E+02  0.16926360219E+02  0.16248683656E+03  0.79441146830E+02 0.  0.
          6    2    1    2  501    0 -0.14856734506E+03  0.87748594002E+02  0.51097790598E+03  0.56604174973E+03  0.17185101186E+03 0.  0.
         24    2    5    5    0    0 -0.67307950173E+02 -0.17037278836E+02  0.28258752600E+03  0.30190651151E+03  0.80443786686E+02 0.  0.
          5    1    5    5  501    0 -0.81259394882E+02  0.10478587284E+03  0.22839037998E+03  0.26413523822E+03  0.47000000000E+01 0. -1.
        -11    1    6    6    0    0  0.29620436953E+01 -0.28634025667E+02  0.13497690199E+03  0.13801248204E+03  0.00000000000E+00 0.  1.
         12    1    6    6    0    0 -0.70269993868E+02  0.11596746831E+02  0.14761062400E+03  0.16389402947E+03  0.00000000000E+00 0. -1.
         -5    1    3    3    0  503  0.25089154361E+02 -0.20237772667E+02 -0.85026904664E+02  0.91053268068E+02  0.47000000000E+01 0.  1.
         13    1    4    4    0    0  0.38230030863E+02 -0.27675539260E+02 -0.31418898252E+02  0.56697600482E+02  0.00000000000E+00 0. -1.
        -14    1    4    4    0    0  0.85248159831E+02 -0.39835282076E+02  0.48345258471E+02  0.10578923607E+03  0.00000000000E+00 0.  1.
</event>
<event>
12    1  0.8451514E-002  0.2292284E+03  0.7818608E-02  0.1127261E+00
         21   -1    0    0  503  502  0.00000000000E+00  0.00000000000E+00  0.40213963511E+02  0.40213963511E+02  0.00000000000E+00 0. -1.
         21   -1    0    0  501  503 -0.00000000000E+00 -0.00000000000E+00 -0.13050606852E+04  0.13050606852E+04  0.00000000000E+00 0.  1.
          6    2    1    2  501    0 -0.12426069959E+03 -0.85308667802E+02 -0.61442615082E+03  0.65564244172E+03  0.17213142163E+03 0.  0.
         24    2    3    3    0    0 -0.26345670541E+02  0.53710988674E+01 -0.15521896305E+03  0.17741288984E+03  0.81605538605E+02 0.  0.
         -6    2    1    2    0  502  0.12426069959E+03  0.85308667802E+02 -0.65042057086E+03  0.68963220698E+03  0.17270602665E+03 0.  0.
        -24    2    5    5    0    0  0.96129201054E+02  0.70155740628E+01 -0.52109620513E+03  0.53578789832E+03  0.78977056191E+02 0.  0.
          5    1    3    3  501    0 -0.97915029046E+02 -0.90679766669E+02 -0.45920718777E+03  0.47822955188E+03  0.47000000000E+01 0. -1.
        -11    1    4    4    0    0 -0.31861854476E+01 -0.37218553472E+02 -0.63614494815E+02  0.73771108510E+02  0.00000000000E+00 0.  1.
         12    1    4    4    0    0 -0.23159485093E+02  0.42589652339E+02 -0.91604468239E+02  0.10364178133E+03  0.00000000000E+00 0. -1.
         -5    1    5    5    0  502  0.28131498533E+02  0.78293093739E+02 -0.12932436572E+03  0.15384430866E+03  0.47000000000E+01 0.  1.
         13    1    6    6    0    0  0.69649588104E+02  0.28191538482E+02 -0.21364885630E+03  0.22647662520E+03  0.00000000000E+00 0. -1.
        -14    1    6    6    0    0  0.26479612950E+02 -0.21175964419E+02 -0.30744734883E+03  0.30931127311E+03  0.00000000000E+00 0.  1.
</event>
<event>
12    1  0.8451514E-002  0.2917582E+03  0.7818608E-02  0.1089449E+00
         21   -1    0    0  501  502  0.00000000000E+00  0.00000000000E+00  0.25591075757E+03  0.25591075757E+03  0.00000000000E+00 0. -1.
         21   -1    0    0  502  503 -0.00000000000E+00 -0.00000000000E+00 -0.33261552985E+03  0.33261552985E+03  0.00000000000E+00 0.  1.
         -6    2    1    2    0  503 -0.98441427132E+02 -0.21465701242E+03 -0.32823520335E+02  0.29348659336E+03  0.17113926914E+03 0.  0.
        -24    2    3    3    0    0 -0.58959768374E+02 -0.42059856775E+02 -0.39667465163E+02  0.11623674401E+03  0.81805788472E+02 0.  0.
          6    2    1    2  501    0  0.98441427132E+02  0.21465701242E+03 -0.43881251940E+02  0.29503969405E+03  0.17133157689E+03 0.  0.
         24    2    5    5    0    0  0.25346449903E+02  0.18659300638E+03  0.43771995639E+00  0.20494682308E+03  0.80892621040E+02 0.  0.
          5    1    5    5  501    0  0.73094977229E+02  0.28064006041E+02 -0.44318971897E+02  0.90092870979E+02  0.47000000000E+01 0. -1.
        -11    1    6    6    0    0 -0.21388387871E+02  0.79509401847E+02  0.23988366262E+02  0.85759255090E+02  0.00000000000E+00 0.  1.
         12    1    6    6    0    0  0.46734837773E+02  0.10708360453E+03 -0.23550646306E+02  0.11918756799E+03  0.00000000000E+00 0. -1.
         -5    1    3    3    0  503 -0.39481658758E+02 -0.17259715564E+03  0.68439448283E+01  0.17724984935E+03  0.47000000000E+01 0.  1.
         13    1    4    4    0    0 -0.60693958064E+02 -0.90358172236E+01  0.39621063056E+01  0.61490656402E+02  0.00000000000E+00 0. -1.
        -14    1    4    4    0    0  0.17341896897E+01 -0.33024039551E+02 -0.43629571468E+02  0.54746087611E+02  0.00000000000E+00 0.  1.
</event>
<event>
12    1  0.8451514E-002  0.2018172E+03  0.7818608E-02  0.1148550E+00
         21   -1    0    0  501  502  0.00000000000E+00  0.00000000000E+00  0.20177757352E+03  0.20177757352E+03  0.00000000000E+00 0.  1.
         21   -1    0    0  502  503 -0.00000000000E+00 -0.00000000000E+00 -0.22466864647E+03  0.22466864647E+03  0.00000000000E+00 0.  1.
         -6    2    1    2    0  503  0.10463641069E+03  0.22838128162E+02 -0.81765305461E+02  0.21775160280E+03  0.17105506951E+03 0.  0.
        -24    2    3    3    0    0  0.24386401053E+02 -0.38458585104E+02 -0.70651282734E+02  0.11605124584E+03  0.80015802096E+02 0.  0.
          6    2    1    2  501    0 -0.10463641069E+03 -0.22838128162E+02  0.58874232513E+02  0.20869461719E+03  0.16916533170E+03 0.  0.
         24    2    5    5    0    0 -0.82082187027E+02  0.48936687179E+02  0.31377423935E+02  0.12845446761E+03  0.79898202345E+02 0.  0.
          5    1    5    5  501    0 -0.22554223664E+02 -0.71774815341E+02  0.27496808578E+02  0.80240149578E+02  0.47000000000E+01 0. -1.
        -11    1    6    6    0    0 -0.18201469341E+02  0.15712620507E+01 -0.25006549540E+02  0.30969176136E+02  0.00000000000E+00 0.  1.
         12    1    6    6    0    0 -0.63880717686E+02  0.47365425129E+02  0.56383973475E+02  0.97485291478E+02  0.00000000000E+00 0. -1.
         -5    1    3    3    0  503  0.80250009638E+02  0.61296713266E+02 -0.11114022727E+02  0.10170035696E+03  0.47000000000E+01 0.  1.
         11    1    4    4    0    0  0.34722047893E+02 -0.59253669354E+02 -0.49696106573E+02  0.84772170849E+02  0.00000000000E+00 0. -1.
        -12    1    4    4    0    0 -0.10335646840E+02  0.20795084250E+02 -0.20955176161E+02  0.31279074994E+02  0.00000000000E+00 0.  1.
</event>
<event>
12    1  0.8451514E-002  0.3249782E+03  0.7818608E-02  0.1073415E+00
         21   -1    0    0  503  502  0.00000000000E+00  0.00000000000E+00  0.15910384552E+03  0.15910384552E+03  0.00000000000E+00 0. -1.
         21   -1    0    0  501  503 -0.00000000000E+00 -0.00000000000E+00 -0.10915710696E+04  0.10915710696E+04  0.00000000000E+00 0.  1.
          6    2    1    2  501    0  0.22137036842E+02 -0.27408349159E+03 -0.85785741224E+03  0.91724203812E+03  0.17263200166E+03 0.  0.
         24    2    3    3    0    0 -0.16522787196E+02 -0.61207771659E+02 -0.20779861346E+03  0.23210760898E+03  0.81696294773E+02 0.  0.
         -6    2    1    2    0  502 -0.22137036842E+02  0.27408349159E+03 -0.74609811859E+02  0.33343287702E+03  0.17320234033E+03 0.  0.
        -24    2    5    5    0    0  0.34690377241E+02  0.24675676984E+03 -0.60406374927E+02  0.26862599210E+03  0.80116588581E+02 0.  0.
          5    1    3    3  501    0  0.38659824038E+02 -0.21287571993E+03 -0.65005879878E+03  0.68513442914E+03  0.47000000000E+01 0. -1.
        -11    1    4    4    0    0  0.14032520752E+02 -0.31580264502E+02 -0.17498872588E+03  0.17836837985E+03  0.00000000000E+00 0.  1.
         12    1    4    4    0    0 -0.30555307947E+02 -0.29627507157E+02 -0.32809887582E+02  0.53739229127E+02  0.00000000000E+00 0. -1.
         -5    1    5    5    0  502 -0.56827414083E+02  0.27326721749E+02 -0.14203436932E+02  0.64806884925E+02  0.47000000000E+01 0.  1.
         13    1    6    6    0    0  0.20354069377E+02  0.35408812237E+02  0.15382490822E+02  0.43642790334E+02  0.00000000000E+00 0. -1.
        -14    1    6    6    0    0  0.14336307864E+02  0.21134795760E+03 -0.75788865749E+02  0.22498320176E+03  0.00000000000E+00 0.  1.
</event>
<event>
12    1  0.8451514E-002  0.2279490E+03  0.7818608E-02  0.1128150E+00
         21   -1    0    0  503  502  0.00000000000E+00  0.00000000000E+00  0.12587018005E+04  0.12587018005E+04  0.00000000000E+00 0. -1.
         21   -1    0    0  501  503 -0.00000000000E+00 -0.00000000000E+00 -0.11221437525E+03  0.11221437525E+03  0.00000000000E+00 0.  1.
          6    2    1    2  501    0  0.10435384618E+03  0.10609679076E+03  0.27884452548E+02  0.22932370921E+03  0.17223694926E+03 0.  0.
         24    2    3    3    0    0  0.41306507751E+02 -0.78710106032E+01  0.38847582640E+02  0.98534157443E+02  0.80197662780E+02 0.  0.
         -6    2    1    2    0  502 -0.10435384618E+03 -0.10609679076E+03  0.11186029727E+04  0.11415924665E+04  0.17266874318E+03 0.  0.
        -24    2    5    5    0    0 -0.13898697953E+03 -0.10683202608E+03  0.96375252046E+03  0.98284503487E+03  0.80218324646E+02 0.  0.
          5    1    3    3  501    0  0.63047338430E+02  0.11396780136E+03 -0.10963130092E+02  0.13078955177E+03  0.47000000000E+01 0. -1.
        -13    1    4    4    0    0 -0.14219564233E+02  0.46569428783E+01 -0.14271165525E+02  0.20677265037E+02  0.00000000000E+00 0.  1.
         14    1    4    4    0    0  0.55526071984E+02 -0.12527953481E+02  0.53118748166E+02  0.77856892406E+02  0.00000000000E+00 0. -1.
         -5    1    5    5    0  502  0.34633133352E+02  0.73523531961E+00  0.15485045224E+03  0.15874743165E+03  0.47000000000E+01 0.  1.
         11    1    6    6    0    0 -0.72435645292E+01 -0.41585013067E+02  0.30360977616E+03  0.30653006168E+03  0.00000000000E+00 0. -1.
        -12    1    6    6    0    0 -0.13174341500E+03 -0.65247013014E+02  0.66014274430E+03  0.67631497319E+03  0.00000000000E+00 0.  1.
</event>
<event>
12    1  0.8451514E-002  0.4118916E+03  0.7818608E-02  0.1039810E+00
         21   -1    0    0  503  502  0.00000000000E+00  0.00000000000E+00  0.21439935117E+03  0.21439935117E+03  0.00000000000E+00 0. -1.
         21   -1    0    0  501  503 -0.00000000000E+00 -0.00000000000E+00 -0.26483429123E+04  0.26483429123E+04  0.00000000000E+00 0.  1.
          6    2    1    2  501    0  0.34756864204E+03 -0.13533727578E+03 -0.24164931439E+04  0.24513453124E+04  0.17474148646E+03 0.  0.
         24    2    3    3    0    0  0.12944207544E+03 -0.72999684086E+02 -0.70839478776E+03  0.72824135194E+03  0.80175348944E+02 0.  0.
         -6    2    1    2    0  502 -0.34756864204E+03  0.13533727578E+03 -0.17450417250E+02  0.41139695107E+03  0.17269277674E+03 0.  0.
        -24    2    5    5    0    0 -0.20254788544E+03  0.64623104881E+02 -0.77987826076E+02  0.23900674927E+03  0.76422075317E+02 0.  0.
          5    1    3    3  501    0  0.21812656660E+03 -0.62337591694E+02 -0.17080983561E+04  0.17231039605E+04  0.47000000000E+01 0. -1.
        -13    1    4    4    0    0  0.47898247708E+02 -0.69704293858E+01 -0.10281210263E+03  0.11363607467E+03  0.00000000000E+00 0.  1.
         14    1    4    4    0    0  0.81543827735E+02 -0.66029254700E+02 -0.60558268513E+03  0.61460527727E+03  0.00000000000E+00 0. -1.
         -5    1    5    5    0  502 -0.14502075660E+03  0.70714170898E+02  0.60537408826E+02  0.17239020180E+03  0.47000000000E+01 0.  1.
         13    1    6    6    0    0 -0.15783106905E+03  0.45007311123E+02 -0.23427412599E+02  0.16578645323E+03  0.00000000000E+00 0. -1.
        -14    1    6    6    0    0 -0.44716816392E+02  0.19615793758E+02 -0.54560413477E+02  0.73220296038E+02  0.00000000000E+00 0.  1.
</event>
<event>
12    1  0.8451514E-002  0.2427345E+03  0.7818608E-02  0.1118077E+00
         21   -1    0    0  503  502  0.00000000000E+00  0.00000000000E+00  0.18798961111E+03  0.18798961111E+03  0.00000000000E+00 0. -1.
         21   -1    0    0  501  503 -0.00000000000E+00 -0.00000000000E+00 -0.32160922126E+03  0.32160922126E+03  0.00000000000E+00 0. -1.
          6    2    1    2  501    0  0.16944562720E+03 -0.11508831456E+02 -0.10915409397E+03  0.26563444378E+03  0.17263478130E+03 0.  0.
         24    2    3    3    0    0  0.15114343372E+03  0.29036975337E+02 -0.30205031286E+02  0.17489317845E+03  0.77380853330E+02 0.  0.
         -6    2    1    2    0  502 -0.16944562720E+03  0.11508831456E+02 -0.24465516188E+02  0.24396438859E+03  0.17342372283E+03 0.  0.
        -24    2    5    5    0    0 -0.13381926687E+03 -0.56185028090E+02 -0.11721958122E+02  0.16627150319E+03  0.80277362334E+02 0.  0.
          5    1    3    3  501    0  0.18302193479E+02 -0.40545806793E+02 -0.78949062679E+02  0.90741265324E+02  0.47000000000E+01 0. -1.
        -11    1    4    4    0    0  0.11272739691E+03  0.17350772423E+02  0.14303722530E+02  0.11494830053E+03  0.00000000000E+00 0.  1.
         12    1    4    4    0    0  0.38416036810E+02  0.11686202914E+02 -0.44508753816E+02  0.59944877921E+02  0.00000000000E+00 0. -1.
         -5    1    5    5    0  502 -0.35626360324E+02  0.67693859545E+02 -0.12743558066E+02  0.77692885403E+02  0.47000000000E+01 0.  1.
         11    1    6    6    0    0 -0.36570274945E+02 -0.50017982701E+02  0.17775394593E+02  0.64460439465E+02  0.00000000000E+00 0. -1.
        -12    1    6    6    0    0 -0.97248991927E+02 -0.61670453881E+01 -0.29497352715E+02  0.10181106372E+03  0.00000000000E+00 0.  1.
</event>
<event>
12    1  0.8451514E-002  0.1903626E+03  0.7818608E-02  0.1158342E+00
         21   -1    0    0  501  502  0.00000000000E+00  0.00000000000E+00  0.89251359406E+03  0.89251359406E+03  0.00000000000E+00 0. -1.
         21   -1    0    0  502  503 -0.00000000000E+00 -0.00000000000E+00 -0.41635341199E+02  0.41635341199E+02  0.00000000000E+00 0.  1.
         -6    2    1    2    0  503  0.89785533276E+01 -0.78289435177E+02  0.34618636319E+03  0.39507329652E+03  0.17328606837E+03 0.  0.
        -24    2    3    3    0    0 -0.14895780745E+02 -0.45168413123E+02  0.72009721647E+02  0.11783349654E+03  0.80232556155E+02 0.  0.
          6    2    1    2  501    0 -0.89785533276E+01  0.78289435177E+02  0.50469188967E+03  0.53907563873E+03  0.17227533397E+03 0.  0.
         24    2    5    5    0    0  0.37384720145E+02  0.67601678469E+01  0.15425359293E+03  0.17838868439E+03  0.81148226203E+02 0.  0.
          5    1    5    5  501    0 -0.46363273472E+02  0.71529267330E+02  0.35043829674E+03  0.36068695435E+03  0.47000000000E+01 0. -1.
        -11    1    6    6    0    0 -0.99797462733E+01  0.18210619223E+02  0.49686100103E+01  0.21352027389E+02  0.00000000000E+00 0.  1.
         12    1    6    6    0    0  0.47364466418E+02 -0.11450451377E+02  0.14928498292E+03  0.15703665700E+03  0.00000000000E+00 0. -1.
         -5    1    3    3    0  503  0.23874334073E+02 -0.33121022055E+02  0.27417664154E+03  0.27723979998E+03  0.47000000000E+01 0.  1.
         11    1    4    4    0    0 -0.24598512252E+02 -0.43419101786E+02  0.86762152498E+02  0.10008984120E+03  0.00000000000E+00 0. -1.
        -12    1    4    4    0    0  0.97027315070E+01 -0.17493113369E+01 -0.14752430852E+02  0.17743655342E+02  0.00000000000E+00 0.  1.
</event>
<event>
12    1  0.8451514E-002  0.2441659E+03  0.7818608E-02  0.1117051E+00
         21   -1    0    0  503  502  0.00000000000E+00  0.00000000000E+00  0.21921539496E+03  0.21921539496E+03  0.00000000000E+00 0. -1.
         21   -1    0    0  501  503 -0.00000000000E+00 -0.00000000000E+00 -0.32561293336E+03  0.32561293336E+03  0.00000000000E+00 0.  1.
          6    2    1    2  501    0 -0.17358657458E+03  0.10654806159E+01  0.57405123836E+02  0.25082330318E+03  0.17170773730E+03 0.  0.
         24    2    3    3    0    0 -0.84387105954E+02 -0.61318505744E+02  0.13361956657E+02  0.13330650637E+03  0.81920326878E+02 0.  0.
         -6    2    1    2    0  502  0.17358657458E+03 -0.10654806159E+01 -0.16380266224E+03  0.29400502514E+03  0.17168054207E+03 0.  0.
        -24    2    5    5    0    0  0.35369520796E+02 -0.42927559437E+02 -0.86744815187E+02  0.13024792028E+03  0.79662283511E+02 0.  0.
          5    1    3    3  501    0 -0.89199468630E+02  0.62383986360E+02  0.44043167180E+02  0.11751679681E+03  0.47000000000E+01 0. -1.
        -11    1    4    4    0    0  0.86559953532E+01  0.51298095079E+00  0.19584993963E+02  0.21418715964E+02  0.00000000000E+00 0.  1.
         12    1    4    4    0    0 -0.93043101307E+02 -0.61831486695E+02 -0.62230373061E+01  0.11188779040E+03  0.00000000000E+00 0. -1.
         -5    1    5    5    0  502  0.13821705379E+03  0.41862078821E+02 -0.77057847055E+02  0.16375710486E+03  0.47000000000E+01 0.  1.
         13    1    6    6    0    0  0.19109805451E+02 -0.15585143360E+02  0.11333823403E+02  0.27139213527E+02  0.00000000000E+00 0. -1.
        -14    1    6    6    0    0  0.16259715345E+02 -0.27342416077E+02 -0.98078638590E+02  0.10310870675E+03  0.00000000000E+00 0.  1.
</event>
<event>
12    1  0.8451514E-002  0.1747024E+03  0.7818608E-02  0.1173066E+00
         21   -1    0    0  501  502  0.00000000000E+00  0.00000000000E+00  0.41220625705E+03  0.41220625705E+03  0.00000000000E+00 0. -1.
         21   -1    0    0  502  503 -0.00000000000E+00 -0.00000000000E+00 -0.24082080121E+03  0.24082080121E+03  0.00000000000E+00 0. -1.
         -6    2    1    2    0  503 -0.23505007737E+02 -0.19181918231E+02 -0.18608742310E+03  0.25514796613E+03  0.17190556771E+03 0.  0.
        -24    2    3    3    0    0  0.17017233669E+02  0.27912486097E+02 -0.16981018359E+03  0.19075096703E+03  0.80509253190E+02 0.  0.
          6    2    1    2  501    0  0.23505007737E+02  0.19181918231E+02  0.35747287894E+03  0.39787909213E+03  0.17204790439E+03 0.  0.
         24    2    5    5    0    0  0.76401138766E+01 -0.52567510046E+00  0.36290617755E+03  0.37157900039E+03  0.79444396598E+02 0.  0.
          5    1    5    5  501    0  0.15864893861E+02  0.19707593332E+02 -0.54332986122E+01  0.26300091748E+02  0.47000000000E+01 0. -1.
        -13    1    6    6    0    0 -0.35291940545E+02 -0.77742930671E+01  0.17540487545E+03  0.17908889142E+03  0.00000000000E+00 0.  1.
         14    1    6    6    0    0  0.42932054422E+02  0.72486179666E+01  0.18750130210E+03  0.19249010896E+03  0.00000000000E+00 0. -1.
         -5    1    3    3    0  503 -0.40522241406E+02 -0.47094404328E+02 -0.16277239513E+02  0.64396999105E+02  0.47000000000E+01 0.  1.
         11    1    4    4    0    0  0.18641224964E+02  0.54321598485E+02 -0.90897613348E+02  0.10752073029E+03  0.00000000000E+00 0. -1.
        -12    1    4    4    0    0 -0.16239912950E+01 -0.26409112389E+02 -0.78912570240E+02  0.83230236734E+02  0.00000000000E+00 0.  1.
</event>
<event>
12    1  0.8451514E-002  0.2000920E+03  0.7818608E-02  0.1149839E+00
         21   -1    0    0  503  502  0.00000000000E+00  0.00000000000E+00  0.70703633991E+03  0.70703633991E+03  0.00000000000E+00 0.  1.
         21   -1    0    0  501  503 -0.00000000000E+00 -0.00000000000E+00 -0.69925185069E+02  0.69925185069E+02  0.00000000000E+00 0.  1.
          6    2    1    2  501    0  0.14462602763E+02  0.93327630499E+02  0.14817036650E+03  0.24898042490E+03  0.17640176014E+03 0.  0.
         24    2    3    3    0    0 -0.42007042919E+02  0.10233080720E+03  0.11975387416E+03  0.18495335944E+03  0.87353128359E+02 0.  0.
         -6    2    1    2    0  502 -0.14462602763E+02 -0.93327630499E+02  0.48894078834E+03  0.52798110008E+03  0.17544724006E+03 0.  0.
        -24    2    5    5    0    0 -0.27658328824E+02  0.62085313224E+01  0.31670181078E+03  0.32855710432E+03  0.82741796143E+02 0.  0.
          5    1    3    3  501    0  0.56469645682E+02 -0.90031767030E+01  0.28416492339E+02  0.64027065457E+02  0.47000000000E+01 0. -1.
        -13    1    4    4    0    0 -0.45899295881E+02  0.15158538059E+02  0.19709105221E+02  0.52201297561E+02  0.00000000000E+00 0.  1.
         14    1    4    4    0    0  0.38922529621E+01  0.87172269143E+02  0.10004476894E+03  0.13275206188E+03  0.00000000000E+00 0. -1.
         -5    1    5    5    0  502  0.13195726061E+02 -0.99536161821E+02  0.17223897755E+03  0.19942399576E+03  0.47000000000E+01 0.  1.
         13    1    6    6    0    0 -0.28682660811E+02  0.42400145986E+02  0.19175305517E+03  0.19846838937E+03  0.00000000000E+00 0. -1.
        -14    1    6    6    0    0  0.10243319871E+01 -0.36191614664E+02  0.12494875561E+03  0.13008871495E+03  0.00000000000E+00 0.  1.
</event>
<event>
12    1  0.8451514E-002  0.2144370E+03  0.7818608E-02  0.1138241E+00
         21   -1    0    0  503  502  0.00000000000E+00  0.00000000000E+00  0.73349235380E+02  0.73349235380E+02  0.00000000000E+00 0.  1.
         21   -1    0    0  501  503 -0.00000000000E+00 -0.00000000000E+00 -0.62717217235E+03  0.62717217235E+03  0.00000000000E+00 0. -1.
          6    2    1    2  501    0  0.70948134217E+02  0.10743330423E+03 -0.25479562603E+03  0.33255324823E+03  0.17057344243E+03 0.  0.
         24    2    3    3    0    0  0.10680535594E+02  0.12722426399E+03 -0.18056580972E+03  0.23479834472E+03  0.78906044471E+02 0.  0.
         -6    2    1    2    0  502 -0.70948134217E+02 -0.10743330423E+03 -0.29902731094E+03  0.36796815950E+03  0.17148667910E+03 0.  0.
        -24    2    5    5    0    0 -0.40298509142E+02 -0.50259174141E+02 -0.28892684884E+03  0.30214726613E+03  0.60533395976E+02 0.  0.
          5    1    3    3  501    0  0.60267598623E+02 -0.19790959763E+02 -0.74229816308E+02  0.97754903515E+02  0.47000000000E+01 0. -1.
        -11    1    4    4    0    0 -0.14856444365E+02 -0.23163461398E+01 -0.66478099877E+01  0.16439974947E+02  0.00000000000E+00 0.  1.
         12    1    4    4    0    0  0.25536979959E+02  0.12954061013E+03 -0.17391799973E+03  0.21835836977E+03  0.00000000000E+00 0. -1.
         -5    1    5    5    0  502 -0.30649625075E+02 -0.57174130088E+02 -0.10100462107E+02  0.65820893364E+02  0.47000000000E+01 0.  1.
         13    1    6    6    0    0 -0.33049731029E+02 -0.68137086456E+01 -0.20091475024E+03  0.20372885955E+03  0.00000000000E+00 0. -1.
        -14    1    6    6    0    0 -0.72487781129E+01 -0.43445465496E+02 -0.88012098593E+02  0.98418406586E+02  0.00000000000E+00 0.  1.
</event>
<event>
12    1  0.8451514E-002  0.1923636E+03  0.7818608E-02  0.1156548E+00
         21   -1    0    0  501  502  0.00000000000E+00  0.00000000000E+00  0.72692121425E+03  0.72692121425E+03  0.00000000000E+00 0.  1.
         21   -1    0    0  502  503 -0.00000000000E+00 -0.00000000000E+00 -0.74912538801E+02  0.74912538801E+02  0.00000000000E+00 0.  1.
         -6    2    1    2    0  503 -0.82320439085E+02  0.24259226333E+02  0.98435272684E+02  0.21608621528E+03  0.17215860354E+03 0.  0.
        -24    2    3    3    0    0 -0.51077923138E+02  0.54868095927E+02  0.12466638841E+03  0.16486942963E+03  0.77593545119E+02 0.  0.
          6    2    1    2  501    0  0.82320439085E+02 -0.24259226333E+02  0.55357340277E+03  0.58574753777E+03  0.17114760004E+03 0.  0.
         24    2    5    5    0    0  0.63183765787E+02 -0.14732146864E+00  0.15809523217E+03  0.18904529472E+03  0.82169404639E+02 0.  0.
          5    1    5    5  501    0  0.19136673298E+02 -0.24111904864E+02  0.39547817060E+03  0.39670224305E+03  0.47000000000E+01 0. -1.
        -13    1    6    6    0    0  0.51791899005E+02  0.30076557714E+02  0.13940992364E+03  0.15173044170E+03  0.00000000000E+00 0.  1.
         14    1    6    6    0    0  0.11391866782E+02 -0.30223879183E+02  0.18685308524E+02  0.37314853025E+02  0.00000000000E+00 0. -1.
         -5    1    3    3    0  503 -0.31242515947E+02 -0.30608869594E+02 -0.26231115726E+02  0.51216785655E+02  0.47000000000E+01 0.  1.
         11    1    4    4    0    0  0.12971695205E+02  0.19093301305E+02  0.36751653512E+01  0.23373614859E+02  0.00000000000E+00 0. -1.
        -12    1    4    4    0    0 -0.64049618343E+02  0.35774794623E+02  0.12099122306E+03  0.14149581477E+03  0.00000000000E+00 0.  1.
</event>
<event>
12    1  0.8451514E-002  0.1781638E+03  0.7818608E-02  0.1169917E+00
         21   -1    0    0  501  502  0.00000000000E+00  0.00000000000E+00  0.25485782951E+03  0.25485782951E+03  0.00000000000E+00 0. -1.
         21   -1    0    0  502  503 -0.00000000000E+00 -0.00000000000E+00 -0.17444634749E+03  0.17444634749E+03  0.00000000000E+00 0. -1.
         -6    2    1    2    0  503 -0.40066314239E+02  0.10711219429E+02 -0.75541454269E+02  0.19351702636E+03  0.17326940994E+03 0.  0.
        -24    2    3    3    0    0  0.35654905209E+02  0.38844107530E+02 -0.28032245071E+02  0.99685382309E+02  0.79819995785E+02 0.  0.
          6    2    1    2  501    0  0.40066314239E+02 -0.10711219429E+02  0.15595293629E+03  0.23578715064E+03  0.17191341515E+03 0.  0.
         24    2    5    5    0    0  0.54005484778E+02  0.13325150261E+02  0.24939892112E+02  0.10177761632E+03  0.81501735869E+02 0.  0.
          5    1    5    5  501    0 -0.13939170538E+02 -0.24036369690E+02  0.13101304418E+03  0.13400953432E+03  0.47000000000E+01 0. -1.
        -13    1    6    6    0    0  0.27068508105E+02  0.44129292185E+02  0.31104507881E+02  0.60395272748E+02  0.00000000000E+00 0.  1.
         14    1    6    6    0    0  0.26936976673E+02 -0.30804141924E+02 -0.61646157687E+01  0.41382343572E+02  0.00000000000E+00 0. -1.
         -5    1    3    3    0  503 -0.75721219449E+02 -0.28132888101E+02 -0.47509209198E+02  0.93831644056E+02  0.47000000000E+01 0.  1.
         13    1    4    4    0    0 -0.15944607631E+02  0.78915447188E+01 -0.34850813555E+02  0.39129096540E+02  0.00000000000E+00 0. -1.
        -14    1    4    4    0    0  0.51599512840E+02  0.30952562811E+02  0.68185684844E+01  0.60556285769E+02  0.00000000000E+00 0.  1.
</event>
<event>
12    1  0.8451514E-002  0.2050064E+03  0.7818608E-02  0.1145949E+00
         21   -1    0    0  503  502  0.00000000000E+00  0.00000000000E+00  0.95457969997E+03  0.95457969997E+03  0.00000000000E+00 0.  1.
         21   -1    0    0  501  503 -0.00000000000E+00 -0.00000000000E+00 -0.63926140262E+02  0.63926140262E+02  0.00000000000E+00 0.  1.
          6    2    1    2  501    0 -0.10260646604E+03 -0.35804522274E+02  0.15981707198E+03  0.25994061303E+03  0.17383203134E+03 0.  0.
         24    2    3    3    0    0 -0.13921259565E+03 -0.43253795013E+02  0.12984705834E+03  0.21181793535E+03  0.82192101838E+02 0.  0.
         -6    2    1    2    0  502  0.10260646604E+03  0.35804522274E+02  0.73083648774E+03  0.75856522720E+03  0.17172414341E+03 0.  0.
        -24    2    5    5    0    0  0.68182483314E+01 -0.28928656857E+02  0.29141912062E+03  0.30416949697E+03  0.81918394310E+02 0.  0.
          5    1    3    3  501    0  0.36606129619E+02  0.74492727390E+01  0.29970013639E+02  0.48122677685E+02  0.47000000000E+01 0. -1.
        -11    1    4    4    0    0 -0.41494822527E+02  0.17290033921E+02  0.67349305982E+02  0.80973419008E+02  0.00000000000E+00 0.  1.
         12    1    4    4    0    0 -0.97717773127E+02 -0.60543828934E+02  0.62497752354E+02  0.13084451634E+03  0.00000000000E+00 0. -1.
         -5    1    5    5    0  502  0.95788217704E+02  0.64733179131E+02  0.43941736712E+03  0.45439573023E+03  0.47000000000E+01 0.  1.
         11    1    6    6    0    0 -0.71995109817E+01 -0.24084836865E+02  0.28780988434E+03  0.28890559331E+03  0.00000000000E+00 0. -1.
        -12    1    6    6    0    0  0.14017759313E+02 -0.48438199913E+01  0.36092362806E+01  0.15263903655E+02  0.00000000000E+00 0.  1.
</event>
<event>
12    1  0.8451514E-002  0.1816845E+03  0.7818608E-02  0.1166393E+00
         21   -1    0    0  501  502  0.00000000000E+00  0.00000000000E+00  0.88511293523E+02  0.88511293523E+02  0.00000000000E+00 0. -1.
         21   -1    0    0  502  503 -0.00000000000E+00 -0.00000000000E+00 -0.57138456278E+03  0.57138456278E+03  0.00000000000E+00 0. -1.
         -6    2    1    2    0  503  0.41752112714E+02  0.42858204786E+02 -0.43714271768E+03  0.47339520146E+03  0.17154939963E+03 0.  0.
        -24    2    3    3    0    0  0.66492269207E+02  0.50687412346E+02 -0.17462698585E+03  0.20955818493E+03  0.80184867955E+02 0.  0.
          6    2    1    2  501    0 -0.41752112714E+02 -0.42858204786E+02 -0.45730551581E+02  0.18650065485E+03  0.17061988828E+03 0.  0.
         24    2    5    5    0    0 -0.48832156308E+02  0.32921117830E+02 -0.23276458352E+01  0.98759359092E+02  0.79244012923E+02 0.  0.
          5    1    5    5  501    0  0.70800435943E+01 -0.75779322616E+02 -0.43402905746E+02  0.87741295754E+02  0.47000000000E+01 0. -1.
        -11    1    6    6    0    0 -0.55316126217E+02  0.42860787840E+02 -0.24059280373E+02  0.73998445430E+02  0.00000000000E+00 0.  1.
         12    1    6    6    0    0  0.64839699092E+01 -0.99396700097E+01  0.21731634538E+02  0.24760913662E+02  0.00000000000E+00 0. -1.
         -5    1    3    3    0  503 -0.24740156494E+02 -0.78292075598E+01 -0.26251573183E+03  0.26383701653E+03  0.47000000000E+01 0.  1.
         11    1    4    4    0    0  0.53651884831E+02  0.66633557654E+02 -0.97269302402E+02  0.12953714888E+03  0.00000000000E+00 0. -1.
        -12    1    4    4    0    0  0.12840384376E+02 -0.15946145308E+02 -0.77357683445E+02  0.80021036041E+02  0.00000000000E+00 0.  1.
</event>
<event>
12    1  0.8451514E-002  0.1884605E+03  0.7818608E-02  0.1161506E+00
         21   -1    0    0  503  502  0.00000000000E+00  0.00000000000E+00  0.25156488715E+02  0.25156488715E+02  0.00000000000E+00 0.  1.
         21   -1    0    0  501  503 -0.00000000000E+00 -0.00000000000E+00 -0.17121617178E+04  0.17121617178E+04  0.00000000000E+00 0.  1.
          6    2    1    2  501    0 -0.29238540009E+02 -0.49107987733E+02 -0.12506590041E+04  0.12647787583E+04  0.17958528956E+03 0.  0.
         24    2    3    3    0    0  0.44528564702E+02 -0.12980222082E+02 -0.40796070251E+03  0.41807378094E+03  0.78755776128E+02 0.  0.
         -6    2    1    2    0  502  0.29238540009E+02  0.49107987733E+02 -0.43634622497E+03  0.47253944820E+03  0.17213080892E+03 0.  0.
        -24    2    5    5    0    0 -0.85105531581E+01  0.61237124212E+02 -0.41601995188E+03  0.42773590633E+03  0.77865205975E+02 0.  0.
          5    1    3    3  501    0 -0.73767104711E+02 -0.36127765651E+02 -0.84269830159E+03  0.84670497736E+03  0.47000000000E+01 0. -1.
        -13    1    4    4    0    0 -0.20016917731E+02 -0.79738808991E+00 -0.17127715607E+03  0.17244470713E+03  0.00000000000E+00 0.  1.
         14    1    4    4    0    0  0.64545482433E+02 -0.12182833992E+02 -0.23668354644E+03  0.24562907381E+03  0.00000000000E+00 0. -1.
         -5    1    5    5    0  502  0.37749093167E+02 -0.12129136479E+02 -0.20326273084E+02  0.44803541871E+02  0.47000000000E+01 0.  1.
         11    1    6    6    0    0 -0.24792675650E+02 -0.49023129211E+01 -0.57589742138E+02  0.62891079155E+02  0.00000000000E+00 0. -1.
        -12    1    6    6    0    0  0.16282122492E+02  0.66139437134E+02 -0.35843020975E+03  0.36484482717E+03  0.00000000000E+00 0.  1.
</event>
<event>
12    1  0.8451514E-002  0.1825707E+03  0.7818608E-02  0.1166535E+00
         21   -1    0    0  501  502  0.00000000000E+00  0.00000000000E+00  0.92227037912E+02  0.92227037912E+02  0.00000000000E+00 0.  1.
         21   -1    0    0  502  503 -0.00000000000E+00 -0.00000000000E+00 -0.41485851252E+03  0.41485851252E+03  0.00000000000E+00 0.  1.
         -6    2    1    2    0  503 -0.24085546152E+02 -0.51093574816E+02 -0.64241822102E+02  0.19354350274E+03  0.17361281296E+03 0.  0.
        -24    2    3    3    0    0 -0.67293664951E+02 -0.44632811598E+02  0.32423234402E+01  0.11301473216E+03  0.79001846873E+02 0.  0.
          6    2    1    2  501    0  0.24085546152E+02  0.51093574816E+02 -0.25838965250E+03  0.31354204769E+03  0.16838270764E+03 0.  0.
         24    2    5    5    0    0 -0.51363522264E+02  0.31859715364E+02 -0.14131991063E+03  0.17286540523E+03  0.79106752560E+02 0.  0.
          5    1    5    5  501    0  0.75449068416E+02  0.19233859451E+02 -0.11706974187E+03  0.14067664247E+03  0.47000000000E+01 0. -1.
        -11    1    6    6    0    0 -0.55913752831E+02 -0.92754018019E+01 -0.66626089957E+02  0.87472376766E+02  0.00000000000E+00 0.  1.
         12    1    6    6    0    0  0.45502305671E+01  0.41135117166E+02 -0.74693820676E+02  0.85393028461E+02  0.00000000000E+00 0. -1.
         -5    1    3    3    0  503  0.43208118799E+02 -0.64607632178E+01 -0.67484145542E+02  0.80528770579E+02  0.47000000000E+01 0.  1.
         13    1    4    4    0    0 -0.34333187044E+02  0.20420832038E+02 -0.10544824781E+01  0.39961106679E+02  0.00000000000E+00 0. -1.
        -14    1    4    4    0    0 -0.32960477907E+02 -0.65053643636E+02  0.42968059183E+01  0.73053625476E+02  0.00000000000E+00 0.  1.
</event>
<event>
12    1  0.8451514E-002  0.1857322E+03  0.7818608E-02  0.1162869E+00
         21   -1    0    0  501  502  0.00000000000E+00  0.00000000000E+00  0.97882975588E+02  0.97882975588E+02  0.00000000000E+00 0.  1.
         21   -1    0    0  502  503 -0.00000000000E+00 -0.00000000000E+00 -0.44995641090E+03  0.44995641090E+03  0.00000000000E+00 0.  1.
         -6    2    1    2    0  503 -0.68738738853E+02 -0.14477090005E+02 -0.30698368696E+03  0.35879720815E+03  0.17193560470E+03 0.  0.
        -24    2    3    3    0    0 -0.70997617235E+02 -0.68999581121E+02 -0.24563854651E+03  0.27655901249E+03  0.79655433007E+02 0.  0.
          6    2    1    2  501    0  0.68738738853E+02  0.14477090005E+02 -0.45089748357E+02  0.18904217834E+03  0.16961503303E+03 0.  0.
         24    2    5    5    0    0  0.89719330219E+02  0.14861251910E+02 -0.81891785128E+02  0.14641809237E+03  0.80383942915E+02 0.  0.
          5    1    5    5  501    0 -0.20980591366E+02 -0.38416190533E+00  0.36802036771E+02  0.42624085972E+02  0.47000000000E+01 0. -1.
        -13    1    6    6    0    0  0.75646181086E+02  0.26155088978E+02 -0.20773920460E+02  0.82692134835E+02  0.00000000000E+00 0.  1.
         14    1    6    6    0    0  0.14073149133E+02 -0.11293837068E+02 -0.61117864667E+02  0.63725957535E+02  0.00000000000E+00 0. -1.
         -5    1    3    3    0  503  0.22588783819E+01  0.54522491116E+02 -0.61345140441E+02  0.82238195656E+02  0.47000000000E+01 0.  1.
         11    1    4    4    0    0  0.77997096010E+01 -0.57690079239E+01  0.12662102794E+01  0.97836706178E+01  0.00000000000E+00 0. -1.
        -12    1    4    4    0    0 -0.78797326836E+02 -0.63230573197E+02 -0.24690475679E+03  0.26677534187E+03  0.00000000000E+00 0.  1.
</event>
<event>
12    1  0.8451514E-002  0.2721550E+03  0.7818608E-02  0.1100917E+00
         21   -1    0    0  501  502  0.00000000000E+00  0.00000000000E+00  0.15917332878E+04  0.15917332878E+04  0.00000000000E+00 0. -1.
         21   -1    0    0  502  503 -0.00000000000E+00 -0.00000000000E+00 -0.15863718247E+03  0.15863718247E+03  0.00000000000E+00 0. -1.
         -6    2    1    2    0  503  0.13517912180E+02 -0.21046158839E+03 -0.20205689674E+02  0.27290404464E+03  0.17202189846E+03 0.  0.
        -24    2    3    3    0    0 -0.54193320680E+02 -0.74953262907E+02 -0.98963604176E+01  0.12099719950E+03  0.77378787220E+02 0.  0.
          6    2    1    2  501    0 -0.13517912180E+02  0.21046158839E+03  0.14533017950E+04  0.14774664256E+04  0.16230871007E+03 0.  0.
         24    2    5    5    0    0 -0.35917830499E+01  0.64584080452E+02  0.87356621885E+03  0.87955823567E+03  0.79503124897E+02 0.  0.
          5    1    5    5  501    0 -0.99261291299E+01  0.14587750794E+03  0.57973557616E+03  0.59790818997E+03  0.47000000000E+01 0. -1.
        -13    1    6    6    0    0 -0.11654104372E+02  0.61941893447E+02  0.86569068587E+03  0.86798213110E+03  0.00000000000E+00 0.  1.
         14    1    6    6    0    0  0.80623213220E+01  0.26421870043E+01  0.78755329815E+01  0.11576104570E+02  0.00000000000E+00 0. -1.
         -5    1    3    3    0  503  0.67711232859E+02 -0.13550832548E+03 -0.10309329257E+02  0.15190684514E+03  0.47000000000E+01 0.  1.
         11    1    4    4    0    0 -0.54681076181E+02 -0.86846378005E+02  0.39935731493E+01  0.10270473257E+03  0.00000000000E+00 0. -1.
        -12    1    4    4    0    0  0.48775550175E+00  0.11893115098E+02 -0.13889933567E+02  0.18292466938E+02  0.00000000000E+00 0.  1.
</event>
<event>
12    1  0.8451514E-002  0.1817252E+03  0.7818608E-02  0.1166470E+00
         21   -1    0    0  501  502  0.00000000000E+00  0.00000000000E+00  0.19724064599E+03  0.19724064599E+03  0.00000000000E+00 0. -1.
         21   -1    0    0  502  503 -0.00000000000E+00 -0.00000000000E+00 -0.23979234225E+03  0.23979234225E+03  0.00000000000E+00 0. -1.
         -6    2    1    2    0  503 -0.36901336817E+02 -0.42620258142E+02 -0.14229186581E+03  0.22973571227E+03  0.17132812774E+03 0.  0.
        -24    2    3    3    0    0  0.73032065714E+01 -0.16310129405E+02 -0.15767295032E+03  0.17583828849E+03  0.75756103961E+02 0.  0.
          6    2    1    2  501    0  0.36901336817E+02  0.42620258142E+02  0.99740169547E+02  0.20729727596E+03  0.17275955585E+03 0.  0.
         24    2    5    5    0    0 -0.15092125451E+02  0.73220727279E+02  0.26656014132E+02  0.11241264811E+03  0.79605359193E+02 0.  0.
          5    1    5    5  501    0  0.51993462268E+02 -0.30600469137E+02  0.73084155415E+02  0.94884627852E+02  0.47000000000E+01 0. -1.
        -11    1    6    6    0    0 -0.40421251636E+02  0.65728572371E+02  0.34975367708E+02  0.84719532317E+02  0.00000000000E+00 0.  1.
         12    1    6    6    0    0  0.25329126185E+02  0.74921549082E+01 -0.83193535762E+01  0.27693115794E+02  0.00000000000E+00 0. -1.
         -5    1    3    3    0  503 -0.44204543389E+02 -0.26310128737E+02  0.15381084512E+02  0.53897423790E+02  0.47000000000E+01 0.  1.
         11    1    4    4    0    0  0.19348757489E+02 -0.43682428153E+02 -0.10228209917E+03  0.11289002062E+03  0.00000000000E+00 0. -1.
        -12    1    4    4    0    0 -0.12045550917E+02  0.27372298748E+02 -0.55390851152E+02  0.62948267864E+02  0.00000000000E+00 0.  1.
</event>
<event>
12    1  0.8451514E-002  0.2135520E+03  0.7818608E-02  0.1138903E+00
         21   -1    0    0  501  502  0.00000000000E+00  0.00000000000E+00  0.14416275976E+03  0.14416275976E+03  0.00000000000E+00 0.  1.
         21   -1    0    0  502  503 -0.00000000000E+00 -0.00000000000E+00 -0.38933212148E+03  0.38933212148E+03  0.00000000000E+00 0.  1.
         -6    2    1    2    0  503  0.88371071595E+02 -0.88824993594E+02 -0.23865799671E+03  0.31984359467E+03  0.17217130967E+03 0.  0.
        -24    2    3    3    0    0  0.45129205184E+02 -0.23459526408E+02 -0.34155483217E+02  0.10078681815E+03  0.80027439917E+02 0.  0.
          6    2    1    2  501    0 -0.88371071595E+02  0.88824993594E+02 -0.65113650053E+01  0.21365128657E+03  0.17293105157E+03 0.  0.
         24    2    5    5    0    0  0.13355730110E+02  0.11545667068E+02 -0.23217120020E+02  0.84726468384E+02  0.79547858727E+02 0.  0.
          5    1    5    5  501    0 -0.10172680171E+03  0.77279326526E+02  0.16705755015E+02  0.12892481819E+03  0.47000000000E+01 0. -1.
        -13    1    6    6    0    0  0.40550396704E+01  0.45719105736E+02 -0.15797664993E+02  0.48541180407E+02  0.00000000000E+00 0.  1.
         14    1    6    6    0    0  0.93006904399E+01 -0.34173438669E+02 -0.74194550270E+01  0.36185287977E+02  0.00000000000E+00 0. -1.
         -5    1    3    3    0  503  0.43241866411E+02 -0.65365467186E+02 -0.20450251350E+03  0.21905677652E+03  0.47000000000E+01 0.  1.
         11    1    4    4    0    0 -0.19080917573E+02  0.89042714721E+01 -0.16486192371E+02  0.26742513060E+02  0.00000000000E+00 0. -1.
        -12    1    4    4    0    0  0.64210122757E+02 -0.32363797880E+02 -0.17669290846E+02  0.74044305092E+02  0.00000000000E+00 0.  1.
</event>
<event>
12    1  0.8451514E-002  0.1846491E+03  0.7818608E-02  0.1163520E+00
         21   -1    0    0  503  502  0.00000000000E+00  0.00000000000E+00  0.25175062851E+03  0.25175062851E+03  0.00000000000E+00 0. -1.
         21   -1    0    0  501  503 -0.00000000000E+00 -0.00000000000E+00 -0.25025550357E+03  0.25025550357E+03  0.00000000000E+00 0. -1.
          6    2    1    2  501    0  0.65116151112E+02  0.20473277850E+01 -0.16960123539E+03  0.25027359886E+03  0.17212783202E+03 0.  0.
         24    2    3    3    0    0  0.35351237855E+02  0.11829457367E+01 -0.19349592471E+03  0.21180616594E+03  0.78549791037E+02 0.  0.
         -6    2    1    2    0  502 -0.65116151112E+02 -0.20473277850E+01  0.17109636033E+03  0.25173253322E+03  0.17277441673E+03 0.  0.
        -24    2    5    5    0    0  0.20394097373E+02  0.35943758954E+02  0.96973057456E+02  0.13226839929E+03  0.79895447695E+02 0.  0.
          5    1    3    3  501    0  0.29764913257E+02  0.86438204830E+00  0.23894689324E+02  0.38467432919E+02  0.47000000000E+01 0. -1.
        -11    1    4    4    0    0  0.20501147705E+02  0.12970388253E+02 -0.82968760504E+01  0.25639153278E+02  0.00000000000E+00 0.  1.
         12    1    4    4    0    0  0.14850090151E+02 -0.11787442516E+02 -0.18519904866E+03  0.18616701266E+03  0.00000000000E+00 0. -1.
         -5    1    5    5    0  502 -0.85510248485E+02 -0.37991086739E+02  0.74123302872E+02  0.11946413393E+03  0.47000000000E+01 0.  1.
         11    1    6    6    0    0  0.36498735697E+02  0.37613209551E+02  0.10253107730E+03  0.11515004582E+03  0.00000000000E+00 0. -1.
        -12    1    6    6    0    0 -0.16104638324E+02 -0.16694505962E+01 -0.55580198443E+01  0.17118353467E+02  0.00000000000E+00 0.  1.
</event>
<event>
12    1  0.8451514E-002  0.3551184E+03  0.7818608E-02  0.1060562E+00
         21   -1    0    0  501  502  0.00000000000E+00  0.00000000000E+00  0.36807655779E+03  0.36807655779E+03  0.00000000000E+00 0.  1.
         21   -1    0    0  502  503 -0.00000000000E+00 -0.00000000000E+00 -0.99157708376E+03  0.99157708376E+03  0.00000000000E+00 0. -1.
         -6    2    1    2    0  503  0.90592533447E+02  0.29665930052E+03 -0.86179959887E+03  0.93199079222E+03  0.17232103895E+03 0.  0.
        -24    2    3    3    0    0  0.53817979808E+02  0.27036241342E+03 -0.58702125860E+03  0.65347845793E+03  0.80298987510E+02 0.  0.
          6    2    1    2  501    0 -0.90592533447E+02 -0.29665930052E+03  0.23829907290E+03  0.42766284933E+03  0.17290262246E+03 0.  0.
         24    2    5    5    0    0 -0.69536654164E+02 -0.69803206352E+02  0.81585133176E+02  0.15109751091E+03  0.80414488484E+02 0.  0.
          5    1    5    5  501    0 -0.21055879283E+02 -0.22685609417E+03  0.15671393973E+03  0.27656533843E+03  0.47000000000E+01 0. -1.
        -11    1    6    6    0    0 -0.51294135962E+02 -0.41605857823E+02  0.94349837764E+02  0.11516956054E+03  0.00000000000E+00 0.  1.
         12    1    6    6    0    0 -0.18242518202E+02 -0.28197348529E+02 -0.12764704588E+02  0.35927950367E+02  0.00000000000E+00 0. -1.
         -5    1    3    3    0  503  0.36774553639E+02  0.26296887103E+02 -0.27477834028E+03  0.27851233429E+03  0.47000000000E+01 0.  1.
         11    1    4    4    0    0 -0.15474105795E+02  0.23545089977E+02 -0.88929797129E+02  0.93286269244E+02  0.00000000000E+00 0. -1.
        -12    1    4    4    0    0  0.69292085604E+02  0.24681732344E+03 -0.49809146147E+03  0.56019218868E+03  0.00000000000E+00 0.  1.
</event>
<event>
12    1  0.8451514E-002  0.1811297E+03  0.7818608E-02  0.1166931E+00
         21   -1    0    0  503  502  0.00000000000E+00  0.00000000000E+00  0.88513625308E+03  0.88513625308E+03  0.00000000000E+00 0. -1.
         21   -1    0    0  501  503 -0.00000000000E+00 -0.00000000000E+00 -0.37941973932E+02  0.37941973932E+02  0.00000000000E+00 0. -1.
          6    2    1    2  501    0  0.54772232388E+02 -0.12428714241E+01  0.49974364858E+03  0.53124929511E+03  0.17169903054E+03 0.  0.
         24    2    3    3    0    0 -0.24990511231E+02 -0.17958118177E+02  0.34884475843E+03  0.35968572149E+03  0.82061763952E+02 0.  0.
         -6    2    1    2    0  502 -0.54772232388E+02  0.12428714241E+01  0.34745063057E+03  0.39182893190E+03  0.17264538518E+03 0.  0.
        -24    2    5    5    0    0 -0.11743430284E+02 -0.19469725239E+02  0.33170421240E+03  0.34132616806E+03  0.77193847678E+02 0.  0.
          5    1    3    3  501    0  0.79762743619E+02  0.16715246753E+02  0.15089889015E+03  0.17156357362E+03  0.47000000000E+01 0. -1.
        -13    1    4    4    0    0  0.19373164908E+02 -0.34852383342E+02  0.17405972436E+03  0.17856874247E+03  0.00000000000E+00 0.  1.
         14    1    4    4    0    0 -0.44363676139E+02  0.16894265165E+02  0.17478503406E+03  0.18111697902E+03  0.00000000000E+00 0. -1.
         -5    1    5    5    0  502 -0.43028802104E+02  0.20712596663E+02  0.15746418168E+02  0.50502763847E+02  0.47000000000E+01 0.  1.
         13    1    6    6    0    0 -0.27852911110E+02 -0.33599762413E+02  0.10636803870E+03  0.11497342453E+03  0.00000000000E+00 0. -1.
        -14    1    6    6    0    0  0.16109480825E+02  0.14130037174E+02  0.22533617370E+03  0.22635274352E+03  0.00000000000E+00 0.  1.
</event>
<event>
12    1  0.8451514E-002  0.3012698E+03  0.7818608E-02  0.1084711E+00
         21   -1    0    0  501  502  0.00000000000E+00  0.00000000000E+00  0.16184048046E+04  0.16184048046E+04  0.00000000000E+00 0.  1.
         21   -1    0    0  502  503 -0.00000000000E+00 -0.00000000000E+00 -0.55941544549E+02  0.55941544549E+02  0.00000000000E+00 0.  1.
         -6    2    1    2    0  503 -0.24254913524E+03  0.49006584051E+02  0.76881601030E+03  0.82573697080E+03  0.17184806946E+03 0.  0.
        -24    2    3    3    0    0 -0.15668000941E+03 -0.32385582214E+02  0.45556522703E+03  0.49085440226E+03  0.88322799148E+02 0.  0.
          6    2    1    2  501    0  0.24254913524E+03 -0.49006584051E+02  0.79364724973E+03  0.84860937832E+03  0.17038248643E+03 0.  0.
         24    2    5    5    0    0  0.24290066921E+03 -0.25161086304E+02  0.59278126772E+03  0.64627805581E+03  0.81559050390E+02 0.  0.
          5    1    5    5  501    0 -0.35153396648E+00 -0.23845497747E+02  0.20086598201E+03  0.20233132250E+03  0.47000000000E+01 0. -1.
        -11    1    6    6    0    0  0.20609901386E+03 -0.42601753137E+02  0.54035489899E+03  0.57989234324E+03  0.00000000000E+00 0.  1.
         12    1    6    6    0    0  0.36801655344E+02  0.17440666833E+02  0.52426368731E+02  0.66385712574E+02  0.00000000000E+00 0. -1.
         -5    1    3    3    0  503 -0.85869125826E+02  0.81392166266E+02  0.31325078326E+03  0.33488256854E+03  0.47000000000E+01 0.  1.
         11    1    4    4    0    0 -0.12119899517E+03 -0.14001417458E+02  0.21683226359E+03  0.24880005357E+03  0.00000000000E+00 0. -1.
        -12    1    4    4    0    0 -0.35481014240E+02 -0.18384164756E+02  0.23873296345E+03  0.24205434869E+03  0.00000000000E+00 0.  1.
</event>
<event>
12    1  0.8451514E-002  0.1726151E+03  0.7818608E-02  0.1175338E+00
         21   -1    0    0  501  502  0.00000000000E+00  0.00000000000E+00  0.29504684992E+03  0.29504684992E+03  0.00000000000E+00 0. -1.
         21   -1    0    0  502  503 -0.00000000000E+00 -0.00000000000E+00 -0.22697244815E+03  0.22697244815E+03  0.00000000000E+00 0. -1.
         -6    2    1    2    0  503 -0.15761282255E+02 -0.17735902190E+01  0.22879882326E+03  0.28616276753E+03  0.17113931271E+03 0.  0.
        -24    2    3    3    0    0 -0.12701848514E+02 -0.60669800888E+02  0.18425803320E+03  0.21210808675E+03  0.84833106573E+02 0.  0.
          6    2    1    2  501    0  0.15761282255E+02  0.17735902190E+01 -0.16072442149E+03  0.23585653054E+03  0.17188484429E+03 0.  0.
         24    2    5    5    0    0  0.92120522621E+01  0.44741235579E+02 -0.16796436451E+03  0.19154380397E+03  0.79939733721E+02 0.  0.
          5    1    5    5  501    0  0.65492299926E+01 -0.42967645360E+02  0.72399430181E+01  0.44312726571E+02  0.47000000000E+01 0. -1.
        -11    1    6    6    0    0  0.29569699995E+02  0.46668099720E+02 -0.59602955902E+02  0.81269865520E+02  0.00000000000E+00 0.  1.
         12    1    6    6    0    0 -0.20357647733E+02 -0.19268641418E+01 -0.10836140861E+03  0.11027393845E+03  0.00000000000E+00 0. -1.
         -5    1    3    3    0  503 -0.30594337411E+01  0.58896210669E+02  0.44540790063E+02  0.74054680780E+02  0.47000000000E+01 0.  1.
         13    1    4    4    0    0 -0.27480181089E+02 -0.15641966701E+01  0.12174201774E+03  0.12481476655E+03  0.00000000000E+00 0. -1.
        -14    1    4    4    0    0  0.14778332575E+02 -0.59105604218E+02  0.62516015457E+02  0.87293320204E+02  0.00000000000E+00 0.  1.
</event>
<event>
12    1  0.8451514E-002  0.1810509E+03  0.7818608E-02  0.1167146E+00
         21   -1    0    0  501  502  0.00000000000E+00  0.00000000000E+00  0.17698209267E+03  0.17698209267E+03  0.00000000000E+00 0. -1.
         21   -1    0    0  502  503 -0.00000000000E+00 -0.00000000000E+00 -0.26686233945E+03  0.26686233945E+03  0.00000000000E+00 0. -1.
         -6    2    1    2    0  503 -0.11996835737E+02 -0.50773045094E+02 -0.16894802888E+03  0.24763454255E+03  0.17337128951E+03 0.  0.
        -24    2    3    3    0    0  0.35558038122E+02 -0.83789714467E+02 -0.94852816754E+02  0.15348701500E+03  0.79221945199E+02 0.  0.
          6    2    1    2  501    0  0.11996835737E+02  0.50773045094E+02  0.79067782107E+02  0.19620988957E+03  0.17182776383E+03 0.  0.
         24    2    5    5    0    0  0.33464926944E+02  0.30380442517E+02 -0.18383264302E+02  0.94251399849E+02  0.80638138274E+02 0.  0.
          5    1    5    5  501    0 -0.21468091207E+02  0.20392602577E+02  0.97451046409E+02  0.10195848972E+03  0.47000000000E+01 0. -1.
        -13    1    6    6    0    0 -0.13841068984E+02  0.32144651549E+02 -0.29330464791E+02  0.45663223481E+02  0.00000000000E+00 0.  1.
         14    1    6    6    0    0  0.47305995928E+02 -0.17642090324E+01  0.10947200488E+02  0.48588176368E+02  0.00000000000E+00 0. -1.
         -5    1    3    3    0  503 -0.47554873859E+02  0.33016669374E+02 -0.74095212125E+02  0.94147527552E+02  0.47000000000E+01 0.  1.
         13    1    4    4    0    0  0.51130081359E+02 -0.63527696789E+02 -0.98276540361E+02  0.12770407928E+03  0.00000000000E+00 0. -1.
        -14    1    4    4    0    0 -0.15572043237E+02 -0.20262017679E+02  0.34237236065E+01  0.25782935719E+02  0.00000000000E+00 0.  1.
</event>
<event>
12    1  0.8451514E-002  0.2511189E+03  0.7818608E-02  0.1114266E+00
         21   -1    0    0  503  502  0.00000000000E+00  0.00000000000E+00  0.11353793945E+03  0.11353793945E+03  0.00000000000E+00 0.  1.
         21   -1    0    0  501  503 -0.00000000000E+00 -0.00000000000E+00 -0.94694451339E+03  0.94694451339E+03  0.00000000000E+00 0. -1.
          6    2    1    2  501    0  0.18027049522E+03 -0.26443494531E+02 -0.76241464377E+03  0.79952166177E+03  0.15735974309E+03 0.  0.
         24    2    3    3    0    0  0.55388980427E+02  0.30066030985E+02 -0.37365716122E+03  0.38727999787E+03  0.79963849631E+02 0.  0.
         -6    2    1    2    0  502 -0.18027049522E+03  0.26443494531E+02 -0.70991930169E+02  0.26096079107E+03  0.17281195119E+03 0.  0.
        -24    2    5    5    0    0 -0.27730977859E+02 -0.14646444172E+02 -0.56111079650E+02  0.10221502850E+03  0.79472846513E+02 0.  0.
          5    1    3    3  501    0  0.12488151479E+03 -0.56509525517E+02 -0.38875748256E+03  0.41224166390E+03  0.47000000000E+01 0. -1.
        -11    1    4    4    0    0 -0.18076884495E+02 -0.61893561223E+01 -0.53590830571E+02  0.56895157997E+02  0.00000000000E+00 0.  1.
         12    1    4    4    0    0  0.73465864922E+02  0.36255387108E+02 -0.32006633065E+03  0.33038483987E+03  0.00000000000E+00 0. -1.
         -5    1    5    5    0  502 -0.15253951736E+03  0.41089938703E+02 -0.14880850519E+02  0.15874576256E+03  0.47000000000E+01 0.  1.
         11    1    6    6    0    0 -0.49113701541E+02 -0.22404366815E+02 -0.58189926351E+02  0.79373666037E+02  0.00000000000E+00 0. -1.
        -12    1    6    6    0    0  0.21382723681E+02  0.77579226431E+01  0.20788467009E+01  0.22841362468E+02  0.00000000000E+00 0.  1.
</event>
<event>
12    1  0.8451514E-002  0.1926593E+03  0.7818608E-02  0.1157994E+00
         21   -1    0    0  503  502  0.00000000000E+00  0.00000000000E+00  0.78439519764E+03  0.78439519764E+03  0.00000000000E+00 0.  1.
         21   -1    0    0  501  503 -0.00000000000E+00 -0.00000000000E+00 -0.17099443230E+03  0.17099443230E+03  0.00000000000E+00 0. -1.
          6    2    1    2  501    0  0.72022283698E+02 -0.50831212040E+02 -0.10105950125E+03  0.21755599483E+03  0.17130839625E+03 0.  0.
         24    2    3    3    0    0  0.48399039572E+02  0.40307081934E+02 -0.43057764215E+02  0.10687384726E+03  0.74839296381E+02 0.  0.
         -6    2    1    2    0  502 -0.72022283698E+02  0.50831212040E+02  0.71446026659E+03  0.73783363512E+03  0.16178374182E+03 0.  0.
        -24    2    5    5    0    0  0.16670272139E+02  0.33545362399E+02  0.40327913029E+03  0.41376426038E+03  0.84638152908E+02 0.  0.
          5    1    3    3  501    0  0.23623244126E+02 -0.91138293975E+02 -0.58001737032E+02  0.11068214757E+03  0.47000000000E+01 0. -1.
        -13    1    4    4    0    0  0.65493152504E+02  0.23065052885E+02 -0.17469440678E+02  0.71599797814E+02  0.00000000000E+00 0.  1.
         14    1    4    4    0    0 -0.17094112931E+02  0.17242029049E+02 -0.25588323537E+02  0.35274049443E+02  0.00000000000E+00 0. -1.
         -5    1    5    5    0  502 -0.88692555836E+02  0.17285849641E+02  0.31118113630E+03  0.32406937474E+03  0.47000000000E+01 0.  1.
         11    1    6    6    0    0  0.12456438243E+02 -0.49479521700E+01  0.61415299554E+01  0.14743251832E+02  0.00000000000E+00 0. -1.
        -12    1    6    6    0    0  0.42138338957E+01  0.38493314569E+02  0.39713760033E+03  0.39902100855E+03  0.00000000000E+00 0.  1.
</event>
<event>
12    1  0.8451514E-002  0.1882597E+03  0.7818608E-02  0.1160924E+00
         21   -1    0    0  501  502  0.00000000000E+00  0.00000000000E+00  0.14863426645E+02  0.14863426645E+02  0.00000000000E+00 0.  1.
         21   -1    0    0  502  503 -0.00000000000E+00 -0.00000000000E+00 -0.32904542515E+04  0.32904542515E+04  0.00000000000E+00 0.  1.
         -6    2    1    2    0  503  0.15134354319E+02 -0.74348194660E+02 -0.25157921071E+04  0.25225432420E+04  0.16810050108E+03 0.  0.
        -24    2    3    3    0    0  0.66062616714E+01 -0.57598699611E+02 -0.24793451960E+04  0.24812668410E+04  0.78557508514E+02 0.  0.
          6    2    1    2  501    0 -0.15134354319E+02  0.74348194660E+02 -0.75979871771E+03  0.78277443618E+03  0.17229342349E+03 0.  0.
         24    2    5    5    0    0  0.46850736571E+02  0.40140014482E+00 -0.31932570383E+03  0.33183226044E+03  0.77127111316E+02 0.  0.
          5    1    5    5  501    0 -0.61985090890E+02  0.73946794515E+02 -0.44047301388E+03  0.45094217574E+03  0.47000000000E+01 0. -1.
        -13    1    6    6    0    0  0.67216549347E+01 -0.17956992334E+02 -0.15054638343E+02  0.24377784033E+02  0.00000000000E+00 0.  1.
         14    1    6    6    0    0  0.40129081636E+02  0.18358392478E+02 -0.30427106549E+03  0.30745447640E+03  0.00000000000E+00 0. -1.
         -5    1    3    3    0  503  0.85280926472E+01 -0.16749495049E+02 -0.36446911094E+02  0.41276400968E+02  0.47000000000E+01 0.  1.
         13    1    4    4    0    0 -0.26001268125E+02  0.51615186450E+01 -0.78064682687E+03  0.78109677731E+03  0.00000000000E+00 0. -1.
        -14    1    4    4    0    0  0.32607529796E+02 -0.62760218256E+02 -0.16986983692E+04  0.17001700637E+04  0.00000000000E+00 0.  1.
</event>
<event>
12    1  0.8451514E-002  0.2280135E+03  0.7818608E-02  0.1129411E+00
         21   -1    0    0  501  502  0.00000000000E+00  0.00000000000E+00  0.54738212854E+02  0.54738212854E+02  0.00000000000E+00 0. -1.
         21   -1    0    0  502  503 -0.00000000000E+00 -0.00000000000E+00 -0.99407483452E+03  0.99407483452E+03  0.00000000000E+00 0. -1.
         -6    2    1    2    0  503 -0.13437387802E+03  0.24891834635E+02 -0.31797563470E+03  0.38693721325E+03  0.17302011504E+03 0.  0.
        -24    2    3    3    0    0 -0.12354614756E+03 -0.38920117282E+02 -0.24195351073E+03  0.28698393272E+03  0.83903815075E+02 0.  0.
          6    2    1    2  501    0  0.13437387802E+03 -0.24891834635E+02 -0.62136098696E+03  0.66187583412E+03  0.18252178267E+03 0.  0.
         24    2    5    5    0    0  0.38543657592E+02  0.47422540056E+02 -0.36781362758E+03  0.38130293204E+03  0.79815728395E+02 0.  0.
          5    1    5    5  501    0  0.95830220428E+02 -0.72314374691E+02 -0.25354735938E+03  0.28057290208E+03  0.47000000000E+01 0. -1.
        -13    1    6    6    0    0  0.69917037708E+00  0.53114029945E+02 -0.13006314694E+03  0.14049203255E+03  0.00000000000E+00 0.  1.
         14    1    6    6    0    0  0.37844487215E+02 -0.56914898888E+01 -0.23775048064E+03  0.24081089949E+03  0.00000000000E+00 0. -1.
         -5    1    3    3    0  503 -0.10827730464E+02  0.63811951917E+02 -0.76022123977E+02  0.99953280528E+02  0.47000000000E+01 0.  1.
         11    1    4    4    0    0 -0.94933056269E+02 -0.96044310708E+01 -0.22153996334E+03  0.24121460492E+03  0.00000000000E+00 0. -1.
        -12    1    4    4    0    0 -0.28613091287E+02 -0.29315686211E+02 -0.20413547386E+02  0.45769327807E+02  0.00000000000E+00 0.  1.
</event>
<event>
12    1  0.8451514E-002  0.1726645E+03  0.7818608E-02  0.1175207E+00
         21   -1    0    0  501  502  0.00000000000E+00  0.00000000000E+00  0.15553923557E+03  0.15553923557E+03  0.00000000000E+00 0. -1.
         21   -1    0    0  502  503 -0.00000000000E+00 -0.00000000000E+00 -0.20940487428E+03  0.20940487428E+03  0.00000000000E+00 0. -1.
         -6    2    1    2    0  503  0.10805040882E+02  0.87770066597E+01 -0.80768873285E+02  0.19062174254E+03  0.17210244938E+03 0.  0.
        -24    2    3    3    0    0  0.12641193372E+02 -0.45238812807E+01 -0.12214952271E+03  0.14686407781E+03  0.80425656226E+02 0.  0.
          6    2    1    2  501    0 -0.10805040882E+02 -0.87770066597E+01  0.26903234573E+02  0.17432236732E+03  0.17167037881E+03 0.  0.
         24    2    5    5    0    0 -0.26455594927E+02 -0.49063573339E+02 -0.31601458171E+02  0.10143316119E+03  0.78631426915E+02 0.  0.
          5    1    5    5  501    0  0.15650554045E+02  0.40286566680E+02  0.58504692744E+02  0.72889206127E+02  0.47000000000E+01 0. -1.
        -13    1    6    6    0    0 -0.42973984102E+02 -0.42812907990E+02  0.49256905353E+01  0.60860256551E+02  0.00000000000E+00 0.  1.
         14    1    6    6    0    0  0.16518389175E+02 -0.62506653488E+01 -0.36527148706E+02  0.40572904639E+02  0.00000000000E+00 0. -1.
         -5    1    3    3    0  503 -0.18361524897E+01  0.13300887940E+02  0.41380649426E+02  0.43757664733E+02  0.47000000000E+01 0.  1.
         13    1    4    4    0    0 -0.25906351104E+02 -0.22966164963E+02 -0.78421558678E+02  0.85723536010E+02  0.00000000000E+00 0. -1.
        -14    1    4    4    0    0  0.38547544476E+02  0.18442283683E+02 -0.43727964032E+02  0.61140541795E+02  0.00000000000E+00 0.  1.
</event>
<event>
12    1  0.8451514E-002  0.1783083E+03  0.7818608E-02  0.1169485E+00
         21   -1    0    0  501  502  0.00000000000E+00  0.00000000000E+00  0.98975614358E+02  0.98975614358E+02  0.00000000000E+00 0. -1.
         21   -1    0    0  502  503 -0.00000000000E+00 -0.00000000000E+00 -0.42092674348E+03  0.42092674348E+03  0.00000000000E+00 0. -1.
         -6    2    1    2    0  503 -0.56256323706E+01 -0.44882148461E+02 -0.28759883018E+03  0.33831507028E+03  0.17233091617E+03 0.  0.
        -24    2    3    3    0    0 -0.17324624668E+02 -0.64663617276E+02 -0.29540931358E+03  0.31359126434E+03  0.81186775402E+02 0.  0.
          6    2    1    2  501    0  0.56256323706E+01  0.44882148461E+02 -0.34352298949E+02  0.18158728756E+03  0.17247552746E+03 0.  0.
         24    2    5    5    0    0  0.65998368281E+02  0.21737065532E+02 -0.44693260588E+02  0.11593983832E+03  0.81340481516E+02 0.  0.
          5    1    5    5  501    0 -0.60372735910E+02  0.23145082928E+02  0.10340961639E+02  0.65647449247E+02  0.47000000000E+01 0. -1.
        -11    1    6    6    0    0  0.69056556005E+02 -0.27798822111E+01 -0.51390616397E+01  0.69303287273E+02  0.00000000000E+00 0.  1.
         12    1    6    6    0    0 -0.30581877237E+01  0.24516947743E+02 -0.39554198949E+02  0.46636551044E+02  0.00000000000E+00 0. -1.
         -5    1    3    3    0  503  0.11698992297E+02  0.19781468816E+02  0.78104834006E+01  0.24723805941E+02  0.47000000000E+01 0.  1.
         13    1    4    4    0    0 -0.62405537532E+01 -0.57979019071E+01 -0.20477113301E+03  0.20494823027E+03  0.00000000000E+00 0. -1.
        -14    1    4    4    0    0 -0.11084070914E+02 -0.58865715369E+02 -0.90638180570E+02  0.10864303407E+03  0.00000000000E+00 0.  1.
</event>
<event>
12    1  0.8451514E-002  0.2675960E+03  0.7818608E-02  0.1102772E+00
         21   -1    0    0  501  502  0.00000000000E+00  0.00000000000E+00  0.20525706115E+04  0.20525706115E+04  0.00000000000E+00 0. -1.
         21   -1    0    0  502  503 -0.00000000000E+00 -0.00000000000E+00 -0.47434585482E+02  0.47434585482E+02  0.00000000000E+00 0. -1.
         -6    2    1    2    0  503 -0.19232699060E+03 -0.67469247985E+02  0.46146299833E+03  0.53343764229E+03  0.17339506524E+03 0.  0.
        -24    2    3    3    0    0 -0.50115643289E+02 -0.48180732213E+02  0.98230227365E+02  0.14285314433E+03  0.76973259111E+02 0.  0.
          6    2    1    2  501    0  0.19232699060E+03  0.67469247985E+02  0.15436730277E+04  0.15665675547E+04  0.17223738345E+03 0.  0.
         24    2    5    5    0    0  0.18817075877E+03  0.10311404697E+03  0.14011607250E+04  0.14195312586E+04  0.76005760604E+02 0.  0.
          5    1    5    5  501    0  0.41562318317E+01 -0.35644798989E+02  0.14251230262E+03  0.14703629605E+03  0.47000000000E+01 0. -1.
        -11    1    6    6    0    0  0.46036641888E+02  0.33171988951E+02  0.19744778939E+03  0.20543948691E+03  0.00000000000E+00 0.  1.
         12    1    6    6    0    0  0.14213411688E+03  0.69942058024E+02  0.12037129357E+04  0.12140917717E+04  0.00000000000E+00 0. -1.
         -5    1    3    3    0  503 -0.14221134731E+03 -0.19288515772E+02  0.36323277096E+03  0.39058449796E+03  0.47000000000E+01 0.  1.
         11    1    4    4    0    0 -0.51473385946E+02  0.25043876904E+01  0.37470320332E+02  0.63716609484E+02  0.00000000000E+00 0. -1.
        -12    1    4    4    0    0  0.13577426573E+01 -0.50685119903E+02  0.60759907033E+02  0.79136534846E+02  0.00000000000E+00 0.  1.
</event>
<event>
12    1  0.8451514E-002  0.2528150E+03  0.7818608E-02  0.1111727E+00
         21   -1    0    0  501  502  0.00000000000E+00  0.00000000000E+00  0.74886752738E+03  0.74886752738E+03  0.00000000000E+00 0. -1.
         21   -1    0    0  502  503 -0.00000000000E+00 -0.00000000000E+00 -0.13775743756E+03  0.13775743756E+03  0.00000000000E+00 0. -1.
         -6    2    1    2    0  503 -0.47567098263E+02 -0.17806123435E+03  0.57959476453E+03  0.63185324849E+03  0.17128924231E+03 0.  0.
        -24    2    3    3    0    0 -0.66442017987E+02 -0.12134389629E+03  0.24703009051E+03  0.29392652352E+03  0.78930682849E+02 0.  0.
          6    2    1    2  501    0  0.47567098263E+02  0.17806123435E+03  0.31515325287E+02  0.25477171646E+03  0.17305195684E+03 0.  0.
         24    2    5    5    0    0  0.32766252407E+02  0.48447090693E+02  0.66484680828E+02  0.11962795189E+03  0.80435602791E+02 0.  0.
          5    1    5    5  501    0  0.14800845856E+02  0.12961414366E+03 -0.34969355541E+02  0.13514376457E+03  0.47000000000E+01 0. -1.
        -11    1    6    6    0    0  0.27843942153E+02  0.38860752485E+01 -0.10934087897E+02  0.30165227889E+02  0.00000000000E+00 0.  1.
         12    1    6    6    0    0  0.49223102541E+01  0.44561015444E+02  0.77418768724E+02  0.89462724005E+02  0.00000000000E+00 0. -1.
         -5    1    3    3    0  503  0.18874919724E+02 -0.56717338064E+02  0.33256467403E+03  0.33792672496E+03  0.47000000000E+01 0.  1.
         13    1    4    4    0    0 -0.82682531421E+02 -0.81636413018E+02  0.18653233983E+03  0.21976173174E+03  0.00000000000E+00 0. -1.
        -14    1    4    4    0    0  0.16240513435E+02 -0.39707483270E+02  0.60497750673E+02  0.74164791787E+02  0.00000000000E+00 0.  1.
</event>
<event>
12    1  0.8451514E-002  0.1877808E+03  0.7818608E-02  0.1161794E+00
         21   -1    0    0  503  502  0.00000000000E+00  0.00000000000E+00  0.97707992755E+03  0.97707992755E+03  0.00000000000E+00 0.  1.
         21   -1    0    0  501  503 -0.00000000000E+00 -0.00000000000E+00 -0.97737426571E+02  0.97737426571E+02  0.00000000000E+00 0.  1.
          6    2    1    2  501    0  0.14177111005E+02  0.65575751530E+02  0.67562722639E+01  0.18225454962E+03  0.16932189456E+03 0.  0.
         24    2    3    3    0    0  0.60024408792E+02  0.83155230154E+02  0.18060601967E+02  0.13164930629E+03  0.80545841296E+02 0.  0.
         -6    2    1    2    0  502 -0.14177111005E+02 -0.65575751530E+02  0.87258622872E+03  0.89256280450E+03  0.17538661226E+03 0.  0.
        -24    2    5    5    0    0 -0.44177556530E+02 -0.10175279892E+03  0.54788424972E+03  0.56444351117E+03  0.78192311776E+02 0.  0.
          5    1    3    3  501    0 -0.45847297787E+02 -0.17579478624E+02 -0.11304329703E+02  0.50605243336E+02  0.47000000000E+01 0. -1.
        -11    1    4    4    0    0  0.17074348221E+02  0.70661991554E+02 -0.17187794866E+02  0.74699870883E+02  0.00000000000E+00 0.  1.
         12    1    4    4    0    0  0.42950060571E+02  0.12493238600E+02  0.35248396833E+02  0.56949435406E+02  0.00000000000E+00 0. -1.
         -5    1    5    5    0  502  0.30000445524E+02  0.36177047391E+02  0.32470197900E+03  0.32811929333E+03  0.47000000000E+01 0.  1.
         13    1    6    6    0    0  0.43735278035E+01 -0.20346333802E+02  0.22787499683E+02  0.30860511766E+02  0.00000000000E+00 0. -1.
        -14    1    6    6    0    0 -0.48551084333E+02 -0.81406465119E+02  0.52509675004E+03  0.53358299941E+03  0.00000000000E+00 0.  1.
</event>
<event>
12    1  0.8451514E-002  0.2748515E+03  0.7818608E-02  0.1098582E+00
         21   -1    0    0  501  502  0.00000000000E+00  0.00000000000E+00  0.24637016799E+04  0.24637016799E+04  0.00000000000E+00 0.  1.
         21   -1    0    0  502  503 -0.00000000000E+00 -0.00000000000E+00 -0.80330885847E+02  0.80330885847E+02  0.00000000000E+00 0. -1.
         -6    2    1    2    0  503  0.21201468394E+03 -0.29683148610E+02  0.19081656196E+03  0.33431824150E+03  0.17183250789E+03 0.  0.
        -24    2    3    3    0    0  0.78684936110E+02  0.44238380495E+02  0.74904639469E+02  0.14274872958E+03  0.81351959438E+02 0.  0.
          6    2    1    2  501    0 -0.21201468394E+03  0.29683148610E+02  0.21925542321E+04  0.22097143242E+04  0.17237174526E+03 0.  0.
         24    2    5    5    0    0 -0.76826711603E+02 -0.42116191698E+02  0.89201184538E+03  0.90018634716E+03  0.83511736214E+02 0.  0.
          5    1    5    5  501    0 -0.13518797234E+03  0.71799340308E+02  0.13005423867E+04  0.13095279771E+04  0.47000000000E+01 0. -1.
        -13    1    6    6    0    0 -0.93284065029E+02 -0.45720892051E+02  0.78810842178E+03  0.79492590927E+03  0.00000000000E+00 0.  1.
         14    1    6    6    0    0  0.16457353426E+02  0.36047003529E+01  0.10390342361E+03  0.10526043788E+03  0.00000000000E+00 0. -1.
         -5    1    3    3    0  503  0.13332974783E+03 -0.73921529105E+02  0.11591192249E+03  0.19156951192E+03  0.47000000000E+01 0.  1.
         11    1    4    4    0    0  0.93783633813E+02  0.25201969581E+02  0.57449209850E+02  0.11283138284E+03  0.00000000000E+00 0. -1.
        -12    1    4    4    0    0 -0.15098697703E+02  0.19036410913E+02  0.17455429619E+02  0.29917346740E+02  0.00000000000E+00 0.  1.
</event>
<event>
12    1  0.8451514E-002  0.1998311E+03  0.7818608E-02  0.1151131E+00
         21   -1    0    0  503  502  0.00000000000E+00  0.00000000000E+00  0.17819777101E+03  0.17819777101E+03  0.00000000000E+00 0.  1.
         21   -1    0    0  501  503 -0.00000000000E+00 -0.00000000000E+00 -0.24554264540E+03  0.24554264540E+03  0.00000000000E+00 0.  1.
          6    2    1    2  501    0  0.57286870732E+02 -0.72462063402E+02 -0.10556864264E+03  0.22600268969E+03  0.17720028569E+03 0.  0.
         24    2    3    3    0    0  0.41084835085E+02 -0.62646809869E+02 -0.14513276555E+03  0.18188630971E+03  0.80040761889E+02 0.  0.
         -6    2    1    2    0  502 -0.57286870732E+02  0.72462063402E+02  0.38223768241E+02  0.19773772672E+03  0.17060661160E+03 0.  0.
        -24    2    5    5    0    0 -0.13797281427E+02  0.86397467997E+02 -0.23015510522E+02  0.12120094378E+03  0.80653999273E+02 0.  0.
          5    1    3    3  501    0  0.16202035647E+02 -0.98152535333E+01  0.39564122910E+02  0.44116379981E+02  0.47000000000E+01 0. -1.
        -13    1    4    4    0    0  0.65332623809E+02 -0.42824678788E+02 -0.98577293078E+02  0.12577673695E+03  0.00000000000E+00 0.  1.
         14    1    4    4    0    0 -0.24247788724E+02 -0.19822131080E+02 -0.46555472467E+02  0.56109572759E+02  0.00000000000E+00 0. -1.
         -5    1    5    5    0  502 -0.43489589305E+02 -0.13935404595E+02  0.61239278763E+02  0.76536782938E+02  0.47000000000E+01 0.  1.
         11    1    6    6    0    0  0.23593773176E+02  0.76790657255E+02 -0.17292172542E+02  0.82173538354E+02  0.00000000000E+00 0. -1.
        -12    1    6    6    0    0 -0.37391054604E+02  0.96068107410E+01 -0.57233379799E+01  0.39027405430E+02  0.00000000000E+00 0.  1.
</event>
<event>
12    1  0.8451514E-002  0.2210942E+03  0.7818608E-02  0.1133094E+00
         21   -1    0    0  503  502  0.00000000000E+00  0.00000000000E+00  0.92098980196E+02  0.92098980196E+02  0.00000000000E+00 0.  1.
         21   -1    0    0  501  503 -0.00000000000E+00 -0.00000000000E+00 -0.10250714632E+04  0.10250714632E+04  0.00000000000E+00 0.  1.
          6    2    1    2  501    0  0.13691390079E+03  0.20765720634E+02 -0.85457077341E+03  0.88270823819E+03  0.17235427358E+03 0.  0.
         24    2    3    3    0    0  0.12766514012E+03 -0.43000956909E+02 -0.62955646938E+03  0.64860301450E+03  0.78721356634E+02 0.  0.
         -6    2    1    2    0  502 -0.13691390079E+03 -0.20765720634E+02 -0.78401709578E+02  0.23446220519E+03  0.17218904209E+03 0.  0.
        -24    2    5    5    0    0 -0.98860185856E+02 -0.30467993572E+02 -0.11961889895E+03  0.17733807701E+03  0.80240124574E+02 0.  0.
          5    1    3    3  501    0  0.92487606651E+01  0.63766677543E+02 -0.22501430403E+03  0.23410522368E+03  0.47000000000E+01 0. -1.
        -11    1    4    4    0    0  0.77880402661E+02  0.62677509795E+01 -0.43172890668E+03  0.43874194087E+03  0.00000000000E+00 0.  1.
         12    1    4    4    0    0  0.49784737459E+02 -0.49268707889E+02 -0.19782756270E+03  0.20986107363E+03  0.00000000000E+00 0. -1.
         -5    1    5    5    0  502 -0.38053714929E+02  0.97022729385E+01  0.41217189375E+02  0.57124128178E+02  0.47000000000E+01 0.  1.
         11    1    6    6    0    0 -0.46206775088E+02 -0.34520259556E+02 -0.14151778310E+02  0.59388443431E+02  0.00000000000E+00 0. -1.
        -12    1    6    6    0    0 -0.52653410768E+02  0.40522659838E+01 -0.10546712064E+03  0.11794963358E+03  0.00000000000E+00 0.  1.
</event>
<event>
12    1  0.8451514E-002  0.1851894E+03  0.7818608E-02  0.1163497E+00
         21   -1    0    0  503  502  0.00000000000E+00  0.00000000000E+00  0.73261016795E+03  0.73261016795E+03  0.00000000000E+00 0.  1.
         21   -1    0    0  501  503 -0.00000000000E+00 -0.00000000000E+00 -0.12292597776E+03  0.12292597776E+03  0.00000000000E+00 0.  1.
          6    2    1    2  501    0  0.15871944553E+02  0.61487143459E+02 -0.32406550724E+02  0.18800341248E+03  0.17396123459E+03 0.  0.
         24    2    3    3    0    0 -0.29601366158E+01  0.13952395734E+02 -0.83507723690E+02  0.11556295831E+03  0.78599145423E+02 0.  0.
         -6    2    1    2    0  502 -0.15871944553E+02 -0.61487143459E+02  0.64209074091E+03  0.66753273323E+03  0.17113399116E+03 0.  0.
        -24    2    5    5    0    0  0.28207249594E+02  0.21867725822E+02  0.31498674201E+03  0.32707697151E+03  0.80553406432E+02 0.  0.
          5    1    3    3  501    0  0.18832081169E+02  0.47534747726E+02  0.51101172966E+02  0.72440454175E+02  0.47000000000E+01 0. -1.
        -13    1    4    4    0    0  0.23976912484E+00 -0.31541041545E+02 -0.49410476902E+02  0.58619877334E+02  0.00000000000E+00 0.  1.
         14    1    4    4    0    0 -0.31999057406E+01  0.45493437278E+02 -0.34097246788E+02  0.56943080973E+02  0.00000000000E+00 0. -1.
         -5    1    5    5    0  502 -0.44079194148E+02 -0.83354869281E+02  0.32710399890E+03  0.34045576172E+03  0.47000000000E+01 0.  1.
         13    1    6    6    0    0  0.54626026050E+01  0.14592533149E+02  0.29641801891E+03  0.29682726287E+03  0.00000000000E+00 0. -1.
        -14    1    6    6    0    0  0.22744646989E+02  0.72751926723E+01  0.18568723105E+02  0.30249708641E+02  0.00000000000E+00 0.  1.
</event>
<event>
12    1  0.8451514E-002  0.1732330E+03  0.7818608E-02  0.1174834E+00
         21   -1    0    0  501  502  0.00000000000E+00  0.00000000000E+00  0.19189424405E+03  0.19189424405E+03  0.00000000000E+00 0. -1.
         21   -1    0    0  502  503 -0.00000000000E+00 -0.00000000000E+00 -0.11323379594E+04  0.11323379594E+04  0.00000000000E+00 0. -1.
         -6    2    1    2    0  503  0.12250562341E+02 -0.29792174206E+01 -0.10854998862E+04  0.10992359522E+04  0.17277361987E+03 0.  0.
        -24    2    3    3    0    0  0.71539295662E+02 -0.12161583116E+02 -0.50433284039E+03  0.51496144922E+03  0.74618398227E+02 0.  0.
          6    2    1    2  501    0 -0.12250562341E+02  0.29792174206E+01  0.14505617089E+03  0.22499625117E+03  0.17153153737E+03 0.  0.
         24    2    5    5    0    0  0.55687514546E+02 -0.22082574255E+02  0.79316972366E+02  0.12708094126E+03  0.79181084628E+02 0.  0.
          5    1    5    5  501    0 -0.67938076887E+02  0.25061791676E+02  0.65739198526E+02  0.97915309916E+02  0.47000000000E+01 0. -1.
        -13    1    6    6    0    0  0.49840847193E+02 -0.30635981586E+02  0.12962472381E+02  0.59922442431E+02  0.00000000000E+00 0.  1.
         14    1    6    6    0    0  0.58466673536E+01  0.85534073309E+01  0.66354499985E+02  0.67158498825E+02  0.00000000000E+00 0. -1.
         -5    1    3    3    0  503 -0.59288733321E+02  0.91823656958E+01 -0.58116704581E+03  0.58427450302E+03  0.47000000000E+01 0.  1.
         11    1    4    4    0    0 -0.12362576884E+02  0.70751213109E+01 -0.13406526789E+03  0.13481983053E+03  0.00000000000E+00 0. -1.
        -12    1    4    4    0    0  0.83901872546E+02 -0.19236704427E+02 -0.37026757250E+03  0.38014161869E+03  0.00000000000E+00 0.  1.
</event>
<event>
12    1  0.8451514E-002  0.1914429E+03  0.7818608E-02  0.1157445E+00
         21   -1    0    0  503  502  0.00000000000E+00  0.00000000000E+00  0.47886368868E+03  0.47886368868E+03  0.00000000000E+00 0.  1.
         21   -1    0    0  501  503 -0.00000000000E+00 -0.00000000000E+00 -0.11723099742E+03  0.11723099742E+03  0.00000000000E+00 0. -1.
          6    2    1    2  501    0 -0.83473024227E+02  0.17701695078E+02  0.37618588260E+01  0.19023521608E+03  0.16998291112E+03 0.  0.
         24    2    3    3    0    0 -0.10968037725E+03  0.53094415023E+02  0.13896319649E+01  0.14588222928E+03  0.80192840582E+02 0.  0.
         -6    2    1    2    0  502  0.83473024227E+02 -0.17701695078E+02  0.35787083244E+03  0.40585947003E+03  0.17137467992E+03 0.  0.
        -24    2    5    5    0    0  0.24743393691E+02  0.47907508942E+02  0.13247012414E+03  0.16382371553E+03  0.79890619194E+02 0.  0.
          5    1    3    3  501    0  0.26207353026E+02 -0.35392719945E+02  0.23722268611E+01  0.44352986799E+02  0.47000000000E+01 0. -1.
        -13    1    4    4    0    0 -0.15052578361E+02 -0.79936406321E+00  0.29750128136E+02  0.33351000320E+02  0.00000000000E+00 0.  1.
         14    1    4    4    0    0 -0.94627798892E+02  0.53893779086E+02 -0.28360496172E+02  0.11253122896E+03  0.00000000000E+00 0. -1.
         -5    1    5    5    0  502  0.58729630536E+02 -0.65609204020E+02  0.22540070830E+03  0.24203575450E+03  0.47000000000E+01 0.  1.
         13    1    6    6    0    0 -0.85272826450E+00 -0.30078471914E+01 -0.99477914549E+01  0.10427504258E+02  0.00000000000E+00 0. -1.
        -14    1    6    6    0    0  0.25596121956E+02  0.50915356133E+02  0.14241791560E+03  0.15339621127E+03  0.00000000000E+00 0.  1.
</event>
<event>
12    1  0.8451514E-002  0.1941140E+03  0.7818608E-02  0.1154812E+00
         21   -1    0    0  503  502  0.00000000000E+00  0.00000000000E+00  0.61257601163E+03  0.61257601163E+03  0.00000000000E+00 0. -1.
         21   -1    0    0  501  503 -0.00000000000E+00 -0.00000000000E+00 -0.71612459728E+02  0.71612459728E+02  0.00000000000E+00 0. -1.
          6    2    1    2  501    0  0.77000679008E+02  0.47721920118E+02  0.14188391645E+03  0.24040383355E+03  0.17162887639E+03 0.  0.
         24    2    3    3    0    0  0.62366055107E+02 -0.27846099653E+02  0.12437271765E+03  0.16132520235E+03  0.76761435124E+02 0.  0.
         -6    2    1    2    0  502 -0.77000679008E+02 -0.47721920118E+02  0.39907963545E+03  0.44378463781E+03  0.17167924481E+03 0.  0.
        -24    2    5    5    0    0  0.20368300044E+00  0.91344615363E+00  0.84817675881E+02  0.11651016340E+03  0.79873050299E+02 0.  0.
          5    1    3    3  501    0  0.14634623901E+02  0.75568019772E+02  0.17511198806E+02  0.79078631201E+02  0.47000000000E+01 0. -1.
        -11    1    4    4    0    0 -0.23444961970E+01 -0.26290909772E+02  0.76187135176E+02  0.80629945835E+02  0.00000000000E+00 0.  1.
         12    1    4    4    0    0  0.64710551304E+02 -0.15551898809E+01  0.48185582472E+02  0.80695256514E+02  0.00000000000E+00 0. -1.
         -5    1    5    5    0  502 -0.77204362009E+02 -0.48635366272E+02  0.31426195956E+03  0.32727447440E+03  0.47000000000E+01 0.  1.
         11    1    6    6    0    0 -0.25334595577E+02 -0.30326334879E+02  0.42988071894E+02  0.58390946605E+02  0.00000000000E+00 0. -1.
        -12    1    6    6    0    0  0.25538278578E+02  0.31239781033E+02  0.41829603987E+02  0.58119216800E+02  0.00000000000E+00 0.  1.
</event>
<event>
12    1  0.8451514E-002  0.1794899E+03  0.7818608E-02  0.1168502E+00
         21   -1    0    0  503  502  0.00000000000E+00  0.00000000000E+00  0.43067804648E+03  0.43067804648E+03  0.00000000000E+00 0.  1.
         21   -1    0    0  501  503 -0.00000000000E+00 -0.00000000000E+00 -0.76747795050E+02  0.76747795050E+02  0.00000000000E+00 0.  1.
          6    2    1    2  501    0  0.42024958923E+02  0.20493490554E+02  0.13270502053E+03  0.22254476353E+03  0.17242235636E+03 0.  0.
         24    2    3    3    0    0  0.73113902600E+02  0.34214245229E+02  0.38546102810E+02  0.12233112517E+03  0.83443662508E+02 0.  0.
         -6    2    1    2    0  502 -0.42024958923E+02 -0.20493490554E+02  0.22122523090E+03  0.28488107800E+03  0.17329323555E+03 0.  0.
        -24    2    5    5    0    0  0.27806256712E+02 -0.37930812227E+02  0.66619978543E+02  0.11427822656E+03  0.80058460485E+02 0.  0.
          5    1    3    3  501    0 -0.31088943677E+02 -0.13720754675E+02  0.94158917723E+02  0.10021363837E+03  0.47000000000E+01 0. -1.
        -11    1    4    4    0    0  0.50559662404E+02 -0.19412503743E+02  0.31873766210E+01  0.54252042668E+02  0.00000000000E+00 0.  1.
         12    1    4    4    0    0  0.22554240196E+02  0.53626748972E+02  0.35358726189E+02  0.68079082498E+02  0.00000000000E+00 0. -1.
         -5    1    5    5    0  502 -0.69831215635E+02  0.17437321673E+02  0.15460525236E+03  0.17060285144E+03  0.47000000000E+01 0.  1.
         13    1    6    6    0    0  0.56884643608E+01 -0.39410220264E+02 -0.42287934053E+01  0.40042562127E+02  0.00000000000E+00 0. -1.
        -14    1    6    6    0    0  0.22117792352E+02  0.14794080370E+01  0.70848771948E+02  0.74235664429E+02  0.00000000000E+00 0.  1.
</event>
<event>
12    1  0.8451514E-002  0.2396154E+03  0.7818608E-02  0.1120939E+00
         21   -1    0    0  501  502  0.00000000000E+00  0.00000000000E+00  0.15262385499E+04  0.15262385499E+04  0.00000000000E+00 0.  1.
         21   -1    0    0  502  503 -0.00000000000E+00 -0.00000000000E+00 -0.67701968539E+02  0.67701968539E+02  0.00000000000E+00 0. -1.
         -6    2    1    2    0  503  0.10719129417E+03  0.11859441979E+03  0.19522338965E+03  0.30907557774E+03  0.17849630511E+03 0.  0.
        -24    2    3    3    0    0  0.66281529546E+02  0.12081676005E+03  0.64508281877E+02  0.17200961902E+03  0.80225058038E+02 0.  0.
          6    2    1    2  501    0 -0.10719129417E+03 -0.11859441979E+03  0.12633131917E+04  0.12848649407E+04  0.17135660345E+03 0.  0.
         24    2    5    5    0    0 -0.18113972195E+02 -0.83925453386E+02  0.41899751210E+03  0.43514277237E+03  0.80116911353E+02 0.  0.
          5    1    5    5  501    0 -0.89077321974E+02 -0.34668966402E+02  0.84431567958E+03  0.84972216830E+03  0.47000000000E+01 0. -1.
        -11    1    6    6    0    0 -0.39186534052E+02 -0.81056713690E+02  0.26951669351E+03  0.28415668806E+03  0.00000000000E+00 0.  1.
         12    1    6    6    0    0  0.21072561857E+02 -0.28687396953E+01  0.14948081858E+03  0.15098608431E+03  0.00000000000E+00 0. -1.
         -5    1    3    3    0  503  0.40909764623E+02 -0.22223402653E+01  0.13071510778E+03  0.13706595872E+03  0.47000000000E+01 0.  1.
         13    1    4    4    0    0 -0.17087591955E+02  0.10854308605E+02  0.14624761920E+01  0.20296321113E+02  0.00000000000E+00 0. -1.
        -14    1    4    4    0    0  0.83369121501E+02  0.10996245145E+03  0.63045805685E+02  0.15171329791E+03  0.00000000000E+00 0.  1.
</event>
<event>
12    1  0.8451514E-002  0.1900516E+03  0.7818608E-02  0.1158943E+00
         21   -1    0    0  501  502  0.00000000000E+00  0.00000000000E+00  0.65242805195E+03  0.65242805195E+03  0.00000000000E+00 0.  1.
         21   -1    0    0  502  503 -0.00000000000E+00 -0.00000000000E+00 -0.75113681096E+02  0.75113681096E+02  0.00000000000E+00 0.  1.
         -6    2    1    2    0  503  0.61632512985E+02 -0.48237592942E+02  0.97657687177E+02  0.21160556251E+03  0.17062959353E+03 0.  0.
        -24    2    3    3    0    0  0.89698746055E+02 -0.70826882867E+02  0.10403007787E+03  0.17471807382E+03  0.81497459086E+02 0.  0.
          6    2    1    2  501    0 -0.61632512985E+02  0.48237592942E+02  0.47965668368E+03  0.51593617054E+03  0.17318823818E+03 0.  0.
         24    2    5    5    0    0 -0.88827269358E+02  0.44874053703E+02  0.21764232954E+03  0.25245091489E+03  0.80369872116E+02 0.  0.
          5    1    5    5  501    0  0.27194756374E+02  0.33635392390E+01  0.26201435414E+03  0.26348525565E+03  0.47000000000E+01 0. -1.
        -13    1    6    6    0    0 -0.10183676269E+02  0.31299405920E+02  0.12918990597E+03  0.13331688519E+03  0.00000000000E+00 0.  1.
         14    1    6    6    0    0 -0.78643593089E+02  0.13574647782E+02  0.88452423572E+02  0.11913402970E+03  0.00000000000E+00 0. -1.
         -5    1    3    3    0  503 -0.28066233070E+02  0.22589289925E+02 -0.63723906978E+01  0.36887488682E+02  0.47000000000E+01 0.  1.
         13    1    4    4    0    0  0.19395464440E+02  0.13924555365E+02  0.96708810010E+00  0.23895868729E+02  0.00000000000E+00 0. -1.
        -14    1    4    4    0    0  0.70303281615E+02 -0.84751438232E+02  0.10306298977E+03  0.15082220509E+03  0.00000000000E+00 0.  1.
</event>
<event>
12    1  0.8451514E-002  0.2529254E+03  0.7818608E-02  0.1111900E+00
         21   -1    0    0  501  502  0.00000000000E+00  0.00000000000E+00  0.30199378166E+03  0.30199378166E+03  0.00000000000E+00 0. -1.
         21   -1    0    0  502  503 -0.00000000000E+00 -0.00000000000E+00 -0.23741777361E+03  0.23741777361E+03  0.00000000000E+00 0. -1.
         -6    2    1    2    0  503  0.15424222413E+02 -0.18058035325E+03 -0.59984071775E+02  0.25994104871E+03  0.17642020668E+03 0.  0.
        -24    2    3    3    0    0 -0.11957989545E+02 -0.18798461830E+03 -0.85201929214E+02  0.22169658498E+03  0.80054961233E+02 0.  0.
          6    2    1    2  501    0 -0.15424222413E+02  0.18058035325E+03  0.12456007983E+03  0.27947050655E+03  0.17245689296E+03 0.  0.
         24    2    5    5    0    0  0.10470013429E+02  0.29181613959E+02  0.92877571270E+01  0.87371864990E+02  0.81156592985E+02 0.  0.
          5    1    5    5  501    0 -0.25894235842E+02  0.15139873929E+03  0.11527232270E+03  0.19209864156E+03  0.47000000000E+01 0. -1.
        -11    1    6    6    0    0  0.29638182136E+02  0.28877966313E+02  0.35757177393E+02  0.54689436949E+02  0.00000000000E+00 0.  1.
         12    1    6    6    0    0 -0.19168168707E+02  0.30364764555E+00 -0.26469420266E+02  0.32682428041E+02  0.00000000000E+00 0. -1.
         -5    1    3    3    0  503  0.27382211958E+02  0.74042650508E+01  0.25217857439E+02  0.38244463737E+02  0.47000000000E+01 0.  1.
         13    1    4    4    0    0 -0.37053372055E+02 -0.13011064129E+03 -0.82714681774E+02  0.15856686267E+03  0.00000000000E+00 0. -1.
        -14    1    4    4    0    0  0.25095382510E+02 -0.57873977011E+02 -0.24872474395E+01  0.63129722304E+02  0.00000000000E+00 0.  1.
</event>
<event>
12    1  0.8451514E-002  0.1973075E+03  0.7818608E-02  0.1152387E+00
         21   -1    0    0  503  502  0.00000000000E+00  0.00000000000E+00  0.72601956755E+03  0.72601956755E+03  0.00000000000E+00 0. -1.
         21   -1    0    0  501  503 -0.00000000000E+00 -0.00000000000E+00 -0.16466566461E+03  0.16466566461E+03  0.00000000000E+00 0.  1.
          6    2    1    2  501    0 -0.38787803122E+02 -0.72822318900E+02 -0.85391148386E+02  0.21499276145E+03  0.17922794272E+03 0.  0.
         24    2    3    3    0    0 -0.48293732588E+02 -0.10607872711E+03 -0.10329096909E+03  0.17576464699E+03  0.81481322297E+02 0.  0.
         -6    2    1    2    0  502  0.38787803122E+02  0.72822318900E+02  0.64674505132E+03  0.67569247071E+03  0.17740791913E+03 0.  0.
        -24    2    5    5    0    0  0.23071937110E+02  0.33957283540E+00  0.53533195084E+03  0.54176821645E+03  0.80000457330E+02 0.  0.
          5    1    3    3  501    0  0.95059294664E+01  0.33256408214E+02  0.17899820704E+02  0.39228114454E+02  0.47000000000E+01 0. -1.
        -13    1    4    4    0    0 -0.16304869499E+02 -0.10379835898E+03 -0.57251448900E+02  0.11965649375E+03  0.00000000000E+00 0.  1.
         14    1    4    4    0    0 -0.31988863089E+02 -0.22803681349E+01 -0.46039520189E+02  0.56108153238E+02  0.00000000000E+00 0. -1.
         -5    1    5    5    0  502  0.15715866012E+02  0.72482746064E+02  0.11141310048E+03  0.13392425426E+03  0.47000000000E+01 0.  1.
         11    1    6    6    0    0 -0.14623343839E+02  0.25820946569E+02  0.33606845605E+03  0.33737600777E+03  0.00000000000E+00 0. -1.
        -12    1    6    6    0    0  0.37695280948E+02 -0.25481373733E+02  0.19926349479E+03  0.20439220868E+03  0.00000000000E+00 0.  1.
</event>
<event>
12    1  0.8451514E-002  0.2225881E+03  0.7818608E-02  0.1132000E+00
         21   -1    0    0  503  502  0.00000000000E+00  0.00000000000E+00  0.21263243925E+03  0.21263243925E+03  0.00000000000E+00 0. -1.
         21   -1    0    0  501  503 -0.00000000000E+00 -0.00000000000E+00 -0.23318008545E+03  0.23318008545E+03  0.00000000000E+00 0. -1.
          6    2    1    2  501    0  0.94914167955E+02  0.10658798487E+03 -0.18903655492E+02  0.22338940395E+03  0.17080919123E+03 0.  0.
         24    2    3    3    0    0  0.31094413314E+02  0.10520515869E+03  0.33857336487E+02  0.14043950603E+03  0.80882307493E+02 0.  0.
         -6    2    1    2    0  502 -0.94914167955E+02 -0.10658798487E+03 -0.16439907089E+01  0.22242312074E+03  0.17058617804E+03 0.  0.
        -24    2    5    5    0    0 -0.11120684359E+03 -0.10483708388E+03 -0.42847865160E+02  0.17783202069E+03  0.80190472110E+02 0.  0.
          5    1    3    3  501    0  0.63819754641E+02  0.13828261780E+01 -0.52760991978E+02  0.82949897921E+02  0.47000000000E+01 0. -1.
        -11    1    4    4    0    0 -0.26462727687E+02  0.49252909278E+02  0.16733159785E+02  0.58362005323E+02  0.00000000000E+00 0.  1.
         12    1    4    4    0    0  0.57557141001E+02  0.55952249415E+02  0.17124176701E+02  0.82077500708E+02  0.00000000000E+00 0. -1.
         -5    1    5    5    0  502  0.16292675637E+02 -0.17509009956E+01  0.41203874452E+02  0.44591100048E+02  0.47000000000E+01 0.  1.
         11    1    6    6    0    0 -0.49287121046E+02 -0.39477340245E+02  0.22006103198E+02  0.66872634700E+02  0.00000000000E+00 0. -1.
        -12    1    6    6    0    0 -0.61919722545E+02 -0.65359743631E+02 -0.64853968359E+02  0.11095938599E+03  0.00000000000E+00 0.  1.
</event>
<event>
12    1  0.8451514E-002  0.1759599E+03  0.7818608E-02  0.1171787E+00
         21   -1    0    0  501  502  0.00000000000E+00  0.00000000000E+00  0.14543337606E+03  0.14543337606E+03  0.00000000000E+00 0. -1.
         21   -1    0    0  502  503 -0.00000000000E+00 -0.00000000000E+00 -0.27803424782E+03  0.27803424782E+03  0.00000000000E+00 0. -1.
         -6    2    1    2    0  503 -0.22800877993E+02 -0.25899949514E+02 -0.16883890555E+03  0.24381498123E+03  0.17247748150E+03 0.  0.
        -24    2    3    3    0    0 -0.58120758713E+02 -0.69131971910E+02 -0.11522574035E+03  0.16627168225E+03  0.78816552479E+02 0.  0.
          6    2    1    2  501    0  0.22800877993E+02  0.25899949514E+02  0.36238033795E+02  0.17965264265E+03  0.17254329745E+03 0.  0.
         24    2    5    5    0    0  0.17476908163E+02  0.53595245341E+02  0.82867457720E+02  0.12495559299E+03  0.74625679414E+02 0.  0.
          5    1    5    5  501    0  0.53239698301E+01 -0.27695295827E+02 -0.46629423925E+02  0.54697049658E+02  0.47000000000E+01 0. -1.
        -13    1    6    6    0    0  0.43919010202E+02  0.47680397902E+02  0.68404708201E+02  0.94241731230E+02  0.00000000000E+00 0.  1.
         14    1    6    6    0    0 -0.26442102038E+02  0.59148474389E+01  0.14462749519E+02  0.30713861758E+02  0.00000000000E+00 0. -1.
         -5    1    3    3    0  503  0.35319880720E+02  0.43232022396E+02 -0.53613165201E+02  0.77543298984E+02  0.47000000000E+01 0.  1.
         11    1    4    4    0    0  0.10757418792E+02 -0.15753885355E+02 -0.60347656451E+02  0.63290967776E+02  0.00000000000E+00 0. -1.
        -12    1    4    4    0    0 -0.68878177505E+02 -0.53378086555E+02 -0.54878083899E+02  0.10298071447E+03  0.00000000000E+00 0.  1.
</event>
<event>
12    1  0.8451514E-002  0.2121666E+03  0.7818608E-02  0.1140219E+00
         21   -1    0    0  503  502  0.00000000000E+00  0.00000000000E+00  0.28949843198E+03  0.28949843198E+03  0.00000000000E+00 0.  1.
         21   -1    0    0  501  503 -0.00000000000E+00 -0.00000000000E+00 -0.21446010365E+03  0.21446010365E+03  0.00000000000E+00 0. -1.
          6    2    1    2  501    0 -0.87738896488E+02 -0.88726888908E+02 -0.95975721133E+02  0.23286476023E+03  0.17159278172E+03 0.  0.
         24    2    3    3    0    0 -0.70632583397E+02  0.15343505985E+02 -0.46484779962E+02  0.11626837822E+03  0.78314213215E+02 0.  0.
         -6    2    1    2    0  502  0.87738896488E+02  0.88726888908E+02  0.17101404946E+03  0.27109377540E+03  0.16933828620E+03 0.  0.
        -24    2    5    5    0    0  0.30561838363E+02  0.38074551880E+02  0.12343004476E+02  0.94930596100E+02  0.80472174392E+02 0.  0.
          5    1    3    3  501    0 -0.17106313091E+02 -0.10407039489E+03 -0.49490941171E+02  0.11659638201E+03  0.47000000000E+01 0. -1.
        -11    1    4    4    0    0 -0.12493476221E+02 -0.26910665889E+02  0.17340226421E+01  0.29719988580E+02  0.00000000000E+00 0.  1.
         12    1    4    4    0    0 -0.58139107176E+02  0.42254171874E+02 -0.48218802604E+02  0.86548389636E+02  0.00000000000E+00 0. -1.
         -5    1    5    5    0  502  0.57177058124E+02  0.50652337029E+02  0.15867104499E+03  0.17616317930E+03  0.47000000000E+01 0.  1.
         11    1    6    6    0    0  0.29935999793E+02 -0.61903694578E+01 -0.23022765303E+02  0.38269210598E+02  0.00000000000E+00 0. -1.
        -12    1    6    6    0    0  0.62583857051E+00  0.44264921337E+02  0.35365769779E+02  0.56661385502E+02  0.00000000000E+00 0.  1.
</event>
<event>
12    1  0.8451514E-002  0.1766356E+03  0.7818608E-02  0.1171446E+00
         21   -1    0    0  501  502  0.00000000000E+00  0.00000000000E+00  0.31898921995E+02  0.31898921995E+02  0.00000000000E+00 0. -1.
         21   -1    0    0  502  503 -0.00000000000E+00 -0.00000000000E+00 -0.97712650150E+03  0.97712650150E+03  0.00000000000E+00 0. -1.
         -6    2    1    2    0  503 -0.28947499524E+02 -0.27271704629E+02 -0.42891012165E+03  0.46332967903E+03  0.17067160106E+03 0.  0.
        -24    2    3    3    0    0  0.55991527525E+01 -0.66076336480E+02 -0.34194901383E+03  0.36192161765E+03  0.98288842270E+02 0.  0.
          6    2    1    2  501    0  0.28947499524E+02  0.27271704629E+02 -0.51631745785E+03  0.54569574447E+03  0.17210004256E+03 0.  0.
         24    2    5    5    0    0 -0.34699052038E+02  0.36670042904E+02 -0.41339786545E+03  0.42423075039E+03  0.80778822432E+02 0.  0.
          5    1    5    5  501    0  0.63646551562E+02 -0.93983382750E+01 -0.10291959240E+03  0.12146499408E+03  0.47000000000E+01 0. -1.
        -11    1    6    6    0    0  0.17105852952E+02 -0.14302648551E+02 -0.83846746687E+02  0.86760894939E+02  0.00000000000E+00 0.  1.
         12    1    6    6    0    0 -0.51804904990E+02  0.50972691455E+02 -0.32955111877E+03  0.33746985545E+03  0.00000000000E+00 0. -1.
         -5    1    3    3    0  503 -0.34546652276E+02  0.38804631851E+02 -0.86961107827E+02  0.10140806137E+03  0.47000000000E+01 0.  1.
         11    1    4    4    0    0 -0.35127727045E+02 -0.24669647086E+02 -0.24635922184E+03  0.25007081973E+03  0.00000000000E+00 0. -1.
        -12    1    4    4    0    0  0.40726879797E+02 -0.41406689394E+02 -0.95589791990E+02  0.11185079793E+03  0.00000000000E+00 0.  1.
</event>
<event>
12    1  0.8451514E-002  0.2356910E+03  0.7818608E-02  0.1123716E+00
         21   -1    0    0  503  502  0.00000000000E+00  0.00000000000E+00  0.21857678641E+03  0.21857678641E+03  0.00000000000E+00 0.  1.
         21   -1    0    0  501  503 -0.00000000000E+00 -0.00000000000E+00 -0.47298012534E+03  0.47298012534E+03  0.00000000000E+00 0.  1.
          6    2    1    2  501    0  0.35214617315E+02 -0.14848013401E+03 -0.36491707206E+03  0.43124264916E+03  0.17181191316E+03 0.  0.
         24    2    3    3    0    0  0.73106259809E+02 -0.11772336445E+03 -0.34109034317E+03  0.37673064632E+03  0.79875164522E+02 0.  0.
         -6    2    1    2    0  502 -0.35214617315E+02  0.14848013401E+03  0.11051373314E+03  0.26031426259E+03  0.17962129781E+03 0.  0.
        -24    2    5    5    0    0 -0.60694639854E+02  0.15060875715E+03  0.13409883334E+03  0.22521284472E+03  0.79821621666E+02 0.  0.
          5    1    3    3  501    0 -0.37891642494E+02 -0.30756769555E+02 -0.23826728888E+02  0.54512002842E+02  0.47000000000E+01 0. -1.
        -13    1    4    4    0    0  0.57775265486E+02 -0.94078039114E+02 -0.16582959430E+03  0.19921875687E+03  0.00000000000E+00 0.  1.
         14    1    4    4    0    0  0.15330994322E+02 -0.23645325338E+02 -0.17526074888E+03  0.17751188944E+03  0.00000000000E+00 0. -1.
         -5    1    5    5    0  502  0.25480022539E+02 -0.21286231426E+01 -0.23585100201E+02  0.35101417871E+02  0.47000000000E+01 0.  1.
         13    1    6    6    0    0 -0.19617406411E+02  0.34182800893E+02  0.82448658967E+02  0.91384286814E+02  0.00000000000E+00 0. -1.
        -14    1    6    6    0    0 -0.41077233443E+02  0.11642595626E+03  0.51650174373E+02  0.13382855790E+03  0.00000000000E+00 0.  1.
</event>
<event>
12    1  0.8451514E-002  0.2971609E+03  0.7818608E-02  0.1086937E+00
         21   -1    0    0  503  502  0.00000000000E+00  0.00000000000E+00  0.52149687613E+03  0.52149687613E+03  0.00000000000E+00 0.  1.
         21   -1    0    0  501  503 -0.00000000000E+00 -0.00000000000E+00 -0.26147610630E+03  0.26147610630E+03  0.00000000000E+00 0.  1.
          6    2    1    2  501    0  0.87247667322E+02  0.22334205341E+03 -0.10360579369E+03  0.31470427679E+03  0.17553003466E+03 0.  0.
         24    2    3    3    0    0  0.74122389595E+02  0.10457399189E+03 -0.12073677372E+03  0.19389994809E+03  0.81178648206E+02 0.  0.
         -6    2    1    2    0  502 -0.87247667322E+02 -0.22334205341E+03  0.36362656352E+03  0.46826870564E+03  0.17192287430E+03 0.  0.
        -24    2    5    5    0    0 -0.34533595714E+02 -0.22560951931E+03  0.29439622218E+03  0.38109735192E+03  0.80460124100E+02 0.  0.
          5    1    3    3  501    0  0.13125277728E+02  0.11876806153E+03  0.17130980030E+02  0.12080432869E+03  0.47000000000E+01 0. -1.
        -13    1    4    4    0    0  0.64354043400E+02  0.92980144814E+02 -0.53720768688E+02  0.12519053966E+03  0.00000000000E+00 0.  1.
         14    1    4    4    0    0  0.97683461947E+01  0.11593847071E+02 -0.67016005028E+02  0.68709408433E+02  0.00000000000E+00 0. -1.
         -5    1    5    5    0  502 -0.52714071608E+02  0.22674659000E+01  0.69230341340E+02  0.87171353719E+02  0.47000000000E+01 0.  1.
         13    1    6    6    0    0  0.35190980514E+01 -0.81271769505E+02  0.52388813656E+02  0.96757802610E+02  0.00000000000E+00 0. -1.
        -14    1    6    6    0    0 -0.38052693766E+02 -0.14433774981E+03  0.24200740853E+03  0.28433954931E+03  0.00000000000E+00 0.  1.
</event>
<event>
12    1  0.8451514E-002  0.1992408E+03  0.7818608E-02  0.1150665E+00
         21   -1    0    0  501  502  0.00000000000E+00  0.00000000000E+00  0.19262706260E+04  0.19262706260E+04  0.00000000000E+00 0.  1.
         21   -1    0    0  502  503 -0.00000000000E+00 -0.00000000000E+00 -0.23957456470E+02  0.23957456470E+02  0.00000000000E+00 0.  1.
         -6    2    1    2    0  503  0.82047512930E+02 -0.54809098190E+02  0.13204377661E+04  0.13351867035E+04  0.17155700972E+03 0.  0.
        -24    2    3    3    0    0  0.61541741306E+02 -0.32714631709E+02  0.39545898379E+03  0.40970494261E+03  0.81318503969E+02 0.  0.
          6    2    1    2  501    0 -0.82047512930E+02  0.54809098190E+02  0.58187540347E+03  0.61504137896E+03  0.17309269494E+03 0.  0.
         24    2    5    5    0    0 -0.10556982571E+03  0.18335838313E+02  0.27719999472E+03  0.30725445171E+03  0.78001730474E+02 0.  0.
          5    1    5    5  501    0  0.23522312778E+02  0.36473259877E+02  0.30467540875E+03  0.30778692725E+03  0.47000000000E+01 0. -1.
        -11    1    6    6    0    0 -0.34597515774E+02  0.79030108558E+00  0.19152414706E+03  0.19462556764E+03  0.00000000000E+00 0.  1.
         12    1    6    6    0    0 -0.70972309935E+02  0.17545537227E+02  0.85675847659E+02  0.11262888407E+03  0.00000000000E+00 0. -1.
         -5    1    3    3    0  503  0.20505771625E+02 -0.22094466481E+02  0.92497878227E+03  0.92548176090E+03  0.47000000000E+01 0.  1.
         11    1    4    4    0    0 -0.19328383674E+02 -0.95486813718E+01  0.56781008667E+02  0.60735876355E+02  0.00000000000E+00 0. -1.
        -12    1    4    4    0    0  0.80870124979E+02 -0.23165950337E+02  0.33867797513E+03  0.34896906626E+03  0.00000000000E+00 0.  1.
</event>
<event>
12    1  0.8451514E-002  0.1903897E+03  0.7818608E-02  0.1158250E+00
         21   -1    0    0  503  502  0.00000000000E+00  0.00000000000E+00  0.52179998331E+03  0.52179998331E+03  0.00000000000E+00 0. -1.
         21   -1    0    0  501  503 -0.00000000000E+00 -0.00000000000E+00 -0.11574394836E+03  0.11574394836E+03  0.00000000000E+00 0. -1.
          6    2    1    2  501    0  0.80674470377E+02  0.23400124557E+01  0.11725704461E+01  0.19039334287E+03  0.17243666739E+03 0.  0.
         24    2    3    3    0    0  0.11136108460E+03  0.29439062964E+01 -0.35989132266E+02  0.14196695411E+03  0.80308409706E+02 0.  0.
         -6    2    1    2    0  502 -0.80674470377E+02 -0.23400124557E+01  0.40488346450E+03  0.44715058880E+03  0.17175326316E+03 0.  0.
        -24    2    5    5    0    0 -0.53313604169E+02 -0.10552566583E+02  0.92065346271E+02  0.13299564591E+03  0.79108259981E+02 0.  0.
          5    1    3    3  501    0 -0.30686614225E+02 -0.60389384070E+00  0.37161702712E+02  0.48426388766E+02  0.47000000000E+01 0. -1.
        -13    1    4    4    0    0  0.57448126870E+02 -0.13738203733E+02  0.20105710873E+02  0.62396034589E+02  0.00000000000E+00 0.  1.
         14    1    4    4    0    0  0.53912957733E+02  0.16682110030E+02 -0.56094843139E+02  0.79570919521E+02  0.00000000000E+00 0. -1.
         -5    1    5    5    0  502 -0.27360866209E+02  0.82125541269E+01  0.31281811823E+03  0.31415494288E+03  0.47000000000E+01 0.  1.
         13    1    6    6    0    0 -0.45293249992E+02 -0.26854798572E+02  0.10011961705E+03  0.11312204215E+03  0.00000000000E+00 0. -1.
        -14    1    6    6    0    0 -0.80203541767E+01  0.16302231989E+02 -0.80542707785E+01  0.19873603768E+02  0.00000000000E+00 0.  1.
</event>
<event>
12    1  0.8451514E-002  0.1890110E+03  0.7818608E-02  0.1160620E+00
         21   -1    0    0  501  502  0.00000000000E+00  0.00000000000E+00  0.26217492263E+03  0.26217492263E+03  0.00000000000E+00 0. -1.
         21   -1    0    0  502  503 -0.00000000000E+00 -0.00000000000E+00 -0.17731094310E+03  0.17731094310E+03  0.00000000000E+00 0. -1.
         -6    2    1    2    0  503 -0.45473100033E+02  0.64644039223E+02 -0.68688193289E+02  0.19596288547E+03  0.16564036329E+03 0.  0.
        -24    2    3    3    0    0  0.18230210958E+02  0.55761619329E+02 -0.82965801214E+02  0.12991026022E+03  0.80942280401E+02 0.  0.
          6    2    1    2  501    0  0.45473100033E+02 -0.64644039223E+02  0.15355217282E+03  0.24352298026E+03  0.17169309102E+03 0.  0.
         24    2    5    5    0    0  0.37474056592E+01 -0.46480805037E+02  0.12147861457E+02  0.94901965870E+02  0.81757594766E+02 0.  0.
          5    1    5    5  501    0  0.41725694373E+02 -0.18163234186E+02  0.14140431136E+03  0.14862101439E+03  0.47000000000E+01 0. -1.
        -11    1    6    6    0    0  0.27629403401E+02 -0.27576776935E+02 -0.25385582224E+02  0.46564904631E+02  0.00000000000E+00 0.  1.
         12    1    6    6    0    0 -0.23881997742E+02 -0.18904028103E+02  0.37533443681E+02  0.48337061239E+02  0.00000000000E+00 0. -1.
         -5    1    3    3    0  503 -0.63703310991E+02  0.88824198939E+01  0.14277607925E+02  0.66052625250E+02  0.47000000000E+01 0.  1.
         11    1    4    4    0    0 -0.82510408915E+01  0.67781334108E+02 -0.70874440561E+02  0.98415320221E+02  0.00000000000E+00 0. -1.
        -12    1    4    4    0    0  0.26481251850E+02 -0.12019714779E+02 -0.12091360653E+02  0.31494939996E+02  0.00000000000E+00 0.  1.
</event>
<event>
12    1  0.8451514E-002  0.2089244E+03  0.7818608E-02  0.1142423E+00
         21   -1    0    0  503  502  0.00000000000E+00  0.00000000000E+00  0.27522835497E+03  0.27522835497E+03  0.00000000000E+00 0. -1.
         21   -1    0    0  501  503 -0.00000000000E+00 -0.00000000000E+00 -0.29810777668E+03  0.29810777668E+03  0.00000000000E+00 0.  1.
          6    2    1    2  501    0  0.77229191564E+02  0.89837434284E+02 -0.20755774857E+03  0.29449890257E+03  0.17208797748E+03 0.  0.
         24    2    3    3    0    0  0.10161073503E+03  0.90759076262E+02 -0.21696499223E+03  0.26793021199E+03  0.78427286358E+02 0.  0.
         -6    2    1    2    0  502 -0.77229191564E+02 -0.89837434284E+02  0.18467832686E+03  0.27883722909E+03  0.17207266862E+03 0.  0.
        -24    2    5    5    0    0  0.20736063656E+02 -0.37945399592E+02  0.11468820996E+03  0.14764774415E+03  0.82320308329E+02 0.  0.
          5    1    3    3  501    0 -0.24381543468E+02 -0.92164197750E+00  0.94072436566E+01  0.26568690578E+02  0.47000000000E+01 0. -1.
        -11    1    4    4    0    0  0.96423575964E+02  0.37722659793E+02 -0.15182385703E+03  0.18376884564E+03  0.00000000000E+00 0.  1.
         12    1    4    4    0    0  0.51871590689E+01  0.53036416469E+02 -0.65141135200E+02  0.84161366352E+02  0.00000000000E+00 0. -1.
         -5    1    5    5    0  502 -0.97965255220E+02 -0.51892034692E+02  0.69990116899E+02  0.13118948494E+03  0.47000000000E+01 0.  1.
         13    1    6    6    0    0  0.13714506352E+02  0.12173571716E+02  0.89044453595E+02  0.90913135733E+02  0.00000000000E+00 0. -1.
        -14    1    6    6    0    0  0.70215573035E+01 -0.50118971308E+02  0.25643756363E+02  0.56734608418E+02  0.00000000000E+00 0.  1.
</event>
<event>
12    1  0.8451514E-002  0.2388690E+03  0.7818608E-02  0.1121956E+00
         21   -1    0    0  503  502  0.00000000000E+00  0.00000000000E+00  0.17072777491E+03  0.17072777491E+03  0.00000000000E+00 0. -1.
         21   -1    0    0  501  503 -0.00000000000E+00 -0.00000000000E+00 -0.38064427552E+03  0.38064427552E+03  0.00000000000E+00 0.  1.
          6    2    1    2  501    0 -0.15418853996E+03  0.55053680009E+02 -0.21087491056E+03  0.31250111727E+03  0.16243062166E+03 0.  0.
         24    2    3    3    0    0 -0.94132444503E+02 -0.23350398088E+02 -0.16102383848E+03  0.20177102447E+03  0.73326063290E+02 0.  0.
         -6    2    1    2    0  502  0.15418853996E+03 -0.55053680009E+02  0.95840994905E+00  0.23887093316E+03  0.17393501839E+03 0.  0.
        -24    2    5    5    0    0  0.14948784211E+03 -0.45808719657E+02  0.54894963824E+02  0.18374555157E+03  0.79397209845E+02 0.  0.
          5    1    3    3  501    0 -0.60056095458E+02  0.78404078097E+02 -0.49851072084E+02  0.11073009280E+03  0.47000000000E+01 0. -1.
        -11    1    4    4    0    0 -0.20214829562E+02  0.20418797832E+02 -0.15150038850E+02  0.32482153812E+02  0.00000000000E+00 0.  1.
         12    1    4    4    0    0 -0.73917614942E+02 -0.43769195920E+02 -0.14587379963E+03  0.16928887066E+03  0.00000000000E+00 0. -1.
         -5    1    5    5    0  502  0.47006978484E+01 -0.92449603520E+01 -0.53936553875E+02  0.55125381596E+02  0.47000000000E+01 0.  1.
         11    1    6    6    0    0  0.47314582924E+02 -0.54183891615E+02  0.31856651925E+02  0.78672804321E+02  0.00000000000E+00 0. -1.
        -12    1    6    6    0    0  0.10217325919E+03  0.83751719587E+01  0.23038311899E+02  0.10507274725E+03  0.00000000000E+00 0.  1.
</event>
<event>
12    1  0.8451514E-002  0.2151116E+03  0.7818608E-02  0.1137667E+00
         21   -1    0    0  501  502  0.00000000000E+00  0.00000000000E+00  0.25576362002E+04  0.25576362002E+04  0.00000000000E+00 0.  1.
         21   -1    0    0  502  503 -0.00000000000E+00 -0.00000000000E+00 -0.46351914434E+02  0.46351914434E+02  0.00000000000E+00 0.  1.
         -6    2    1    2    0  503 -0.20178362923E+02 -0.12660335038E+03  0.23885197281E+03  0.32143939642E+03  0.17273519038E+03 0.  0.
        -24    2    3    3    0    0 -0.63322493799E+02 -0.49373015565E+02  0.20592912866E+03  0.22693043223E+03  0.51411887304E+02 0.  0.
          6    2    1    2  501    0  0.20178362923E+02  0.12660335038E+03  0.22724323130E+04  0.22825487182E+04  0.17217566443E+03 0.  0.
         24    2    5    5    0    0  0.12722416369E+02 -0.20099561181E+02  0.82234910443E+03  0.82503688738E+03  0.62144699986E+02 0.  0.
          5    1    5    5  501    0  0.74559465545E+01  0.14670291156E+03  0.14500832085E+04  0.14575118308E+04  0.47000000000E+01 0. -1.
        -11    1    6    6    0    0 -0.14001439234E+02 -0.11922324225E+02  0.77056546501E+02  0.79220536947E+02  0.00000000000E+00 0.  1.
         12    1    6    6    0    0  0.26723855603E+02 -0.81772369558E+01  0.74529255793E+03  0.74581635043E+03  0.00000000000E+00 0. -1.
         -5    1    3    3    0  503  0.43144130875E+02 -0.77230334815E+02  0.32922844157E+02  0.94508964188E+02  0.47000000000E+01 0.  1.
         13    1    4    4    0    0 -0.18563159851E+02  0.47606399710E+01  0.17953778063E+02  0.26260097931E+02  0.00000000000E+00 0. -1.
        -14    1    4    4    0    0 -0.44759333947E+02 -0.54133655536E+02  0.18797535059E+03  0.20067033430E+03  0.00000000000E+00 0.  1.
</event>
<event>
12    1  0.8451514E-002  0.1912465E+03  0.7818608E-02  0.1157401E+00
         21   -1    0    0  501  502  0.00000000000E+00  0.00000000000E+00  0.74871362478E+03  0.74871362478E+03  0.00000000000E+00 0. -1.
         21   -1    0    0  502  503 -0.00000000000E+00 -0.00000000000E+00 -0.85465082038E+02  0.85465082038E+02  0.00000000000E+00 0.  1.
         -6    2    1    2    0  503  0.45218462397E+02  0.67372831371E+02  0.58244775837E+02  0.19966724900E+03  0.17288941166E+03 0.  0.
        -24    2    3    3    0    0  0.81128067729E+02  0.85187025038E+02  0.67857452818E+02  0.15817822865E+03  0.81099479080E+02 0.  0.
          6    2    1    2  501    0 -0.45218462397E+02 -0.67372831371E+02  0.60500376691E+03  0.63451145782E+03  0.17318032332E+03 0.  0.
         24    2    5    5    0    0  0.20653536701E+02 -0.61690927978E+02  0.20841026227E+03  0.23241706317E+03  0.79690116441E+02 0.  0.
          5    1    5    5  501    0 -0.65871999098E+02 -0.56819033931E+01  0.39659350463E+03  0.40209439465E+03  0.47000000000E+01 0. -1.
        -13    1    6    6    0    0  0.24507514519E+02 -0.59055215383E+02  0.21501970733E+03  0.22432478970E+03  0.00000000000E+00 0.  1.
         14    1    6    6    0    0 -0.38539778182E+01 -0.26357125950E+01 -0.66094450603E+01  0.80922734699E+01  0.00000000000E+00 0. -1.
         -5    1    3    3    0  503 -0.35909605332E+02 -0.17814193667E+02 -0.96126769802E+01  0.41489020353E+02  0.47000000000E+01 0.  1.
         11    1    4    4    0    0  0.34146374641E+02  0.18689072614E+02  0.66134196757E+02  0.76739744050E+02  0.00000000000E+00 0. -1.
        -12    1    4    4    0    0  0.46981693088E+02  0.66497952425E+02  0.17232560610E+01  0.81438484598E+02  0.00000000000E+00 0.  1.
</event>
<event>
12    1  0.8451514E-002  0.1747229E+03  0.7818608E-02  0.1173106E+00
         21   -1    0    0  503  502  0.00000000000E+00  0.00000000000E+00  0.31928580315E+03  0.31928580315E+03  0.00000000000E+00 0.  1.
         21   -1    0    0  501  503 -0.00000000000E+00 -0.00000000000E+00 -0.15639013216E+03  0.15639013216E+03  0.00000000000E+00 0.  1.
          6    2    1    2  501    0  0.30596226874E+02 -0.11919702701E+01 -0.67127225133E+02  0.18681846394E+03  0.17163194406E+03 0.  0.
         24    2    3    3    0    0  0.23873606250E+02 -0.67955928563E+02 -0.39889646582E+02  0.11424715115E+03  0.79203979309E+02 0.  0.
         -6    2    1    2    0  502 -0.30596226874E+02  0.11919702701E+01  0.23002289612E+03  0.28885747137E+03  0.17201905749E+03 0.  0.
        -24    2    5    5    0    0  0.31791199463E+02  0.11885283470E+01  0.58504579344E+02  0.10628470789E+03  0.82834536064E+02 0.  0.
          5    1    3    3  501    0  0.67226206234E+01  0.66763958293E+02 -0.27237578551E+02  0.72571312791E+02  0.47000000000E+01 0. -1.
        -13    1    4    4    0    0  0.15601794897E+02 -0.21346324761E+01 -0.45035144193E+02  0.47708876242E+02  0.00000000000E+00 0.  1.
         14    1    4    4    0    0  0.82718113536E+01 -0.65821296087E+02  0.51454976108E+01  0.66538274905E+02  0.00000000000E+00 0. -1.
         -5    1    5    5    0  502 -0.62387426336E+02  0.34419231808E-02  0.17151831677E+03  0.18257276348E+03  0.47000000000E+01 0.  1.
         13    1    6    6    0    0  0.50106133565E+02  0.23980296737E+02  0.52506790681E+02  0.76437178912E+02  0.00000000000E+00 0. -1.
        -14    1    6    6    0    0 -0.18314934102E+02 -0.22791768390E+02  0.59977886635E+01  0.29847528982E+02  0.00000000000E+00 0.  1.
</event>
<event>
12    1  0.8451514E-002  0.1874941E+03  0.7818608E-02  0.1161118E+00
         21   -1    0    0  501  502  0.00000000000E+00  0.00000000000E+00  0.65293682096E+03  0.65293682096E+03  0.00000000000E+00 0. -1.
         21   -1    0    0  502  503 -0.00000000000E+00 -0.00000000000E+00 -0.11183610346E+03  0.11183610346E+03  0.00000000000E+00 0. -1.
         -6    2    1    2    0  503  0.72043062517E+02  0.16384159659E+02 -0.53593934140E+01  0.18757067295E+03  0.17232350596E+03 0.  0.
        -24    2    3    3    0    0  0.46098072848E+01 -0.46483463581E+02 -0.22895048082E+02  0.93607003649E+02  0.77821110219E+02 0.  0.
          6    2    1    2  501    0 -0.72043062517E+02 -0.16384159659E+02  0.54646011091E+03  0.57720225148E+03  0.17054366817E+03 0.  0.
         24    2    5    5    0    0 -0.11682938989E+02 -0.58945922586E+02  0.40645040298E+03  0.41883667286E+03  0.81308767050E+02 0.  0.
          5    1    5    5  501    0 -0.60360123529E+02  0.42561762927E+02  0.14000970793E+03  0.15836557862E+03  0.47000000000E+01 0. -1.
        -13    1    6    6    0    0  0.72885743515E+01  0.18781410504E+02  0.60949643087E+02  0.64192863225E+02  0.00000000000E+00 0.  1.
         14    1    6    6    0    0 -0.18971513340E+02 -0.77727333090E+02  0.34550075989E+03  0.35464380964E+03  0.00000000000E+00 0. -1.
         -5    1    3    3    0  503  0.67433255233E+02  0.62867623240E+02  0.17535654668E+02  0.93963669297E+02  0.47000000000E+01 0.  1.
         13    1    4    4    0    0 -0.79554272349E+01  0.17878549144E+02 -0.19977827060E+02  0.27965065994E+02  0.00000000000E+00 0. -1.
        -14    1    4    4    0    0  0.12565234520E+02 -0.64362012726E+02 -0.29172210220E+01  0.65641937655E+02  0.00000000000E+00 0.  1.
</event>
<event>
12    1  0.8451514E-002  0.1807204E+03  0.7818608E-02  0.1167411E+00
         21   -1    0    0  503  502  0.00000000000E+00  0.00000000000E+00  0.12096672489E+03  0.12096672489E+03  0.00000000000E+00 0. -1.
         21   -1    0    0  501  503 -0.00000000000E+00 -0.00000000000E+00 -0.26816726639E+03  0.26816726639E+03  0.00000000000E+00 0. -1.
          6    2    1    2  501    0 -0.31989564966E+02  0.35063233115E+02 -0.71141566786E+02  0.19421894144E+03  0.17437635191E+03 0.  0.
         24    2    3    3    0    0 -0.11917633840E+02 -0.45948547920E+02 -0.17269266813E+02  0.94769930430E+02  0.80186115289E+02 0.  0.
         -6    2    1    2    0  502  0.31989564966E+02 -0.35063233115E+02 -0.76058974710E+02  0.19491504985E+03  0.17307266231E+03 0.  0.
        -24    2    5    5    0    0  0.60576042099E+02  0.14849922028E+02 -0.89360388839E+02  0.13569066847E+03  0.80849869242E+02 0.  0.
          5    1    3    3  501    0 -0.20071931127E+02  0.81011781035E+02 -0.53872299973E+02  0.99449011006E+02  0.47000000000E+01 0. -1.
        -13    1    4    4    0    0  0.18147783827E+02 -0.34055462873E+02  0.21590512790E+02  0.44218399472E+02  0.00000000000E+00 0.  1.
         14    1    4    4    0    0 -0.30065417667E+02 -0.11893085046E+02 -0.38859779603E+02  0.50551530958E+02  0.00000000000E+00 0. -1.
         -5    1    5    5    0  502 -0.28586477133E+02 -0.49913155143E+02  0.13301414128E+02  0.59224381373E+02  0.47000000000E+01 0.  1.
         11    1    6    6    0    0  0.54491437819E+02 -0.24143449999E+02 -0.37105076926E+02  0.70206906406E+02  0.00000000000E+00 0. -1.
        -12    1    6    6    0    0  0.60846042802E+01  0.38993372027E+02 -0.52255311913E+02  0.65483762067E+02  0.00000000000E+00 0.  1.
</event>
<event>
12    1  0.8451514E-002  0.1925110E+03  0.7818608E-02  0.1156326E+00
         21   -1    0    0  503  502  0.00000000000E+00  0.00000000000E+00  0.77106636706E+02  0.77106636706E+02  0.00000000000E+00 0. -1.
         21   -1    0    0  501  503 -0.00000000000E+00 -0.00000000000E+00 -0.80341078365E+03  0.80341078365E+03  0.00000000000E+00 0.  1.
          6    2    1    2  501    0  0.73799945989E+02 -0.44078778170E+02 -0.64245889432E+03  0.67053998771E+03  0.17170053441E+03 0.  0.
         24    2    3    3    0    0  0.57610908455E+02 -0.73222238359E+02 -0.61484380069E+03  0.62699564704E+03  0.80063282485E+02 0.  0.
         -6    2    1    2    0  502 -0.73799945989E+02  0.44078778170E+02 -0.83845252626E+02  0.20997743265E+03  0.17225308450E+03 0.  0.
        -24    2    5    5    0    0 -0.27694000860E+02  0.42135869428E+02  0.20231170796E+02  0.96032160770E+02  0.79186403216E+02 0.  0.
          5    1    3    3  501    0  0.16189037534E+02  0.29143460189E+02 -0.27615093631E+02  0.43544340669E+02  0.47000000000E+01 0. -1.
        -11    1    4    4    0    0 -0.17232581825E+02 -0.27114506989E+02 -0.23043518251E+03  0.23266398884E+03  0.00000000000E+00 0.  1.
         12    1    4    4    0    0  0.74843490279E+02 -0.46107731370E+02 -0.38440861817E+03  0.39433165820E+03  0.00000000000E+00 0. -1.
         -5    1    5    5    0  502 -0.46105945129E+02  0.19429087421E+01 -0.10407642342E+03  0.11394527188E+03  0.47000000000E+01 0.  1.
         13    1    6    6    0    0  0.20290415004E+02 -0.10322071279E+02  0.57154607238E+01  0.23471527173E+02  0.00000000000E+00 0. -1.
        -14    1    6    6    0    0 -0.47984415865E+02  0.52457940707E+02  0.14515710072E+02  0.72560633597E+02  0.00000000000E+00 0.  1.
</event>
<event>
12    1  0.8451514E-002  0.2004337E+03  0.7818608E-02  0.1149524E+00
         21   -1    0    0  503  502  0.00000000000E+00  0.00000000000E+00  0.53634340946E+03  0.53634340946E+03  0.00000000000E+00 0. -1.
         21   -1    0    0  501  503 -0.00000000000E+00 -0.00000000000E+00 -0.13435775072E+03  0.13435775072E+03  0.00000000000E+00 0. -1.
          6    2    1    2  501    0  0.39508032946E+02  0.93417747527E+02 -0.22386567548E+02  0.20167996953E+03  0.17287536401E+03 0.  0.
         24    2    3    3    0    0 -0.26918717944E+02  0.72837064945E+01  0.22928478623E+02  0.83751475652E+02  0.75570660880E+02 0.  0.
         -6    2    1    2    0  502 -0.39508032946E+02 -0.93417747527E+02  0.42437222629E+03  0.46902119065E+03  0.17205037233E+03 0.  0.
        -24    2    5    5    0    0 -0.79380941622E+02 -0.11252642281E+03  0.32359041610E+03  0.35886651040E+03  0.71490455112E+02 0.  0.
          5    1    3    3  501    0  0.66426750890E+02  0.86134041032E+02 -0.45315046171E+02  0.11792849388E+03  0.47000000000E+01 0. -1.
        -13    1    4    4    0    0  0.18951892105E+02  0.96382149037E+01 -0.13450264332E+02  0.25159074139E+02  0.00000000000E+00 0.  1.
         14    1    4    4    0    0 -0.45870610049E+02 -0.23545084092E+01  0.36378742955E+02  0.58592401513E+02  0.00000000000E+00 0. -1.
         -5    1    5    5    0  502  0.39872908676E+02  0.19108675280E+02  0.10078181018E+03  0.11015468025E+03  0.47000000000E+01 0.  1.
         13    1    6    6    0    0 -0.42412213497E+02 -0.45610929822E+02  0.68568790646E+02  0.92632779422E+02  0.00000000000E+00 0. -1.
        -14    1    6    6    0    0 -0.36968728126E+02 -0.66915492985E+02  0.25502162546E+03  0.26623373098E+03  0.00000000000E+00 0.  1.
</event>
<event>
12    1  0.8451514E-002  0.1808740E+03  0.7818608E-02  0.1167051E+00
         21   -1    0    0  501  502  0.00000000000E+00  0.00000000000E+00  0.32195524405E+02  0.32195524405E+02  0.00000000000E+00 0.  1.
         21   -1    0    0  502  503 -0.00000000000E+00 -0.00000000000E+00 -0.14451219186E+04  0.14451219186E+04  0.00000000000E+00 0.  1.
         -6    2    1    2    0  503  0.49618152576E+02  0.24860956399E+02 -0.11093868209E+04  0.11239738599E+04  0.17175008320E+03 0.  0.
        -24    2    3    3    0    0 -0.15985840935E+02 -0.14222571962E+02 -0.31034048505E+03  0.32127307939E+03  0.80295368594E+02 0.  0.
          6    2    1    2  501    0 -0.49618152576E+02 -0.24860956399E+02 -0.30353957334E+03  0.35334358317E+03  0.17214931591E+03 0.  0.
         24    2    5    5    0    0  0.29672967399E+02 -0.40021284283E+02 -0.11233869796E+03  0.14574593869E+03  0.78356284979E+02 0.  0.
          5    1    5    5  501    0 -0.79291119975E+02  0.15160327884E+02 -0.19120087538E+03  0.20759764448E+03  0.47000000000E+01 0. -1.
        -11    1    6    6    0    0 -0.24278644738E+02 -0.26167353111E+02 -0.31702324619E+02  0.47741180813E+02  0.00000000000E+00 0.  1.
         12    1    6    6    0    0  0.53951612138E+02 -0.13853931173E+02 -0.80636373344E+02  0.98004757881E+02  0.00000000000E+00 0. -1.
         -5    1    3    3    0  503  0.65603993511E+02  0.39083528361E+02 -0.79904633585E+03  0.80270078048E+03  0.47000000000E+01 0.  1.
         13    1    4    4    0    0 -0.13142390166E+02  0.26015724251E+02 -0.22499074327E+03  0.22687083304E+03  0.00000000000E+00 0. -1.
        -14    1    4    4    0    0 -0.28434507687E+01 -0.40238296213E+02 -0.85349741785E+02  0.94402246357E+02  0.00000000000E+00 0.  1.
</event>
<event>
12    1  0.8451514E-002  0.2462532E+03  0.7818608E-02  0.1115746E+00
         21   -1    0    0  503  502  0.00000000000E+00  0.00000000000E+00  0.15572875336E+03  0.15572875336E+03  0.00000000000E+00 0. -1.
         21   -1    0    0  501  503 -0.00000000000E+00 -0.00000000000E+00 -0.83731120037E+03  0.83731120037E+03  0.00000000000E+00 0. -1.
          6    2    1    2  501    0 -0.65270856001E+01 -0.17530103088E+03 -0.70424219706E+03  0.74605476634E+03  0.17282241750E+03 0.  0.
         24    2    3    3    0    0 -0.27757148491E+02 -0.14520664401E+03 -0.32788856834E+03  0.36787421219E+03  0.77234020922E+02 0.  0.
         -6    2    1    2    0  502  0.65270856001E+01  0.17530103088E+03  0.22659750045E+02  0.24698518738E+03  0.17238086971E+03 0.  0.
        -24    2    5    5    0    0 -0.10142087279E+02  0.17382623143E+03 -0.27396661932E+02  0.19399678546E+03  0.81029346641E+02 0.  0.
          5    1    3    3  501    0  0.21230062891E+02 -0.30094386868E+02 -0.37635362872E+03  0.37818055416E+03  0.47000000000E+01 0. -1.
        -11    1    4    4    0    0 -0.28375639783E+02 -0.30811318431E+02 -0.39291775771E+02  0.57431332214E+02  0.00000000000E+00 0.  1.
         12    1    4    4    0    0  0.61849129217E+00 -0.11439532558E+03 -0.28859679257E+03  0.31044287997E+03  0.00000000000E+00 0. -1.
         -5    1    5    5    0  502  0.16669172879E+02  0.14747994454E+01  0.50056411977E+02  0.52988401919E+02  0.47000000000E+01 0.  1.
         11    1    6    6    0    0  0.26910525961E+02  0.13760622710E+03 -0.21385014742E+02  0.14183430121E+03  0.00000000000E+00 0. -1.
        -12    1    6    6    0    0 -0.37052613240E+02  0.36220004335E+02 -0.60116471896E+01  0.52162484257E+02  0.00000000000E+00 0.  1.
</event>
<event>
12    1  0.8451514E-002  0.1768515E+03  0.7818608E-02  0.1171012E+00
         21   -1    0    0  501  502  0.00000000000E+00  0.00000000000E+00  0.67226667971E+02  0.67226667971E+02  0.00000000000E+00 0.  1.
         21   -1    0    0  502  503 -0.00000000000E+00 -0.00000000000E+00 -0.50036208885E+03  0.50036208885E+03  0.00000000000E+00 0.  1.
         -6    2    1    2    0  503 -0.36025827689E+02  0.68405662011E+01 -0.29347128119E+03  0.34263952260E+03  0.17300808062E+03 0.  0.
        -24    2    3    3    0    0  0.91332102890E+01 -0.55829092815E+02 -0.13760008130E+03  0.16861439273E+03  0.79351924529E+02 0.  0.
          6    2    1    2  501    0  0.36025827689E+02 -0.68405662011E+01 -0.13966413969E+03  0.22494923422E+03  0.17248603553E+03 0.  0.
         24    2    5    5    0    0  0.62052318165E+02  0.27892492195E+02 -0.39770064451E+02  0.11593235562E+03  0.85030416572E+02 0.  0.
          5    1    5    5  501    0 -0.26026490476E+02 -0.34733058397E+02 -0.99894075240E+02  0.10901687860E+03  0.47000000000E+01 0. -1.
        -11    1    6    6    0    0  0.15199621666E+02 -0.24970056492E+02 -0.34324465504E+02  0.45085487157E+02  0.00000000000E+00 0.  1.
         12    1    6    6    0    0  0.46852696499E+02  0.52862548688E+02 -0.54455989473E+01  0.70846868462E+02  0.00000000000E+00 0. -1.
         -5    1    3    3    0  503 -0.45159037978E+02  0.62669659016E+02 -0.15587119989E+03  0.17402512987E+03  0.47000000000E+01 0.  1.
         13    1    4    4    0    0 -0.88106968368E+00 -0.69021469047E+02 -0.67358105756E+02  0.96446119073E+02  0.00000000000E+00 0. -1.
        -14    1    4    4    0    0  0.10014279973E+02  0.13192376232E+02 -0.70241975541E+02  0.72168273652E+02  0.00000000000E+00 0.  1.
</event>
<event>
12    1  0.8451514E-002  0.2077143E+03  0.7818608E-02  0.1143608E+00
         21   -1    0    0  503  502  0.00000000000E+00  0.00000000000E+00  0.12753163088E+03  0.12753163088E+03  0.00000000000E+00 0.  1.
         21   -1    0    0  501  503 -0.00000000000E+00 -0.00000000000E+00 -0.21919542129E+04  0.21919542129E+04  0.00000000000E+00 0.  1.
          6    2    1    2  501    0  0.95551069339E+01  0.11510969035E+03 -0.20996327811E+04  0.21098822306E+04  0.17263739661E+03 0.  0.
         24    2    3    3    0    0 -0.60013942209E+02  0.62024724353E+02 -0.13601988143E+04  0.13652732410E+04  0.79884093350E+02 0.  0.
         -6    2    1    2    0  502 -0.95551069339E+01 -0.11510969035E+03  0.35210199112E+02  0.20960361314E+03  0.17132535025E+03 0.  0.
        -24    2    5    5    0    0  0.36659780493E+02 -0.13393909777E+02 -0.92714846449E+01  0.89259830469E+02  0.79737196984E+02 0.  0.
          5    1    3    3  501    0  0.69569049143E+02  0.53084965998E+02 -0.73943396681E+03  0.74460898966E+03  0.47000000000E+01 0. -1.
        -13    1    4    4    0    0 -0.39289827380E+01  0.34778683962E+02 -0.92160945621E+03  0.92227381159E+03  0.00000000000E+00 0.  1.
         14    1    4    4    0    0 -0.56084959471E+02  0.27246040391E+02 -0.43858935809E+03  0.44299942938E+03  0.00000000000E+00 0. -1.
         -5    1    5    5    0  502 -0.46214887427E+02 -0.10171578057E+03  0.44481683757E+02  0.12034378267E+03  0.47000000000E+01 0.  1.
         13    1    6    6    0    0  0.44020322284E+01  0.20851511644E+02 -0.30854979568E+02  0.37499242522E+02  0.00000000000E+00 0. -1.
        -14    1    6    6    0    0  0.32257748265E+02 -0.34245421422E+02  0.21583494923E+02  0.51760587947E+02  0.00000000000E+00 0.  1.
</event>
<event>
12    1  0.8451514E-002  0.2188217E+03  0.7818608E-02  0.1135128E+00
         21   -1    0    0  503  502  0.00000000000E+00  0.00000000000E+00  0.14616420166E+03  0.14616420166E+03  0.00000000000E+00 0. -1.
         21   -1    0    0  501  503 -0.00000000000E+00 -0.00000000000E+00 -0.57644046426E+03  0.57644046426E+03  0.00000000000E+00 0.  1.
          6    2    1    2  501    0  0.21334567725E+02  0.13252618738E+03 -0.45442870317E+03  0.50436929376E+03  0.17281372658E+03 0.  0.
         24    2    3    3    0    0 -0.13300378940E+02  0.94582072575E+02 -0.42893835710E+03  0.44682641304E+03  0.80889187555E+02 0.  0.
         -6    2    1    2    0  502 -0.21334567725E+02 -0.13252618738E+03  0.24152440576E+02  0.21823537216E+03  0.17036720094E+03 0.  0.
        -24    2    5    5    0    0  0.49400796840E+02 -0.48080771971E+02  0.22437357935E+02  0.10796501580E+03  0.80005063867E+02 0.  0.
          5    1    3    3  501    0  0.34634946665E+02  0.37944114800E+02 -0.25490346072E+02  0.57542880718E+02  0.47000000000E+01 0. -1.
        -11    1    4    4    0    0  0.12426529796E+02  0.55578289516E+02 -0.10423388121E+03  0.11877738379E+03  0.00000000000E+00 0.  1.
         12    1    4    4    0    0 -0.25726908735E+02  0.39003783059E+02 -0.32470447589E+03  0.32804902924E+03  0.00000000000E+00 0. -1.
         -5    1    5    5    0  502 -0.70735364565E+02 -0.84445415404E+02  0.17150826409E+01  0.11027035636E+03  0.47000000000E+01 0.  1.
         11    1    6    6    0    0  0.35497672891E+02 -0.66818776905E+02  0.98372978188E-01  0.75662694936E+02  0.00000000000E+00 0. -1.
        -12    1    6    6    0    0  0.13903123949E+02  0.18738004934E+02  0.22338984957E+02  0.32302320867E+02  0.00000000000E+00 0.  1.
</event>
<event>
12    1  0.8451514E-002  0.2166081E+03  0.7818608E-02  0.1136656E+00
         21   -1    0    0  503  502  0.00000000000E+00  0.00000000000E+00  0.13089887724E+03  0.13089887724E+03  0.00000000000E+00 0.  1.
         21   -1    0    0  501  503 -0.00000000000E+00 -0.00000000000E+00 -0.38420383786E+03  0.38420383786E+03  0.00000000000E+00 0.  1.
          6    2    1    2  501    0  0.47014483972E+02  0.12068044786E+03 -0.57239324747E+02  0.22293697822E+03  0.17219298407E+03 0.  0.
         24    2    3    3    0    0 -0.62286577745E+01  0.40477991334E+02 -0.84094961725E+02  0.12288408514E+03  0.79694867049E+02 0.  0.
         -6    2    1    2    0  502 -0.47014483972E+02 -0.12068044786E+03 -0.19606563587E+03  0.29216573688E+03  0.17362301702E+03 0.  0.
        -24    2    5    5    0    0 -0.74849695904E+02 -0.43100277451E+02 -0.16769113075E+03  0.20486920542E+03  0.79943511976E+02 0.  0.
          5    1    3    3  501    0  0.53243141747E+02  0.80202456526E+02  0.26855636978E+02  0.10005289308E+03  0.47000000000E+01 0. -1.
        -11    1    4    4    0    0 -0.36610048365E+02  0.44385484531E+02 -0.64916250981E+02  0.86743798163E+02  0.00000000000E+00 0.  1.
         12    1    4    4    0    0  0.30381390590E+02 -0.39074931968E+01 -0.19178710745E+02  0.36140286981E+02  0.00000000000E+00 0. -1.
         -5    1    5    5    0  502  0.27835211932E+02 -0.77580170408E+02 -0.28374505126E+02  0.87296531461E+02  0.47000000000E+01 0.  1.
         11    1    6    6    0    0  0.56874003612E+01 -0.30204745466E+02 -0.76938610314E+02  0.82850606085E+02  0.00000000000E+00 0. -1.
        -12    1    6    6    0    0 -0.80537096266E+02 -0.12895531985E+02 -0.90752520431E+02  0.12201859934E+03  0.00000000000E+00 0.  1.
</event>
<event>
12    1  0.8451514E-002  0.1820728E+03  0.7818608E-02  0.1166557E+00
         21   -1    0    0  503  502  0.00000000000E+00  0.00000000000E+00  0.28956019776E+02  0.28956019776E+02  0.00000000000E+00 0. -1.
         21   -1    0    0  501  503 -0.00000000000E+00 -0.00000000000E+00 -0.14933671491E+04  0.14933671491E+04  0.00000000000E+00 0. -1.
          6    2    1    2  501    0 -0.54663049000E+02  0.24153586268E+02 -0.11147261752E+04  0.11294976585E+04  0.17198566870E+03 0.  0.
         24    2    3    3    0    0 -0.35694526988E+02 -0.51260244836E+02 -0.43508951816E+03  0.44541058339E+03  0.72013797464E+02 0.  0.
         -6    2    1    2    0  502  0.54663049000E+02 -0.24153586268E+02 -0.34968495418E+03  0.39282551043E+03  0.16870349672E+03 0.  0.
        -24    2    5    5    0    0  0.69261638865E+02  0.35827445734E+02 -0.26958508545E+03  0.29158855079E+03  0.79164285936E+02 0.  0.
          5    1    3    3  501    0 -0.18968522012E+02  0.75413831103E+02 -0.67963665701E+03  0.68408707509E+03  0.47000000000E+01 0. -1.
        -13    1    4    4    0    0 -0.36480623307E+02 -0.81907208598E+01 -0.87382492994E+02  0.95045377936E+02  0.00000000000E+00 0.  1.
         14    1    4    4    0    0  0.78609631938E+00 -0.43069523976E+02 -0.34770702517E+03  0.35036520546E+03  0.00000000000E+00 0. -1.
         -5    1    5    5    0  502 -0.14598589865E+02 -0.59981032002E+02 -0.80099868729E+02  0.10123695964E+03  0.47000000000E+01 0.  1.
         13    1    6    6    0    0 -0.58955540299E+00  0.30661705096E+02 -0.33887364931E+02  0.45703842693E+02  0.00000000000E+00 0. -1.
        -14    1    6    6    0    0  0.69851194268E+02  0.51657406374E+01 -0.23569772052E+03  0.24588470810E+03  0.00000000000E+00 0.  1.
</event>
<event>
12    1  0.8451514E-002  0.3122115E+03  0.7818608E-02  0.1080488E+00
         21   -1    0    0  503  502  0.00000000000E+00  0.00000000000E+00  0.19879195809E+03  0.19879195809E+03  0.00000000000E+00 0. -1.
         21   -1    0    0  501  503 -0.00000000000E+00 -0.00000000000E+00 -0.61854396431E+03  0.61854396431E+03  0.00000000000E+00 0.  1.
          6    2    1    2  501    0  0.24684022921E+03 -0.46200120934E+02 -0.40419795084E+03  0.50473722415E+03  0.16828289294E+03 0.  0.
         24    2    3    3    0    0  0.18887731813E+03 -0.27620053359E+02 -0.39120490591E+03  0.44232066235E+03  0.78541589477E+02 0.  0.
         -6    2    1    2    0  502 -0.24684022921E+03  0.46200120934E+02 -0.15554055378E+02  0.31259869824E+03  0.18550328184E+03 0.  0.
        -24    2    5    5    0    0 -0.22593496197E+03 -0.18191422058E+02  0.88748778791E+01  0.24047267112E+03  0.79817336621E+02 0.  0.
          5    1    3    3  501    0  0.57962911077E+02 -0.18580067576E+02 -0.12993044927E+02  0.62416561809E+02  0.47000000000E+01 0. -1.
        -11    1    4    4    0    0  0.33268364276E+02 -0.13047152777E+02 -0.15517446392E+03  0.15923607164E+03  0.00000000000E+00 0.  1.
         12    1    4    4    0    0  0.15560895385E+03 -0.14572900581E+02 -0.23603044199E+03  0.28308459071E+03  0.00000000000E+00 0. -1.
         -5    1    5    5    0  502 -0.20905267240E+02  0.64391542993E+02 -0.24428933257E+02  0.72126027115E+02  0.47000000000E+01 0.  1.
         11    1    6    6    0    0  0.45065054783E+01 -0.78406556474E+01 -0.29040619948E+01  0.94983182025E+01  0.00000000000E+00 0. -1.
        -12    1    6    6    0    0 -0.23044146744E+03 -0.10350766411E+02  0.11778939874E+02  0.23097435292E+03  0.00000000000E+00 0.  1.
</event>
<event>
12    1  0.8451514E-002  0.2175372E+03  0.7818608E-02  0.1137018E+00
         21   -1    0    0  501  502  0.00000000000E+00  0.00000000000E+00  0.60185575683E+02  0.60185575683E+02  0.00000000000E+00 0. -1.
         21   -1    0    0  502  503 -0.00000000000E+00 -0.00000000000E+00 -0.76705367155E+03  0.76705367155E+03  0.00000000000E+00 0. -1.
         -6    2    1    2    0  503  0.28683926783E+02  0.12984835408E+03 -0.32637277342E+03  0.39222649733E+03  0.17216002809E+03 0.  0.
        -24    2    3    3    0    0  0.66052680497E+02  0.98213764474E+02 -0.30735059253E+03  0.33949032020E+03  0.82343127501E+02 0.  0.
          6    2    1    2  501    0 -0.28683926783E+02 -0.12984835408E+03 -0.38049532245E+03  0.43501274990E+03  0.16363385791E+03 0.  0.
         24    2    5    5    0    0 -0.40988495386E+02 -0.11175722181E+03 -0.16662451827E+03  0.21997437575E+03  0.80344648348E+02 0.  0.
          5    1    5    5  501    0  0.12304568602E+02 -0.18091132270E+02 -0.21387080418E+03  0.21503837415E+03  0.47000000000E+01 0. -1.
        -13    1    6    6    0    0 -0.46879189167E+02 -0.20472077954E+02 -0.47741391562E+02  0.69971457188E+02  0.00000000000E+00 0.  1.
         14    1    6    6    0    0  0.58906937813E+01 -0.91285143852E+02 -0.11888312671E+03  0.15000291856E+03  0.00000000000E+00 0. -1.
         -5    1    3    3    0  503 -0.37368753714E+02  0.31634589602E+02 -0.19022180886E+02  0.52736177137E+02  0.47000000000E+01 0.  1.
         11    1    4    4    0    0  0.23699304714E+02  0.34947573786E+02 -0.29787127764E+02  0.51674586964E+02  0.00000000000E+00 0. -1.
        -12    1    4    4    0    0  0.42353375783E+02  0.63266190688E+02 -0.27756346477E+03  0.28781573323E+03  0.00000000000E+00 0.  1.
</event>
<event>
12    1  0.8451514E-002  0.1795417E+03  0.7818608E-02  0.1169318E+00
         21   -1    0    0  503  502  0.00000000000E+00  0.00000000000E+00  0.31934904974E+03  0.31934904974E+03  0.00000000000E+00 0. -1.
         21   -1    0    0  501  503 -0.00000000000E+00 -0.00000000000E+00 -0.14749398254E+03  0.14749398254E+03  0.00000000000E+00 0.  1.
          6    2    1    2  501    0  0.16520979844E+01 -0.50001027665E+02 -0.49289751138E+02  0.18199177439E+03  0.16789489028E+03 0.  0.
         24    2    3    3    0    0  0.57676538821E+02 -0.22709163691E+01 -0.60845521752E+02  0.10734241183E+03  0.66996086968E+02 0.  0.
         -6    2    1    2    0  502 -0.16520979844E+01  0.50001027665E+02  0.22114481833E+03  0.28485125790E+03  0.17243078685E+03 0.  0.
        -24    2    5    5    0    0 -0.37979336768E+02  0.37058745795E+02  0.22609804569E+03  0.24568755788E+03  0.80164014207E+02 0.  0.
          5    1    3    3  501    0 -0.56024440837E+02 -0.47730111296E+02  0.11555770614E+02  0.74649362556E+02  0.47000000000E+01 0. -1.
        -13    1    4    4    0    0  0.48796619441E+02  0.27964307372E+02 -0.45234554906E+02  0.72175324822E+02  0.00000000000E+00 0.  1.
         14    1    4    4    0    0  0.88799193804E+01 -0.30235223741E+02 -0.15610966846E+02  0.35167087010E+02  0.00000000000E+00 0. -1.
         -5    1    5    5    0  502  0.36327238783E+02  0.12942281870E+02 -0.49532273521E+01  0.39163700014E+02  0.47000000000E+01 0.  1.
         13    1    6    6    0    0 -0.30150039629E+02 -0.21360351603E+02  0.78733160637E+02  0.86972409960E+02  0.00000000000E+00 0. -1.
        -14    1    6    6    0    0 -0.78292971387E+01  0.58419097399E+02  0.14736488505E+03  0.15871514792E+03  0.00000000000E+00 0.  1.
</event>
<event>
12    1  0.8451514E-002  0.1770562E+03  0.7818608E-02  0.1171110E+00
         21   -1    0    0  503  502  0.00000000000E+00  0.00000000000E+00  0.70414570884E+02  0.70414570884E+02  0.00000000000E+00 0.  1.
         21   -1    0    0  501  503 -0.00000000000E+00 -0.00000000000E+00 -0.45793217899E+03  0.45793217899E+03  0.00000000000E+00 0. -1.
          6    2    1    2  501    0 -0.42692202334E+01  0.37846471629E+02 -0.24380672073E+03  0.30030786224E+03  0.17115055767E+03 0.  0.
         24    2    3    3    0    0 -0.20423111649E+02  0.89178739720E+02 -0.16949394658E+03  0.20843605831E+03  0.79670831353E+02 0.  0.
         -6    2    1    2    0  502  0.42692202334E+01 -0.37846471629E+02 -0.14371088738E+03  0.22803888764E+03  0.17291134569E+03 0.  0.
        -24    2    5    5    0    0  0.50418650690E+02 -0.45190517718E+02 -0.34893649970E+02  0.10951890577E+03  0.78693079012E+02 0.  0.
          5    1    3    3  501    0  0.16153891415E+02 -0.51332268090E+02 -0.74312774147E+02  0.91871803926E+02  0.47000000000E+01 0. -1.
        -11    1    4    4    0    0 -0.17142171844E+02 -0.82968026152E+01 -0.10064328779E+02  0.21540234514E+02  0.00000000000E+00 0.  1.
         12    1    4    4    0    0 -0.32809398047E+01  0.97475542335E+02 -0.15942961780E+03  0.18689582380E+03  0.00000000000E+00 0. -1.
         -5    1    5    5    0  502 -0.46149430457E+02  0.73440460886E+01 -0.10881723741E+03  0.11851998187E+03  0.47000000000E+01 0.  1.
         13    1    6    6    0    0  0.49934309408E+02  0.78940602937E+00 -0.38984312401E+02  0.63354834317E+02  0.00000000000E+00 0. -1.
        -14    1    6    6    0    0  0.48434128273E+00 -0.45979923747E+02  0.40906624310E+01  0.46164071456E+02  0.00000000000E+00 0.  1.
</event>
<event>
12    1  0.8451514E-002  0.1950846E+03  0.7818608E-02  0.1154222E+00
         21   -1    0    0  503  502  0.00000000000E+00  0.00000000000E+00  0.24883180267E+02  0.24883180267E+02  0.00000000000E+00 0.  1.
         21   -1    0    0  501  503 -0.00000000000E+00 -0.00000000000E+00 -0.15894757859E+04  0.15894757859E+04  0.00000000000E+00 0.  1.
          6    2    1    2  501    0  0.55129352158E+02 -0.73016695861E+02 -0.61100224780E+03  0.64101803715E+03  0.17090843687E+03 0.  0.
         24    2    3    3    0    0  0.85218183543E+02 -0.89534341179E+02 -0.56330022018E+03  0.58206259788E+03  0.78811120626E+02 0.  0.
         -6    2    1    2    0  502 -0.55129352158E+02  0.73016695861E+02 -0.95359035780E+03  0.97334092898E+03  0.17230005862E+03 0.  0.
        -24    2    5    5    0    0  0.27430939435E+02  0.53418333345E+02 -0.67009850487E+03  0.67738482035E+03  0.78817598490E+02 0.  0.
          5    1    3    3  501    0 -0.30088831385E+02  0.16517645318E+02 -0.47702027616E+02  0.58955439271E+02  0.47000000000E+01 0. -1.
        -13    1    4    4    0    0  0.66910568815E+02 -0.66937585579E+02 -0.24836113903E+03  0.26578359612E+03  0.00000000000E+00 0.  1.
         14    1    4    4    0    0  0.18307614727E+02 -0.22596755600E+02 -0.31493908115E+03  0.31627900176E+03  0.00000000000E+00 0. -1.
         -5    1    5    5    0  502 -0.82560291593E+02  0.19598362516E+02 -0.28349185293E+03  0.29595610863E+03  0.47000000000E+01 0.  1.
         13    1    6    6    0    0  0.19056709035E+02  0.73458207254E+02 -0.46669291723E+03  0.47282295350E+03  0.00000000000E+00 0. -1.
        -14    1    6    6    0    0  0.83742304004E+01 -0.20039873909E+02 -0.20340558764E+03  0.20456186684E+03  0.00000000000E+00 0.  1.
</event>
<event>
12    1  0.8451514E-002  0.2222596E+03  0.7818608E-02  0.1132305E+00
         21   -1    0    0  503  502  0.00000000000E+00  0.00000000000E+00  0.15835290542E+03  0.15835290542E+03  0.00000000000E+00 0. -1.
         21   -1    0    0  501  503 -0.00000000000E+00 -0.00000000000E+00 -0.11521714122E+04  0.11521714122E+04  0.00000000000E+00 0.  1.
          6    2    1    2  501    0 -0.12243520446E+03 -0.70639723627E+02 -0.10565609089E+04  0.10795785531E+04  0.17084656376E+03 0.  0.
         24    2    3    3    0    0 -0.10593067896E+03 -0.10513936863E+03 -0.64680664550E+03  0.66801656360E+03  0.74911260806E+02 0.  0.
         -6    2    1    2    0  502  0.12243520446E+03  0.70639723627E+02  0.62742402172E+02  0.23094576443E+03  0.17151964095E+03 0.  0.
        -24    2    5    5    0    0  0.14736751162E+03  0.28365760357E+02  0.66704102503E+02  0.18148372868E+03  0.77234102854E+02 0.  0.
          5    1    3    3  501    0 -0.16504525507E+02  0.34499644999E+02 -0.40975426340E+03  0.41156198955E+03  0.47000000000E+01 0. -1.
        -13    1    4    4    0    0 -0.82191025713E+02 -0.80830215268E+02 -0.59498076448E+03  0.60604537661E+03  0.00000000000E+00 0.  1.
         14    1    4    4    0    0 -0.23739653243E+02 -0.24309153357E+02 -0.51825881024E+02  0.61971186990E+02  0.00000000000E+00 0. -1.
         -5    1    5    5    0  502 -0.24932307159E+02  0.42273963270E+02 -0.39617003314E+01  0.49462035748E+02  0.47000000000E+01 0.  1.
         11    1    6    6    0    0  0.11907571070E+03  0.52312280954E+02  0.62126791444E+02  0.14413652497E+03  0.00000000000E+00 0. -1.
        -12    1    6    6    0    0  0.28291800926E+02 -0.23946520597E+02  0.45773110593E+01  0.37347203709E+02  0.00000000000E+00 0.  1.
</event>
<event>
12    1  0.8451514E-002  0.2194272E+03  0.7818608E-02  0.1134497E+00
         21   -1    0    0  503  502  0.00000000000E+00  0.00000000000E+00  0.21196232383E+03  0.21196232383E+03  0.00000000000E+00 0.  1.
         21   -1    0    0  501  503 -0.00000000000E+00 -0.00000000000E+00 -0.22683713289E+03  0.22683713289E+03  0.00000000000E+00 0.  1.
          6    2    1    2  501    0  0.21486724511E+02  0.13300660157E+03  0.48039110015E+01  0.21947979313E+03  0.17319314837E+03 0.  0.
         24    2    3    3    0    0  0.21605148677E+02  0.32034227836E+02  0.56904144384E+02  0.10576102335E+03  0.80338895999E+02 0.  0.
         -6    2    1    2    0  502 -0.21486724511E+02 -0.13300660157E+03 -0.19678720063E+02  0.21931966359E+03  0.17193436952E+03 0.  0.
        -24    2    5    5    0    0  0.10088321334E+02 -0.27109687989E+02  0.39903148983E+02  0.93688342077E+02  0.79677692814E+02 0.  0.
          5    1    3    3  501    0 -0.11842416579E+00  0.10097237373E+03 -0.52100233383E+02  0.11371876978E+03  0.47000000000E+01 0. -1.
        -11    1    4    4    0    0 -0.30002098627E+02  0.19375861924E+02  0.27131661685E+02  0.44851722521E+02  0.00000000000E+00 0.  1.
         12    1    4    4    0    0  0.51607247304E+02  0.12658365912E+02  0.29772482699E+02  0.60909300832E+02  0.00000000000E+00 0. -1.
         -5    1    5    5    0  502 -0.31575045845E+02 -0.10589691358E+03 -0.59581869046E+02  0.12563132151E+03  0.47000000000E+01 0.  1.
         13    1    6    6    0    0 -0.77372180551E+01  0.22221529561E+02  0.33367770539E+02  0.40829756673E+02  0.00000000000E+00 0. -1.
        -14    1    6    6    0    0  0.17825539389E+02 -0.49331217550E+02  0.65353784445E+01  0.52858585404E+02  0.00000000000E+00 0.  1.
</event>
<event>
12    1  0.8451514E-002  0.1948846E+03  0.7818608E-02  0.1154740E+00
         21   -1    0    0  501  502  0.00000000000E+00  0.00000000000E+00  0.18423786536E+03  0.18423786536E+03  0.00000000000E+00 0. -1.
         21   -1    0    0  502  503 -0.00000000000E+00 -0.00000000000E+00 -0.20501002377E+03  0.20501002377E+03  0.00000000000E+00 0. -1.
         -6    2    1    2    0  503  0.41504830234E+02 -0.76801316192E+02 -0.28693022758E+02  0.19698547657E+03  0.17423804212E+03 0.  0.
        -24    2    3    3    0    0 -0.28063107986E+02  0.12774115443E+02  0.30526011813E+02  0.68952511923E+02  0.53590068558E+02 0.  0.
          6    2    1    2  501    0 -0.41504830234E+02  0.76801316192E+02  0.79208643438E+01  0.19226241256E+03  0.17111692520E+03 0.  0.
         24    2    5    5    0    0 -0.20219682163E+02  0.11830428926E+03 -0.41690254212E+01  0.14384950378E+03  0.79186858510E+02 0.  0.
          5    1    5    5  501    0 -0.21285148071E+02 -0.41502973069E+02  0.12089889765E+02  0.48412908779E+02  0.47000000000E+01 0. -1.
        -13    1    6    6    0    0  0.16932927670E+02  0.96806667161E+02  0.96670014556E+01  0.98750725382E+02  0.00000000000E+00 0.  1.
         14    1    6    6    0    0 -0.37152609833E+02  0.21497622099E+02 -0.13836026877E+02  0.45098778399E+02  0.00000000000E+00 0. -1.
         -5    1    3    3    0  503  0.69567938221E+02 -0.89575431635E+02 -0.59219034571E+02  0.12803296465E+03  0.47000000000E+01 0.  1.
         11    1    4    4    0    0 -0.29808713695E+02  0.14778897556E+02 -0.47217849951E+01  0.33604619901E+02  0.00000000000E+00 0. -1.
        -12    1    4    4    0    0  0.17456057088E+01 -0.20047821130E+01  0.35247796808E+02  0.35347892022E+02  0.00000000000E+00 0.  1.
</event>
<event>
12    1  0.8451514E-002  0.2389662E+03  0.7818608E-02  0.1120758E+00
         21   -1    0    0  503  502  0.00000000000E+00  0.00000000000E+00  0.26556810492E+03  0.26556810492E+03  0.00000000000E+00 0. -1.
         21   -1    0    0  501  503 -0.00000000000E+00 -0.00000000000E+00 -0.21398590715E+03  0.21398590715E+03  0.00000000000E+00 0.  1.
          6    2    1    2  501    0  0.26138906564E+02 -0.15993128500E+03  0.36372479957E+02  0.24010430974E+03  0.17339510921E+03 0.  0.
         24    2    3    3    0    0  0.68352085632E+02 -0.16360161118E+03  0.34930423426E+02  0.19744761849E+03  0.79548304671E+02 0.  0.
         -6    2    1    2    0  502 -0.26138906564E+02  0.15993128500E+03  0.15209717815E+02  0.23944970233E+03  0.17562336425E+03 0.  0.
        -24    2    5    5    0    0  0.10784753049E+02  0.15008850683E+03  0.59476885226E+02  0.18078191703E+03  0.80633311147E+02 0.  0.
          5    1    3    3  501    0 -0.42213179068E+02  0.36703261748E+01  0.14420565308E+01  0.42656691249E+02  0.47000000000E+01 0. -1.
        -13    1    4    4    0    0  0.64906851815E+02 -0.11545087201E+03 -0.82188538634E+01  0.13270023670E+03  0.00000000000E+00 0.  1.
         14    1    4    4    0    0  0.34452338169E+01 -0.48150739169E+02  0.43149277289E+02  0.64747381793E+02  0.00000000000E+00 0. -1.
         -5    1    5    5    0  502 -0.36923659613E+02  0.98427781687E+01 -0.44267167411E+02  0.58667785299E+02  0.47000000000E+01 0.  1.
         11    1    6    6    0    0 -0.12273386608E+02  0.11444847164E+02  0.34038313318E+02  0.37950326994E+02  0.00000000000E+00 0. -1.
        -12    1    6    6    0    0  0.23058139657E+02  0.13864365967E+03  0.25438571908E+02  0.14283159003E+03  0.00000000000E+00 0.  1.
</event>
<event>
12    1  0.8451514E-002  0.2824395E+03  0.7818608E-02  0.1094465E+00
         21   -1    0    0  501  502  0.00000000000E+00  0.00000000000E+00  0.14169494696E+04  0.14169494696E+04  0.00000000000E+00 0. -1.
         21   -1    0    0  502  503 -0.00000000000E+00 -0.00000000000E+00 -0.62665529621E+02  0.62665529621E+02  0.00000000000E+00 0.  1.
         -6    2    1    2    0  503  0.18508385725E+03  0.12424070511E+03  0.43779603331E+03  0.52059354720E+03  0.17222220409E+03 0.  0.
        -24    2    3    3    0    0  0.25350590848E+02  0.53668966077E+02  0.10520350547E+03  0.14491420744E+03  0.80058351087E+02 0.  0.
          6    2    1    2  501    0 -0.18508385725E+03 -0.12424070511E+03  0.91648790671E+03  0.95902145206E+03  0.17343666092E+03 0.  0.
         24    2    5    5    0    0 -0.14930124657E+03 -0.55225600629E+02  0.42273316210E+03  0.45916215417E+03  0.82376139045E+02 0.  0.
          5    1    5    5  501    0 -0.35782610685E+02 -0.69015104478E+02  0.49375474461E+03  0.49985929790E+03  0.47000000000E+01 0. -1.
        -11    1    6    6    0    0 -0.43082575299E+02  0.21080962375E+02  0.98940106085E+02  0.10995298932E+03  0.00000000000E+00 0.  1.
         12    1    6    6    0    0 -0.10621867127E+03 -0.76306563004E+02  0.32379305602E+03  0.34920916484E+03  0.00000000000E+00 0. -1.
         -5    1    3    3    0  503  0.15973326641E+03  0.70571739031E+02  0.33259252784E+03  0.37567933976E+03  0.47000000000E+01 0.  1.
         13    1    4    4    0    0  0.45732922389E+02  0.50363541347E+02  0.45762791841E+02  0.81989143210E+02  0.00000000000E+00 0. -1.
        -14    1    4    4    0    0 -0.20382331541E+02  0.33054247305E+01  0.59440713629E+02  0.62925064231E+02  0.00000000000E+00 0.  1.
</event>
<event>
12    1  0.8451514E-002  0.1891456E+03  0.7818608E-02  0.1159625E+00
         21   -1    0    0  501  502  0.00000000000E+00  0.00000000000E+00  0.18964639579E+03  0.18964639579E+03  0.00000000000E+00 0.  1.
         21   -1    0    0  502  503 -0.00000000000E+00 -0.00000000000E+00 -0.31907506621E+03  0.31907506621E+03  0.00000000000E+00 0. -1.
         -6    2    1    2    0  503 -0.24655758850E+02 -0.73879430693E+02 -0.22857322418E+03  0.29668466783E+03  0.17236588000E+03 0.  0.
        -24    2    3    3    0    0 -0.72914906222E+02 -0.74542979988E+02 -0.12191641334E+03  0.17952174323E+03  0.80568014956E+02 0.  0.
          6    2    1    2  501    0  0.24655758850E+02  0.73879430693E+02  0.99144553758E+02  0.21203679418E+03  0.17048132690E+03 0.  0.
         24    2    5    5    0    0  0.36584202224E+02  0.48193644607E+00  0.28106631060E-01  0.88038245741E+02  0.80075563114E+02 0.  0.
          5    1    5    5  501    0 -0.11928443374E+02  0.73397494246E+02  0.99116447127E+02  0.12399854844E+03  0.47000000000E+01 0. -1.
        -13    1    6    6    0    0  0.50888093811E+02 -0.31060126852E+01  0.26707326389E+02  0.57554554028E+02  0.00000000000E+00 0.  1.
         14    1    6    6    0    0 -0.14303891587E+02  0.35879491313E+01 -0.26679219758E+02  0.30483691713E+02  0.00000000000E+00 0. -1.
         -5    1    3    3    0  503  0.48259147372E+02  0.66354929591E+00 -0.10665681084E+03  0.11716292460E+03  0.47000000000E+01 0.  1.
         13    1    4    4    0    0 -0.57603151451E+02 -0.63683042241E+02 -0.13255988486E+03  0.15794231858E+03  0.00000000000E+00 0. -1.
        -14    1    4    4    0    0 -0.15311754771E+02 -0.10859937747E+02  0.10643471515E+02  0.21579424643E+02  0.00000000000E+00 0.  1.
</event>
<event>
12    1  0.8451514E-002  0.2138458E+03  0.7818608E-02  0.1138978E+00
         21   -1    0    0  501  502  0.00000000000E+00  0.00000000000E+00  0.16583612431E+03  0.16583612431E+03  0.00000000000E+00 0.  1.
         21   -1    0    0  502  503 -0.00000000000E+00 -0.00000000000E+00 -0.12643853043E+04  0.12643853043E+04  0.00000000000E+00 0. -1.
         -6    2    1    2    0  503 -0.99298994785E+02 -0.76281379576E+02 -0.11831094768E+04  0.12022803627E+04  0.17335194620E+03 0.  0.
        -24    2    3    3    0    0 -0.90188388384E+01 -0.90654759610E+02 -0.72311239779E+03  0.73326383496E+03  0.80527553873E+02 0.  0.
          6    2    1    2  501    0  0.99298994785E+02  0.76281379576E+02  0.84560296831E+02  0.22794106586E+03  0.17066794213E+03 0.  0.
         24    2    5    5    0    0  0.60110402442E+02  0.11662736144E+03  0.48211968503E+02  0.16080810083E+03  0.79496222977E+02 0.  0.
          5    1    5    5  501    0  0.39188592343E+02 -0.40345981862E+02  0.36348328328E+02  0.67132965036E+02  0.47000000000E+01 0. -1.
        -13    1    6    6    0    0  0.40236673184E+02  0.88592462847E+02  0.70225989899E+02  0.11999709996E+03  0.00000000000E+00 0.  1.
         14    1    6    6    0    0  0.19873729257E+02  0.28034898591E+02 -0.22014021397E+02  0.40811000866E+02  0.00000000000E+00 0. -1.
         -5    1    3    3    0  503 -0.90280155946E+02  0.14373380034E+02 -0.45999707900E+03  0.46901652775E+03  0.47000000000E+01 0.  1.
         11    1    4    4    0    0 -0.41949167488E+02 -0.48384061047E+02 -0.29904855105E+03  0.30582803322E+03  0.00000000000E+00 0. -1.
        -12    1    4    4    0    0  0.32930328650E+02 -0.42270698563E+02 -0.42406384674E+03  0.42743580174E+03  0.00000000000E+00 0.  1.
</event>
<event>
12    1  0.8451514E-002  0.2226809E+03  0.7818608E-02  0.1134583E+00
         21   -1    0    0  501  502  0.00000000000E+00  0.00000000000E+00  0.76120323380E+02  0.76120323380E+02  0.00000000000E+00 0. -1.
         21   -1    0    0  502  503 -0.00000000000E+00 -0.00000000000E+00 -0.68557569007E+03  0.68557569007E+03  0.00000000000E+00 0.  1.
         -6    2    1    2    0  503  0.12292419235E+03 -0.20279925348E+02 -0.43935561014E+03  0.49256486109E+03  0.18456748840E+03 0.  0.
        -24    2    3    3    0    0  0.15407813398E+03 -0.47319674292E+02 -0.38708183172E+03  0.42580893241E+03  0.74173307392E+02 0.  0.
          6    2    1    2  501    0 -0.12292419235E+03  0.20279925348E+02 -0.17009975655E+03  0.26913115237E+03  0.16726032871E+03 0.  0.
         24    2    5    5    0    0 -0.13297103451E+03  0.38729198106E+02 -0.18349667804E+03  0.24377603044E+03  0.81083138588E+02 0.  0.
          5    1    5    5  501    0  0.10046842156E+02 -0.18449272757E+02  0.13396921487E+02  0.25355121926E+02  0.47000000000E+01 0. -1.
        -11    1    6    6    0    0 -0.85632647445E+02 -0.14377687995E+02 -0.79198302516E+02  0.11752463292E+03  0.00000000000E+00 0.  1.
         12    1    6    6    0    0 -0.47338387064E+02  0.53106886101E+02 -0.10429837552E+03  0.12625139753E+03  0.00000000000E+00 0. -1.
         -5    1    3    3    0  503 -0.31153941630E+02  0.27039748943E+02 -0.52273778426E+02  0.66755928673E+02  0.47000000000E+01 0.  1.
         13    1    4    4    0    0  0.72404573036E+02 -0.67079932920E+01 -0.93882224587E+02  0.11874885879E+03  0.00000000000E+00 0. -1.
        -14    1    4    4    0    0  0.81673560947E+02 -0.40611680999E+02 -0.29319960713E+03  0.30706007362E+03  0.00000000000E+00 0.  1.
</event>
<event>
12    1  0.8451514E-002  0.1761664E+03  0.7818608E-02  0.1172772E+00
         21   -1    0    0  501  502  0.00000000000E+00  0.00000000000E+00  0.55388100244E+03  0.55388100244E+03  0.00000000000E+00 0.  1.
         21   -1    0    0  502  503 -0.00000000000E+00 -0.00000000000E+00 -0.68458616364E+02  0.68458616364E+02  0.00000000000E+00 0.  1.
         -6    2    1    2    0  503 -0.17964887752E+02 -0.23913147609E+02  0.99666261980E+02  0.19826132994E+03  0.16875904524E+03 0.  0.
        -24    2    3    3    0    0  0.27628046800E+01  0.17884414433E+02 -0.68213892889E+01  0.81906771374E+02  0.79590844170E+02 0.  0.
          6    2    1    2  501    0  0.17964887752E+02  0.23913147609E+02  0.38575612410E+03  0.42407828887E+03  0.17360884767E+03 0.  0.
         24    2    5    5    0    0  0.57536533110E+02 -0.14449433253E+02  0.10918637678E+03  0.14203127530E+03  0.68789385278E+02 0.  0.
          5    1    5    5  501    0 -0.39571645358E+02  0.38362580862E+02  0.27656974732E+03  0.28204701357E+03  0.47000000000E+01 0. -1.
        -11    1    6    6    0    0 -0.96443558564E+01 -0.20121004978E+02  0.37391413112E+02  0.43542923831E+02  0.00000000000E+00 0.  1.
         12    1    6    6    0    0  0.67180888966E+02  0.56715717253E+01  0.71794963664E+02  0.98488351472E+02  0.00000000000E+00 0. -1.
         -5    1    3    3    0  503 -0.20727692432E+02 -0.41797562041E+02  0.10648765127E+03  0.11635455857E+03  0.47000000000E+01 0.  1.
         13    1    4    4    0    0  0.41410961551E+01 -0.74982759809E+01  0.33314525252E+02  0.34398116414E+02  0.00000000000E+00 0. -1.
        -14    1    4    4    0    0 -0.13782914751E+01  0.25382690414E+02 -0.40135914541E+02  0.47508654960E+02  0.00000000000E+00 0.  1.
</event>
<event>
12    1  0.8451514E-002  0.2922430E+03  0.7818608E-02  0.1089226E+00
         21   -1    0    0  501  502  0.00000000000E+00  0.00000000000E+00  0.57497717327E+03  0.57497717327E+03  0.00000000000E+00 0. -1.
         21   -1    0    0  502  503 -0.00000000000E+00 -0.00000000000E+00 -0.23123908067E+03  0.23123908067E+03  0.00000000000E+00 0.  1.
         -6    2    1    2    0  503 -0.23622948958E+03 -0.98876548923E+01 -0.69383986730E+02  0.30036665681E+03  0.17176685782E+03 0.  0.
        -24    2    3    3    0    0 -0.24372016640E+03  0.19453538326E+02 -0.80162549202E+02  0.26788153302E+03  0.74542080579E+02 0.  0.
          6    2    1    2  501    0  0.23622948958E+03  0.98876548923E+01  0.41312207933E+03  0.50584959713E+03  0.17120696545E+03 0.  0.
         24    2    5    5    0    0  0.11165950825E+03 -0.34050070016E+02  0.30028596790E+03  0.33206155968E+03  0.80411217160E+02 0.  0.
          5    1    5    5  501    0  0.12456998133E+03  0.43937724909E+02  0.11283611143E+03  0.17378803745E+03  0.47000000000E+01 0. -1.
        -13    1    6    6    0    0  0.77753612029E+01 -0.86327879576E+01  0.13302570424E+03  0.13353209074E+03  0.00000000000E+00 0.  1.
         14    1    6    6    0    0  0.10388414704E+03 -0.25417282059E+02  0.16726026366E+03  0.19852946893E+03  0.00000000000E+00 0. -1.
         -5    1    3    3    0  503  0.74906768208E+01 -0.29341193218E+02  0.10778562472E+02  0.32485123791E+02  0.47000000000E+01 0.  1.
         11    1    4    4    0    0 -0.73817121494E+02  0.40574990907E+02 -0.21972494290E+02  0.87052213172E+02  0.00000000000E+00 0. -1.
        -12    1    4    4    0    0 -0.16990304490E+03 -0.21121452581E+02 -0.58190054913E+02  0.18082931985E+03  0.00000000000E+00 0.  1.
</event>
<event>
12    1  0.8451514E-002  0.2167372E+03  0.7818608E-02  0.1136492E+00
         21   -1    0    0  503  502  0.00000000000E+00  0.00000000000E+00  0.12021082315E+04  0.12021082315E+04  0.00000000000E+00 0. -1.
         21   -1    0    0  501  503 -0.00000000000E+00 -0.00000000000E+00 -0.40243574439E+02  0.40243574439E+02  0.00000000000E+00 0. -1.
          6    2    1    2  501    0  0.12998609212E+03  0.18649149415E+02  0.46779812216E+03  0.51523189815E+03  0.17141951714E+03 0.  0.
         24    2    3    3    0    0  0.54698612611E+01  0.22136791081E+02  0.25850848978E+03  0.27163244082E+03  0.80234573050E+02 0.  0.
         -6    2    1    2    0  502 -0.12998609212E+03 -0.18649149415E+02  0.69406653487E+03  0.72711990776E+03  0.17242630459E+03 0.  0.
        -24    2    5    5    0    0 -0.11930979768E+03  0.22809732153E+02  0.32770994921E+03  0.35824044237E+03  0.78659341719E+02 0.  0.
          5    1    3    3  501    0  0.12451623086E+03 -0.34876416660E+01  0.20928963237E+03  0.24359945733E+03  0.47000000000E+01 0. -1.
        -13    1    4    4    0    0  0.26022134328E+02  0.26629498868E+02  0.24211660488E+03  0.24496271562E+03  0.00000000000E+00 0.  1.
         14    1    4    4    0    0 -0.20552273067E+02 -0.44927077879E+01  0.16391884907E+02  0.26669725201E+02  0.00000000000E+00 0. -1.
         -5    1    5    5    0  502 -0.10676294444E+02 -0.41458881567E+02  0.36635658567E+03  0.36887946539E+03  0.47000000000E+01 0.  1.
         13    1    6    6    0    0 -0.12167917168E+03  0.42850755971E+01  0.24674533323E+03  0.27514985401E+03  0.00000000000E+00 0. -1.
        -14    1    6    6    0    0  0.23693739991E+01  0.18524656556E+02  0.80964615976E+02  0.83090588359E+02  0.00000000000E+00 0.  1.
</event>
<event>
12    1  0.8451514E-002  0.1780946E+03  0.7818608E-02  0.1169903E+00
         21   -1    0    0  501  502  0.00000000000E+00  0.00000000000E+00  0.15989752560E+03  0.15989752560E+03  0.00000000000E+00 0.  1.
         21   -1    0    0  502  503 -0.00000000000E+00 -0.00000000000E+00 -0.33062090425E+03  0.33062090425E+03  0.00000000000E+00 0.  1.
         -6    2    1    2    0  503 -0.49102852864E+02  0.86442112861E+01  0.70260100951E+02  0.19145278633E+03  0.17097331680E+03 0.  0.
        -24    2    3    3    0    0 -0.20803372206E+02 -0.36179049457E+02 -0.13039726040E+02  0.92604738872E+02  0.81632709691E+02 0.  0.
          6    2    1    2  501    0  0.49102852864E+02 -0.86442112861E+01 -0.24098347959E+03  0.29906564352E+03  0.16994531223E+03 0.  0.
         24    2    5    5    0    0 -0.38964230103E+02  0.20749746105E+01 -0.13277122652E+03  0.15905602327E+03  0.78409841204E+02 0.  0.
          5    1    5    5  501    0  0.88067082966E+02 -0.10719185897E+02 -0.10821225307E+03  0.14000962025E+03  0.47000000000E+01 0. -1.
        -13    1    6    6    0    0 -0.28224832077E+02  0.27739173583E+02 -0.12357166946E+03  0.12975384538E+03  0.00000000000E+00 0.  1.
         14    1    6    6    0    0 -0.10739398026E+02 -0.25664198973E+02 -0.91995570624E+01  0.29302177889E+02  0.00000000000E+00 0. -1.
         -5    1    3    3    0  503 -0.28299480658E+02  0.44823260743E+02  0.83299826991E+02  0.98848047456E+02  0.47000000000E+01 0.  1.
         11    1    4    4    0    0  0.72357525985E+01 -0.55986272050E+02 -0.17948973227E+01  0.56480442899E+02  0.00000000000E+00 0. -1.
        -12    1    4    4    0    0 -0.28039124805E+02  0.19807222593E+02 -0.11244828717E+02  0.36124295973E+02  0.00000000000E+00 0.  1.
</event>
<event>
12    1  0.8451514E-002  0.1892989E+03  0.7818608E-02  0.1159872E+00
         21   -1    0    0  503  502  0.00000000000E+00  0.00000000000E+00  0.19488823182E+03  0.19488823182E+03  0.00000000000E+00 0. -1.
         21   -1    0    0  501  503 -0.00000000000E+00 -0.00000000000E+00 -0.24296402664E+03  0.24296402664E+03  0.00000000000E+00 0.  1.
          6    2    1    2  501    0  0.68987066410E+02  0.32171703911E+02 -0.13512431539E+03  0.23257825410E+03  0.17332002137E+03 0.  0.
         24    2    3    3    0    0 -0.27071150442E+02  0.21499711874E+02 -0.90617846194E+02  0.12607009367E+03  0.80541850436E+02 0.  0.
         -6    2    1    2    0  502 -0.68987066410E+02 -0.32171703911E+02  0.87048520566E+02  0.20527400437E+03  0.16960465227E+03 0.  0.
        -24    2    5    5    0    0 -0.11070302722E+03 -0.22821026946E+02  0.70335896512E+02  0.15913228410E+03  0.87177898570E+02 0.  0.
          5    1    3    3  501    0  0.96058216852E+02  0.10671992037E+02 -0.44506469191E+02  0.10650816043E+03  0.47000000000E+01 0. -1.
        -13    1    4    4    0    0  0.12181540557E+02  0.36962628111E+02 -0.67621438173E+02  0.78021052978E+02  0.00000000000E+00 0.  1.
         14    1    4    4    0    0 -0.39252691000E+02 -0.15462916237E+02 -0.22996408021E+02  0.48049040689E+02  0.00000000000E+00 0. -1.
         -5    1    5    5    0  502  0.41715960811E+02 -0.93506769653E+01  0.16712624053E+02  0.46141720263E+02  0.47000000000E+01 0.  1.
         11    1    6    6    0    0 -0.16157961240E+02 -0.39000499363E+02  0.37807149807E+01  0.42384106311E+02  0.00000000000E+00 0. -1.
        -12    1    6    6    0    0 -0.94545065981E+02  0.16179472418E+02  0.66555181532E+02  0.11674817779E+03  0.00000000000E+00 0.  1.
</event>
<event>
12    1  0.8451514E-002  0.1694409E+03  0.7818608E-02  0.1180196E+00
         21   -1    0    0  503  502  0.00000000000E+00  0.00000000000E+00  0.17414733765E+03  0.17414733765E+03  0.00000000000E+00 0. -1.
         21   -1    0    0  501  503 -0.00000000000E+00 -0.00000000000E+00 -0.16658071548E+03  0.16658071548E+03  0.00000000000E+00 0. -1.
          6    2    1    2  501    0  0.30596688777E+02 -0.18809359723E+02 -0.33787071563E+02  0.16631376939E+03  0.15883562039E+03 0.  0.
         24    2    3    3    0    0  0.52872085128E+02  0.25682875674E+02  0.93650728366E+01  0.10028385299E+03  0.80709845077E+02 0.  0.
         -6    2    1    2    0  502 -0.30596688777E+02  0.18809359723E+02  0.41353693737E+02  0.17441428374E+03  0.16559065496E+03 0.  0.
        -24    2    5    5    0    0  0.21473098058E+02  0.11939159620E+02  0.72909482761E+02  0.11296251264E+03  0.82710937086E+02 0.  0.
          5    1    3    3  501    0 -0.22275396350E+02 -0.44492235397E+02 -0.43152144399E+02  0.66029916397E+02  0.47000000000E+01 0. -1.
        -13    1    4    4    0    0  0.13547507098E+01  0.12559401100E+02 -0.31038270911E+02  0.33510418777E+02  0.00000000000E+00 0.  1.
         14    1    4    4    0    0  0.51517334418E+02  0.13123474574E+02  0.40403343747E+02  0.66773434211E+02  0.00000000000E+00 0. -1.
         -5    1    5    5    0  502 -0.52069786835E+02  0.68702001030E+01 -0.31555789024E+02  0.61451771101E+02  0.47000000000E+01 0.  1.
         11    1    6    6    0    0 -0.25842766986E+02  0.41498924111E+01  0.57900904859E+00  0.26180249502E+02  0.00000000000E+00 0. -1.
        -12    1    6    6    0    0  0.47315865044E+02  0.77892672093E+01  0.72330473712E+02  0.86782263142E+02  0.00000000000E+00 0.  1.
</event>
<event>
12    1  0.8451514E-002  0.1901723E+03  0.7818608E-02  0.1158610E+00
         21   -1    0    0  501  502  0.00000000000E+00  0.00000000000E+00  0.24293242001E+03  0.24293242001E+03  0.00000000000E+00 0.  1.
         21   -1    0    0  502  503 -0.00000000000E+00 -0.00000000000E+00 -0.73269497748E+03  0.73269497748E+03  0.00000000000E+00 0.  1.
         -6    2    1    2    0  503 -0.70200379542E+02  0.38252855672E+02 -0.68089219155E+03  0.70695098668E+03  0.17255186698E+03 0.  0.
        -24    2    3    3    0    0 -0.78207023994E+02  0.86630080838E+02 -0.51743421454E+03  0.53623173610E+03  0.78646035606E+02 0.  0.
          6    2    1    2  501    0  0.70200379542E+02 -0.38252855672E+02  0.19112963408E+03  0.26867641080E+03  0.17107046046E+03 0.  0.
         24    2    5    5    0    0  0.95220474554E+02 -0.69581886727E+02  0.11667892076E+03  0.18398572621E+03  0.79549979045E+02 0.  0.
          5    1    5    5  501    0 -0.25020095013E+02  0.31329031055E+02  0.74450713325E+02  0.84690684587E+02  0.47000000000E+01 0. -1.
        -11    1    6    6    0    0  0.86254517666E+02 -0.42280533050E+02  0.12145997066E+03  0.15485480220E+03  0.00000000000E+00 0.  1.
         12    1    6    6    0    0  0.89659568881E+01 -0.27301353677E+02 -0.47810499010E+01  0.29130924010E+02  0.00000000000E+00 0. -1.
         -5    1    3    3    0  503  0.80066444519E+01 -0.48377225166E+02 -0.16345797701E+03  0.17071925058E+03  0.47000000000E+01 0.  1.
         11    1    4    4    0    0  0.61292328349E+01  0.88981264271E+01 -0.65586525583E+01  0.12639623113E+02  0.00000000000E+00 0. -1.
        -12    1    4    4    0    0 -0.84336256829E+02  0.77731954411E+02 -0.51087556199E+03  0.52359211299E+03  0.00000000000E+00 0.  1.
</event>
<event>
12    1  0.8451514E-002  0.1777890E+03  0.7818608E-02  0.1170467E+00
         21   -1    0    0  503  502  0.00000000000E+00  0.00000000000E+00  0.41896768779E+03  0.41896768779E+03  0.00000000000E+00 0.  1.
         21   -1    0    0  501  503 -0.00000000000E+00 -0.00000000000E+00 -0.15719805429E+03  0.15719805429E+03  0.00000000000E+00 0.  1.
          6    2    1    2  501    0 -0.19354312065E+02  0.50553802309E+02 -0.77604523555E+02  0.19398810154E+03  0.16934770485E+03 0.  0.
         24    2    3    3    0    0 -0.67576287285E+02  0.52750684416E+01 -0.72053982635E+02  0.12744171817E+03  0.80344471907E+02 0.  0.
         -6    2    1    2    0  502  0.19354312065E+02 -0.50553802309E+02  0.33937415705E+03  0.38217764055E+03  0.16719645371E+03 0.  0.
        -24    2    5    5    0    0  0.25253933169E+02 -0.62529170252E+02  0.10751769422E+03  0.14988962035E+03  0.79744501045E+02 0.  0.
          5    1    3    3  501    0  0.48221975220E+02  0.45278733867E+02 -0.55505409198E+01  0.66546383367E+02  0.47000000000E+01 0. -1.
        -11    1    4    4    0    0 -0.11148896352E+02 -0.18185827102E+02 -0.61927166978E+02  0.65498062621E+02  0.00000000000E+00 0.  1.
         12    1    4    4    0    0 -0.56427390933E+02  0.23460895544E+02 -0.10126815657E+02  0.61943655548E+02  0.00000000000E+00 0. -1.
         -5    1    5    5    0  502 -0.58996211046E+01  0.11975367943E+02  0.23185646283E+03  0.23228802019E+03  0.47000000000E+01 0.  1.
         13    1    6    6    0    0  0.17895584939E+02 -0.16586828741E+02 -0.77370756949E+01  0.25597601222E+02  0.00000000000E+00 0. -1.
        -14    1    6    6    0    0  0.73583482300E+01 -0.45942341511E+02  0.11525476991E+03  0.12429201913E+03  0.00000000000E+00 0.  1.
</event>
<event>
12    1  0.8451514E-002  0.2262202E+03  0.7818608E-02  0.1130417E+00
         21   -1    0    0  503  502  0.00000000000E+00  0.00000000000E+00  0.40633187956E+03  0.40633187956E+03  0.00000000000E+00 0.  1.
         21   -1    0    0  501  503 -0.00000000000E+00 -0.00000000000E+00 -0.24113297656E+03  0.24113297656E+03  0.00000000000E+00 0. -1.
          6    2    1    2  501    0  0.70083509949E+02  0.13077052343E+03 -0.14376055564E+03  0.26803484038E+03  0.17077163153E+03 0.  0.
         24    2    3    3    0    0  0.55191262045E+02  0.88059659066E+02 -0.16997531466E+03  0.21554388332E+03  0.82261650125E+02 0.  0.
         -6    2    1    2    0  502 -0.70083509949E+02 -0.13077052343E+03  0.30895945864E+03  0.37943001574E+03  0.16278378787E+03 0.  0.
        -24    2    5    5    0    0 -0.38655360754E+01 -0.11205692714E+03  0.13748187010E+03  0.19460125141E+03  0.79979279541E+02 0.  0.
          5    1    3    3  501    0  0.14892247905E+02  0.42710864363E+02  0.26214759027E+02  0.52490957060E+02  0.47000000000E+01 0. -1.
        -13    1    4    4    0    0  0.25297688599E+02  0.25909934801E+02 -0.47739736935E+01  0.36525177545E+02  0.00000000000E+00 0.  1.
         14    1    4    4    0    0  0.29893573446E+02  0.62149724264E+02 -0.16520134097E+03  0.17901870578E+03  0.00000000000E+00 0. -1.
         -5    1    5    5    0  502 -0.66217973874E+02 -0.18713596287E+02  0.17147758854E+03  0.18482876433E+03  0.47000000000E+01 0.  1.
         11    1    6    6    0    0 -0.34983587183E+02 -0.89181195425E+02  0.77312230113E+02  0.12310287533E+03  0.00000000000E+00 0. -1.
        -12    1    6    6    0    0  0.31118051108E+02 -0.22875731716E+02  0.60169639985E+02  0.71498376081E+02  0.00000000000E+00 0.  1.
</event>
<event>
12    1  0.8451514E-002  0.1726532E+03  0.7818608E-02  0.1175238E+00
         21   -1    0    0  501  502  0.00000000000E+00  0.00000000000E+00  0.10181755705E+03  0.10181755705E+03  0.00000000000E+00 0.  1.
         21   -1    0    0  502  503 -0.00000000000E+00 -0.00000000000E+00 -0.34191827379E+03  0.34191827379E+03  0.00000000000E+00 0.  1.
         -6    2    1    2    0  503  0.15611497566E+01  0.36382613048E+01 -0.20504305683E+03  0.26805183276E+03  0.17260780909E+03 0.  0.
        -24    2    3    3    0    0 -0.24649260516E+02  0.37241902459E+02 -0.64602427377E+02  0.12121229208E+03  0.92327681581E+02 0.  0.
          6    2    1    2  501    0 -0.15611497566E+01 -0.36382613048E+01 -0.35057659908E+02  0.17568399809E+03  0.17210506539E+03 0.  0.
         24    2    5    5    0    0 -0.66152100178E+02  0.81697363047E+01 -0.22987092970E+02  0.10875711059E+03  0.82806145372E+02 0.  0.
          5    1    5    5  501    0  0.64590950421E+02 -0.11807997609E+02 -0.12070566939E+02  0.66926887497E+02  0.47000000000E+01 0. -1.
        -11    1    6    6    0    0  0.14627067013E+01 -0.21320162900E+02  0.14683894887E+02  0.25928857013E+02  0.00000000000E+00 0.  1.
         12    1    6    6    0    0 -0.67614806879E+02  0.29489899204E+02 -0.37670987857E+02  0.82828253576E+02  0.00000000000E+00 0. -1.
         -5    1    3    3    0  503  0.26210410272E+02 -0.33603641154E+02 -0.14044062945E+03  0.14683954068E+03  0.47000000000E+01 0.  1.
         11    1    4    4    0    0 -0.87828620267E+01 -0.26711044342E+02 -0.43922202383E+02  0.52151494872E+02  0.00000000000E+00 0. -1.
        -12    1    4    4    0    0 -0.15866398489E+02  0.63952946800E+02 -0.20680224994E+02  0.69060797210E+02  0.00000000000E+00 0.  1.
</event>
<event>
12    1  0.8451514E-002  0.2299415E+03  0.7818608E-02  0.1126777E+00
         21   -1    0    0  503  502  0.00000000000E+00  0.00000000000E+00  0.13717218723E+03  0.13717218723E+03  0.00000000000E+00 0.  1.
         21   -1    0    0  501  503 -0.00000000000E+00 -0.00000000000E+00 -0.58280853145E+03  0.58280853145E+03  0.00000000000E+00 0.  1.
          6    2    1    2  501    0  0.88186898927E+02 -0.12343014804E+03 -0.43296367329E+03  0.49023530428E+03  0.17280387898E+03 0.  0.
         24    2    3    3    0    0  0.11212733717E+03 -0.45631383719E+02 -0.23454972704E+03  0.27572195649E+03  0.79713611873E+02 0.  0.
         -6    2    1    2    0  502 -0.88186898927E+02  0.12343014804E+03 -0.12672670938E+02  0.22974541440E+03  0.17207680919E+03 0.  0.
        -24    2    5    5    0    0 -0.41741949818E+02  0.80420496310E+02 -0.71889405324E+02  0.14293714825E+03  0.83982707457E+02 0.  0.
          5    1    3    3  501    0 -0.23940438242E+02 -0.77798764318E+02 -0.19841394625E+03  0.21451334779E+03  0.47000000000E+01 0. -1.
        -13    1    4    4    0    0  0.59668081925E+02 -0.59294245892E+02 -0.18066023389E+03  0.19928423848E+03  0.00000000000E+00 0.  1.
         14    1    4    4    0    0  0.52459255244E+02  0.13662862173E+02 -0.53889493146E+02  0.76437718013E+02  0.00000000000E+00 0. -1.
         -5    1    5    5    0  502 -0.46444949109E+02  0.43009651727E+02  0.59216734386E+02  0.86808266143E+02  0.47000000000E+01 0.  1.
         11    1    6    6    0    0 -0.64180109850E+02  0.37542717741E+02 -0.51363980992E+02  0.90370352987E+02  0.00000000000E+00 0. -1.
        -12    1    6    6    0    0  0.22438160031E+02  0.42877778569E+02 -0.20525424332E+02  0.52566795267E+02  0.00000000000E+00 0.  1.
</event>
<event>
12    1  0.8451514E-002  0.1840332E+03  0.7818608E-02  0.1164131E+00
         21   -1    0    0  501  502  0.00000000000E+00  0.00000000000E+00  0.26279171029E+03  0.26279171029E+03  0.00000000000E+00 0. -1.
         21   -1    0    0  502  503 -0.00000000000E+00 -0.00000000000E+00 -0.16255727741E+03  0.16255727741E+03  0.00000000000E+00 0. -1.
         -6    2    1    2    0  503  0.10926454913E+02 -0.64635270541E+02 -0.47509633718E+02  0.18934789757E+03  0.17116762370E+03 0.  0.
        -24    2    3    3    0    0 -0.13501919591E+02 -0.10764179445E+03 -0.40556628110E+02  0.13918076822E+03  0.77184120229E+02 0.  0.
          6    2    1    2  501    0 -0.10926454913E+02  0.64635270541E+02  0.14774406660E+03  0.23600109014E+03  0.17196249508E+03 0.  0.
         24    2    5    5    0    0  0.27007732833E+02 -0.65584338173E+01  0.35197635919E+02  0.97450250373E+02  0.86517322176E+02 0.  0.
          5    1    5    5  501    0 -0.37934187746E+02  0.71193704359E+02  0.11254643068E+03  0.13855083977E+03  0.47000000000E+01 0. -1.
        -13    1    6    6    0    0  0.57076515941E+00 -0.42174137009E+02  0.32068652513E+02  0.52984734399E+02  0.00000000000E+00 0.  1.
         14    1    6    6    0    0  0.26436967674E+02  0.35615703192E+02  0.31289834055E+01  0.44465515973E+02  0.00000000000E+00 0. -1.
         -5    1    3    3    0  503  0.24428374504E+02  0.43006523906E+02 -0.69530056088E+01  0.50167129341E+02  0.47000000000E+01 0.  1.
         13    1    4    4    0    0  0.21811619652E+02 -0.89659192924E+02 -0.19525593377E+02  0.94317370746E+02  0.00000000000E+00 0. -1.
        -14    1    4    4    0    0 -0.35313539243E+02 -0.17982601522E+02 -0.21031034733E+02  0.44863397478E+02  0.00000000000E+00 0.  1.
</event>
<event>
12    1  0.8451514E-002  0.1901081E+03  0.7818608E-02  0.1160848E+00
         21   -1    0    0  503  502  0.00000000000E+00  0.00000000000E+00  0.14100296976E+03  0.14100296976E+03  0.00000000000E+00 0. -1.
         21   -1    0    0  501  503 -0.00000000000E+00 -0.00000000000E+00 -0.42345388574E+03  0.42345388574E+03  0.00000000000E+00 0. -1.
          6    2    1    2  501    0  0.17114548549E+02 -0.49378390528E+02 -0.32821068784E+03  0.37929324186E+03  0.18278395577E+03 0.  0.
         24    2    3    3    0    0 -0.45554514454E+02  0.23174571534E+02 -0.15878980172E+03  0.18457069459E+03  0.78992820044E+02 0.  0.
         -6    2    1    2    0  502 -0.17114548549E+02  0.49378390528E+02  0.45759771856E+02  0.18516361364E+03  0.17164053680E+03 0.  0.
        -24    2    5    5    0    0 -0.50261496686E+02 -0.73592506346E+01  0.62547554876E+02  0.11717979384E+03  0.85079555979E+02 0.  0.
          5    1    3    3  501    0  0.62669063003E+02 -0.72552962062E+02 -0.16942088612E+03  0.19472254727E+03  0.47000000000E+01 0. -1.
        -11    1    4    4    0    0 -0.73440589648E+01 -0.23335478157E+01  0.82730158311E+01  0.11305902813E+02  0.00000000000E+00 0.  1.
         12    1    4    4    0    0 -0.38210455489E+02  0.25508119350E+02 -0.16706281755E+03  0.17326479178E+03  0.00000000000E+00 0. -1.
         -5    1    5    5    0  502  0.33146948137E+02  0.56737641162E+02 -0.16787783020E+02  0.67983819797E+02  0.47000000000E+01 0.  1.
         13    1    6    6    0    0  0.90467802909E+01  0.73527996827E+01  0.54279352926E+02  0.55517168974E+02  0.00000000000E+00 0. -1.
        -14    1    6    6    0    0 -0.59308276977E+02 -0.14712050317E+02  0.82682019504E+01  0.61662624871E+02  0.00000000000E+00 0.  1.
</event>
<event>
12    1  0.8451514E-002  0.2180749E+03  0.7818608E-02  0.1135795E+00
         21   -1    0    0  503  502  0.00000000000E+00  0.00000000000E+00  0.79022416243E+02  0.79022416243E+02  0.00000000000E+00 0. -1.
         21   -1    0    0  501  503 -0.00000000000E+00 -0.00000000000E+00 -0.67635127145E+03  0.67635127145E+03  0.00000000000E+00 0. -1.
          6    2    1    2  501    0 -0.13050871039E+03 -0.79172232083E+01 -0.43113305660E+03  0.48314838784E+03  0.17453207805E+03 0.  0.
         24    2    3    3    0    0 -0.40646432727E+02  0.42927838950E+02 -0.30179586209E+03  0.31758677038E+03  0.79282296230E+02 0.  0.
         -6    2    1    2    0  502  0.13050871039E+03  0.79172232083E+01 -0.16619579860E+03  0.27222529985E+03  0.17143618199E+03 0.  0.
        -24    2    5    5    0    0  0.93256087023E+02 -0.47542249639E+02 -0.59938315338E+02  0.14662174168E+03  0.83356884653E+02 0.  0.
          5    1    3    3  501    0 -0.89862277661E+02 -0.50845062158E+02 -0.12933719452E+03  0.16556161746E+03  0.47000000000E+01 0. -1.
        -11    1    4    4    0    0 -0.43251438731E+02  0.44508327846E+02 -0.30609171218E+03  0.31232005133E+03  0.00000000000E+00 0.  1.
         12    1    4    4    0    0  0.26050060035E+01 -0.15804888967E+01  0.42958500945E+01  0.52667190418E+01  0.00000000000E+00 0. -1.
         -5    1    5    5    0  502  0.37252623365E+02  0.55459472847E+02 -0.10625748327E+03  0.12560355817E+03  0.47000000000E+01 0.  1.
         13    1    6    6    0    0  0.58301822772E+02 -0.53627329243E+02 -0.74052141038E+02  0.10843759760E+03  0.00000000000E+00 0. -1.
        -14    1    6    6    0    0  0.34954264252E+02  0.60850796048E+01  0.14113825701E+02  0.38184144079E+02  0.00000000000E+00 0.  1.
</event>
<event>
12    1  0.8451514E-002  0.1746382E+03  0.7818608E-02  0.1173111E+00
         21   -1    0    0  501  502  0.00000000000E+00  0.00000000000E+00  0.19133819324E+03  0.19133819324E+03  0.00000000000E+00 0.  1.
         21   -1    0    0  502  503 -0.00000000000E+00 -0.00000000000E+00 -0.17221526521E+03  0.17221526521E+03  0.00000000000E+00 0.  1.
         -6    2    1    2    0  503  0.28045832357E+02 -0.73911309453E+01  0.59266454818E+02  0.18436079067E+03  0.17214874655E+03 0.  0.
        -24    2    3    3    0    0 -0.87335526748E+01  0.58029138625E+02  0.34053111918E+02  0.10504914276E+03  0.80200075381E+02 0.  0.
          6    2    1    2  501    0 -0.28045832357E+02  0.73911309453E+01 -0.40143526784E+02  0.17919266778E+03  0.17221298416E+03 0.  0.
         24    2    5    5    0    0 -0.49916999172E+02 -0.53150666224E+02 -0.32209401680E+02  0.11416423182E+03  0.81727144468E+02 0.  0.
          5    1    5    5  501    0  0.21871166815E+02  0.60541797170E+02 -0.79341251045E+01  0.65028435961E+02  0.47000000000E+01 0. -1.
        -11    1    6    6    0    0  0.15536558830E+02 -0.16087367595E+02 -0.31882743236E+02  0.38944799045E+02  0.00000000000E+00 0.  1.
         12    1    6    6    0    0 -0.65453558002E+02 -0.37063298630E+02 -0.32665844330E+00  0.75219432770E+02  0.00000000000E+00 0. -1.
         -5    1    3    3    0  503  0.36779385032E+02 -0.65420269571E+02  0.25213342900E+02  0.79311647910E+02  0.47000000000E+01 0.  1.
         11    1    4    4    0    0 -0.44656987501E+02  0.33995769166E+02  0.20529468403E+02  0.59761341408E+02  0.00000000000E+00 0. -1.
        -12    1    4    4    0    0  0.35923434827E+02  0.24033369459E+02  0.13523643514E+02  0.45287801351E+02  0.00000000000E+00 0.  1.
</event>
<event>
12    1  0.8451514E-002  0.1786484E+03  0.7818608E-02  0.1169128E+00
         21   -1    0    0  503  502  0.00000000000E+00  0.00000000000E+00  0.13233344198E+03  0.13233344198E+03  0.00000000000E+00 0. -1.
         21   -1    0    0  501  503 -0.00000000000E+00 -0.00000000000E+00 -0.24902588262E+03  0.24902588262E+03  0.00000000000E+00 0. -1.
          6    2    1    2  501    0 -0.39399742443E+02 -0.20855159850E+02 -0.24350754595E+02  0.18025676406E+03  0.17295162429E+03 0.  0.
         24    2    3    3    0    0 -0.42229950258E+02  0.49745879815E+02 -0.35085407022E+02  0.10863386520E+03  0.79450044843E+02 0.  0.
         -6    2    1    2    0  502  0.39399742443E+02  0.20855159850E+02 -0.92341686042E+02  0.20110256054E+03  0.17299703893E+03 0.  0.
        -24    2    5    5    0    0  0.81214888228E+02 -0.27128653094E+02 -0.63071160745E+02  0.13088998066E+03  0.76304612129E+02 0.  0.
          5    1    3    3  501    0  0.28302078147E+01 -0.70601039665E+02  0.10734652427E+02  0.71622898858E+02  0.47000000000E+01 0. -1.
        -11    1    4    4    0    0  0.61153119181E+01 -0.18169636652E+02 -0.35140667786E+01  0.19490546458E+02  0.00000000000E+00 0.  1.
         12    1    4    4    0    0 -0.48345262176E+02  0.67915516467E+02 -0.31571340244E+02  0.89143318744E+02  0.00000000000E+00 0. -1.
         -5    1    5    5    0  502 -0.41815145785E+02  0.47983812945E+02 -0.29270525298E+02  0.70212579877E+02  0.47000000000E+01 0.  1.
         11    1    6    6    0    0  0.31977520932E+02  0.17251862450E+02 -0.52377169602E+02  0.63746031237E+02  0.00000000000E+00 0. -1.
        -12    1    6    6    0    0  0.49237367297E+02 -0.44380515544E+02 -0.10693991143E+02  0.67143949428E+02  0.00000000000E+00 0.  1.
</event>
<event>
12    1  0.8451514E-002  0.1901592E+03  0.7818608E-02  0.1158394E+00
         21   -1    0    0  503  502  0.00000000000E+00  0.00000000000E+00  0.13608294469E+04  0.13608294469E+04  0.00000000000E+00 0. -1.
         21   -1    0    0  501  503 -0.00000000000E+00 -0.00000000000E+00 -0.30186215542E+02  0.30186215542E+02  0.00000000000E+00 0. -1.
          6    2    1    2  501    0 -0.23551158590E+02 -0.76869105621E+02  0.42362626855E+03  0.46434872083E+03  0.17232818301E+03 0.  0.
         24    2    3    3    0    0 -0.11303714791E+02 -0.72505727750E+02  0.12510771202E+03  0.16551020667E+03  0.79729758452E+02 0.  0.
         -6    2    1    2    0  502  0.23551158590E+02  0.76869105621E+02  0.90701696284E+03  0.92666694165E+03  0.17195445150E+03 0.  0.
        -24    2    5    5    0    0  0.73536594242E+02  0.13066627383E+02  0.58692433141E+03  0.59643871344E+03  0.75369759513E+02 0.  0.
          5    1    3    3  501    0 -0.12247443799E+02 -0.43633778706E+01  0.29851855653E+03  0.29883851415E+03  0.47000000000E+01 0. -1.
        -11    1    4    4    0    0 -0.19935710269E+02  0.91015239593E+01  0.48612113466E+02  0.53323614450E+02  0.00000000000E+00 0.  1.
         12    1    4    4    0    0  0.86319954780E+01 -0.81607251710E+02  0.76495598550E+02  0.11218659222E+03  0.00000000000E+00 0. -1.
         -5    1    5    5    0  502 -0.49985435652E+02  0.63802478238E+02  0.32009263143E+03  0.33022822821E+03  0.47000000000E+01 0.  1.
         11    1    6    6    0    0  0.53663239559E+01  0.33910959561E+02  0.21855455951E+03  0.22123482116E+03  0.00000000000E+00 0. -1.
        -12    1    6    6    0    0  0.68170270286E+02 -0.20844332178E+02  0.36836977189E+03  0.37520389228E+03  0.00000000000E+00 0.  1.
</event>
<event>
12    1  0.8451514E-002  0.2004625E+03  0.7818608E-02  0.1149700E+00
         21   -1    0    0  501  502  0.00000000000E+00  0.00000000000E+00  0.43930649816E+03  0.43930649816E+03  0.00000000000E+00 0.  1.
         21   -1    0    0  502  503 -0.00000000000E+00 -0.00000000000E+00 -0.17807861446E+03  0.17807861446E+03  0.00000000000E+00 0.  1.
         -6    2    1    2    0  503  0.76298726102E+02 -0.65522621982E+02 -0.85318364530E+02  0.21786337372E+03  0.17340852542E+03 0.  0.
        -24    2    3    3    0    0  0.38799996709E+02 -0.14446647394E+02  0.22299086186E+02  0.92889314077E+02  0.80106367159E+02 0.  0.
          6    2    1    2  501    0 -0.76298726102E+02  0.65522621982E+02  0.34654624823E+03  0.39952173890E+03  0.17148938187E+03 0.  0.
         24    2    5    5    0    0  0.45283838813E+01  0.10713700013E+02  0.24645609487E+03  0.25960330396E+03  0.80734002136E+02 0.  0.
          5    1    5    5  501    0 -0.80827109983E+02  0.54808921969E+02  0.10009015336E+03  0.13991843494E+03  0.47000000000E+01 0. -1.
        -11    1    6    6    0    0  0.20125169521E+02  0.32958855631E+02  0.21315892560E+03  0.21662879812E+03  0.00000000000E+00 0.  1.
         12    1    6    6    0    0 -0.15596785640E+02 -0.22245155618E+02  0.33297169268E+02  0.42974505838E+02  0.00000000000E+00 0. -1.
         -5    1    3    3    0  503  0.37498729393E+02 -0.51075974588E+02 -0.10761745072E+03  0.12497405965E+03  0.47000000000E+01 0.  1.
         11    1    4    4    0    0 -0.17859522774E+02 -0.24472070552E+02  0.17883597122E+02  0.35180503647E+02  0.00000000000E+00 0. -1.
        -12    1    4    4    0    0  0.56659519483E+02  0.10025423158E+02  0.44154890637E+01  0.57708810430E+02  0.00000000000E+00 0.  1.
</event>
<event>
12    1  0.8451514E-002  0.2011668E+03  0.7818608E-02  0.1148828E+00
         21   -1    0    0  501  502  0.00000000000E+00  0.00000000000E+00  0.40257790556E+02  0.40257790556E+02  0.00000000000E+00 0.  1.
         21   -1    0    0  502  503 -0.00000000000E+00 -0.00000000000E+00 -0.11934996240E+04  0.11934996240E+04  0.00000000000E+00 0.  1.
         -6    2    1    2    0  503  0.10419695072E+03  0.11219331426E+01 -0.33093050721E+03  0.38727648375E+03  0.17207501557E+03 0.  0.
        -24    2    3    3    0    0 -0.24647675238E+01 -0.63228668738E+01 -0.66441750744E+02  0.10195466634E+03  0.77033720038E+02 0.  0.
          6    2    1    2  501    0 -0.10419695072E+03 -0.11219331426E+01 -0.82231132624E+03  0.84648093082E+03  0.17168513536E+03 0.  0.
         24    2    5    5    0    0 -0.11567309550E+03 -0.35526465624E+02 -0.76377152285E+03  0.77745649794E+03  0.80307361326E+02 0.  0.
          5    1    5    5  501    0  0.11476144773E+02  0.34404532481E+02 -0.58539803388E+02  0.69024432883E+02  0.47000000000E+01 0. -1.
        -13    1    6    6    0    0 -0.74597712106E+02 -0.23825184603E+02 -0.66823466000E+03  0.67280756453E+03  0.00000000000E+00 0.  1.
         14    1    6    6    0    0 -0.41075383390E+02 -0.11701281021E+02 -0.95536862856E+02  0.10464893340E+03  0.00000000000E+00 0. -1.
         -5    1    3    3    0  503  0.10666171825E+03  0.74448000163E+01 -0.26448875647E+03  0.28532181740E+03  0.47000000000E+01 0.  1.
         11    1    4    4    0    0 -0.37058709494E+01  0.35224074330E+02 -0.35408260775E+02  0.50082070874E+02  0.00000000000E+00 0. -1.
        -12    1    4    4    0    0  0.12411034257E+01 -0.41546941204E+02 -0.31033489969E+02  0.51872595469E+02  0.00000000000E+00 0.  1.
</event>
<event>
12    1  0.8451514E-002  0.2238943E+03  0.7818608E-02  0.1131233E+00
         21   -1    0    0  503  502  0.00000000000E+00  0.00000000000E+00  0.39150033352E+02  0.39150033352E+02  0.00000000000E+00 0.  1.
         21   -1    0    0  501  503 -0.00000000000E+00 -0.00000000000E+00 -0.12740654291E+04  0.12740654291E+04  0.00000000000E+00 0. -1.
          6    2    1    2  501    0 -0.13462223429E+03 -0.47404503420E+02 -0.63261388383E+03  0.67106557166E+03  0.17250606525E+03 0.  0.
         24    2    3    3    0    0 -0.12591214360E+03 -0.92154836305E+02 -0.53754212791E+03  0.56552322591E+03  0.80737835033E+02 0.  0.
         -6    2    1    2    0  502  0.13462223429E+03  0.47404503420E+02 -0.60230151195E+03  0.64214989083E+03  0.17093577178E+03 0.  0.
        -24    2    5    5    0    0  0.10961466177E+03 -0.29594028572E+02 -0.32462720467E+03  0.35287620806E+03  0.79041859818E+02 0.  0.
          5    1    3    3  501    0 -0.87100906867E+01  0.44750332885E+02 -0.95071755913E+02  0.10554234575E+03  0.47000000000E+01 0. -1.
        -13    1    4    4    0    0 -0.17809862246E+02 -0.47463767478E+02 -0.25018021250E+03  0.25526484119E+03  0.00000000000E+00 0.  1.
         14    1    4    4    0    0 -0.10810228135E+03 -0.44691068827E+02 -0.28736191541E+03  0.31025838473E+03  0.00000000000E+00 0. -1.
         -5    1    5    5    0  502  0.25007572515E+02  0.76998531992E+02 -0.27767430729E+03  0.28927368277E+03  0.47000000000E+01 0.  1.
         11    1    6    6    0    0  0.11089760597E+02  0.50198524250E+01 -0.14184086522E+03  0.14236225889E+03  0.00000000000E+00 0. -1.
        -12    1    6    6    0    0  0.98524901175E+02 -0.34613880997E+02 -0.18278633944E+03  0.21051394917E+03  0.00000000000E+00 0.  1.
</event>
<event>
12    1  0.8451514E-002  0.1787152E+03  0.7818608E-02  0.1169124E+00
         21   -1    0    0  503  502  0.00000000000E+00  0.00000000000E+00  0.14644474986E+03  0.14644474986E+03  0.00000000000E+00 0.  1.
         21   -1    0    0  501  503 -0.00000000000E+00 -0.00000000000E+00 -0.21859771625E+03  0.21859771625E+03  0.00000000000E+00 0.  1.
          6    2    1    2  501    0  0.16615441826E+02  0.42000336939E+02 -0.24621589717E+02  0.18011447299E+03  0.17261199115E+03 0.  0.
         24    2    3    3    0    0  0.62792745981E+01  0.77188762364E+02 -0.62889709605E+02  0.12690168659E+03  0.78430785787E+02 0.  0.
         -6    2    1    2    0  502 -0.16615441826E+02 -0.42000336939E+02 -0.47531376668E+02  0.18492799312E+03  0.17291335883E+03 0.  0.
        -24    2    5    5    0    0  0.36594707792E+02  0.23017436921E+02 -0.56397638030E+01  0.90929970970E+02  0.79796476388E+02 0.  0.
          5    1    3    3  501    0  0.10336167227E+02 -0.35188425426E+02  0.38268119889E+02  0.53212786402E+02  0.47000000000E+01 0. -1.
        -13    1    4    4    0    0  0.21226848815E+02 -0.79802610318E+01 -0.62170627843E+01  0.23514156298E+02  0.00000000000E+00 0.  1.
         14    1    4    4    0    0 -0.14947574217E+02  0.85169023396E+02 -0.56672646821E+02  0.10338753029E+03  0.00000000000E+00 0. -1.
         -5    1    5    5    0  502 -0.53210149618E+02 -0.65017773860E+02 -0.41891612865E+02  0.93998022152E+02  0.47000000000E+01 0.  1.
         11    1    6    6    0    0  0.25025974053E+02 -0.52213203420E+01 -0.38417135107E+02  0.46145832241E+02  0.00000000000E+00 0. -1.
        -12    1    6    6    0    0  0.11568733739E+02  0.28238757263E+02  0.32777371304E+02  0.44784138729E+02  0.00000000000E+00 0.  1.
</event>
<event>
12    1  0.8451514E-002  0.2197752E+03  0.7818608E-02  0.1134126E+00
         21   -1    0    0  503  502  0.00000000000E+00  0.00000000000E+00  0.18470650950E+04  0.18470650950E+04  0.00000000000E+00 0.  1.
         21   -1    0    0  501  503 -0.00000000000E+00 -0.00000000000E+00 -0.74959029507E+02  0.74959029507E+02  0.00000000000E+00 0.  1.
          6    2    1    2  501    0 -0.80612254605E+02 -0.10952513922E+03  0.11048423683E+03  0.24598352932E+03  0.17264714997E+03 0.  0.
         24    2    3    3    0    0  0.15545440868E+02 -0.65787681376E+02  0.19172351673E+02  0.10627233438E+03  0.79727976483E+02 0.  0.
         -6    2    1    2    0  502  0.80612254605E+02  0.10952513922E+03  0.16616218287E+04  0.16760405952E+04  0.17213623541E+03 0.  0.
        -24    2    5    5    0    0  0.81051214611E+02  0.36523000816E+02  0.58492519407E+03  0.59686163050E+03  0.78759725288E+02 0.  0.
          5    1    3    3  501    0 -0.96157695473E+02 -0.43737457847E+02  0.91311885161E+02  0.13971119493E+03  0.47000000000E+01 0. -1.
        -11    1    4    4    0    0 -0.67177458689E+01 -0.13181001042E+02 -0.28341926110E+02  0.31970794073E+02  0.00000000000E+00 0.  1.
         12    1    4    4    0    0  0.22263186737E+02 -0.52606680334E+02  0.47514277782E+02  0.74301540311E+02  0.00000000000E+00 0. -1.
         -5    1    5    5    0  502 -0.43896000570E+00  0.73002138407E+02  0.10766966346E+04  0.10791789647E+04  0.47000000000E+01 0.  1.
         13    1    6    6    0    0 -0.92435697993E+01  0.25804836029E+02  0.11516039938E+03  0.11837757698E+03  0.00000000000E+00 0. -1.
        -14    1    6    6    0    0  0.90294784410E+02  0.10718164786E+02  0.46976479469E+03  0.47848405353E+03  0.00000000000E+00 0.  1.
</event>
<event>
12    1  0.8451514E-002  0.1826995E+03  0.7818608E-02  0.1165789E+00
         21   -1    0    0  503  502  0.00000000000E+00  0.00000000000E+00  0.26030241020E+04  0.26030241020E+04  0.00000000000E+00 0.  1.
         21   -1    0    0  501  503 -0.00000000000E+00 -0.00000000000E+00 -0.17516684824E+02  0.17516684824E+02  0.00000000000E+00 0.  1.
          6    2    1    2  501    0  0.53934235559E+02 -0.30947315339E+01  0.59632514092E+03  0.62298597541E+03  0.17201561769E+03 0.  0.
         24    2    3    3    0    0  0.75280884140E+02 -0.45821757625E+02  0.30261572592E+03  0.32538122305E+03  0.80807287739E+02 0.  0.
         -6    2    1    2    0  502 -0.53934235559E+02  0.30947315339E+01  0.19891822763E+04  0.19975548115E+04  0.17452970327E+03 0.  0.
        -24    2    5    5    0    0 -0.88540377332E+02 -0.40726278659E+02  0.13139479256E+04  0.13199993640E+04  0.80256723422E+02 0.  0.
          5    1    3    3  501    0 -0.21346648581E+02  0.42727026091E+02  0.29370941500E+03  0.29760475235E+03  0.47000000000E+01 0. -1.
        -11    1    4    4    0    0 -0.63815385445E+01 -0.11404286380E+02  0.36654635612E+01  0.13572671260E+02  0.00000000000E+00 0.  1.
         12    1    4    4    0    0  0.81662422685E+02 -0.34417471245E+02  0.29895026236E+03  0.31180855179E+03  0.00000000000E+00 0. -1.
         -5    1    5    5    0  502  0.34606141773E+02  0.43821010193E+02  0.67523435071E+03  0.67755544744E+03  0.47000000000E+01 0.  1.
         11    1    6    6    0    0 -0.44671681752E+02 -0.56128034758E+02  0.55314564870E+03  0.55777775512E+03  0.00000000000E+00 0. -1.
        -12    1    6    6    0    0 -0.43868695580E+02  0.15401756099E+02  0.76080227689E+03  0.76222160890E+03  0.00000000000E+00 0.  1.
</event>
<event>
12    1  0.8451514E-002  0.1730501E+03  0.7818608E-02  0.1175067E+00
         21   -1    0    0  503  502  0.00000000000E+00  0.00000000000E+00  0.17253892041E+03  0.17253892041E+03  0.00000000000E+00 0. -1.
         21   -1    0    0  501  503 -0.00000000000E+00 -0.00000000000E+00 -0.19735968875E+03  0.19735968875E+03  0.00000000000E+00 0. -1.
          6    2    1    2  501    0 -0.14181185303E+02 -0.13512002847E+02 -0.78566660360E+02  0.19005014512E+03  0.17193794608E+03 0.  0.
         24    2    3    3    0    0 -0.16627558799E+02 -0.59308153090E+02 -0.96630714309E+02  0.14053578189E+03  0.81356489043E+02 0.  0.
         -6    2    1    2    0  502  0.14181185303E+02  0.13512002847E+02  0.53745892021E+02  0.17984846405E+03  0.17050855954E+03 0.  0.
        -24    2    5    5    0    0  0.13936059099E+02 -0.57513489918E+02  0.37628773630E+02  0.10686536865E+03  0.80636636500E+02 0.  0.
          5    1    3    3  501    0  0.24463734960E+01  0.45796150243E+02  0.18064053949E+02  0.49514363224E+02  0.47000000000E+01 0. -1.
        -11    1    4    4    0    0  0.30213084626E+02 -0.76302683983E+01 -0.39921982813E+02  0.50644014356E+02  0.00000000000E+00 0.  1.
         12    1    4    4    0    0 -0.46840643425E+02 -0.51677884692E+02 -0.56708731496E+02  0.89891767535E+02  0.00000000000E+00 0. -1.
         -5    1    5    5    0  502  0.24512620461E+00  0.71025492765E+02  0.16117118391E+02  0.72983095403E+02  0.47000000000E+01 0.  1.
         11    1    6    6    0    0  0.86707967424E+01 -0.29992626581E+02  0.62201313092E+02  0.69597009388E+02  0.00000000000E+00 0. -1.
        -12    1    6    6    0    0  0.52652623563E+01 -0.27520863337E+02 -0.24572539462E+02  0.37268359262E+02  0.00000000000E+00 0.  1.
</event>
<event>
12    1  0.8451514E-002  0.2468730E+03  0.7818608E-02  0.1115692E+00
         21   -1    0    0  501  502  0.00000000000E+00  0.00000000000E+00  0.85425120174E+02  0.85425120174E+02  0.00000000000E+00 0.  1.
         21   -1    0    0  502  503 -0.00000000000E+00 -0.00000000000E+00 -0.70649954340E+03  0.70649954340E+03  0.00000000000E+00 0.  1.
         -6    2    1    2    0  503  0.36778666643E+02 -0.17019139942E+03 -0.30732304536E+03  0.39420009958E+03  0.17500994698E+03 0.  0.
        -24    2    3    3    0    0 -0.36471219810E+02 -0.73827114950E+02 -0.20481974535E+03  0.23551601815E+03  0.82073588582E+02 0.  0.
          6    2    1    2  501    0 -0.36778666643E+02  0.17019139942E+03 -0.31375137787E+03  0.39772456400E+03  0.17154334419E+03 0.  0.
         24    2    5    5    0    0 -0.84332457482E+02  0.74564610304E+02 -0.17699871278E+03  0.22414683723E+03  0.79002631730E+02 0.  0.
          5    1    5    5  501    0  0.47553790839E+02  0.95626789117E+02 -0.13675266509E+03  0.17357772677E+03  0.47000000000E+01 0. -1.
        -11    1    6    6    0    0 -0.72187837375E+02  0.80050684199E+02 -0.10345646369E+03  0.14940694691E+03  0.00000000000E+00 0.  1.
         12    1    6    6    0    0 -0.12144620107E+02 -0.54860738953E+01 -0.73542249083E+02  0.74739890316E+02  0.00000000000E+00 0. -1.
         -5    1    3    3    0  503  0.73249886453E+02 -0.96364284470E+02 -0.10250330001E+03  0.15868408143E+03  0.47000000000E+01 0.  1.
         11    1    4    4    0    0 -0.32103845234E+02 -0.71027842677E+02 -0.84031138824E+02  0.11461607045E+03  0.00000000000E+00 0. -1.
        -12    1    4    4    0    0 -0.43673745762E+01 -0.27992722732E+01 -0.12078860653E+03  0.12089994770E+03  0.00000000000E+00 0.  1.
</event>
<event>
12    1  0.8451514E-002  0.2088077E+03  0.7818608E-02  0.1144519E+00
         21   -1    0    0  503  502  0.00000000000E+00  0.00000000000E+00  0.50188169653E+03  0.50188169653E+03  0.00000000000E+00 0.  1.
         21   -1    0    0  501  503 -0.00000000000E+00 -0.00000000000E+00 -0.17267889636E+03  0.17267889636E+03  0.00000000000E+00 0. -1.
          6    2    1    2  501    0 -0.81683097045E+02 -0.60206554319E+02 -0.76739003310E+02  0.22246246796E+03  0.18249306151E+03 0.  0.
         24    2    3    3    0    0  0.21563674929E+02 -0.15274634352E+02  0.10263436727E+02  0.80088706592E+02  0.74903646501E+02 0.  0.
         -6    2    1    2    0  502  0.81683097045E+02  0.60206554319E+02  0.40594180348E+03  0.45209812493E+03  0.17119290063E+03 0.  0.
        -24    2    5    5    0    0  0.12371858021E+03  0.47778170546E+02  0.31860158571E+03  0.35426229198E+03  0.80035994618E+02 0.  0.
          5    1    3    3  501    0 -0.10324677197E+03 -0.44931919967E+02 -0.87002440037E+02  0.14237376137E+03  0.47000000000E+01 0. -1.
        -13    1    4    4    0    0  0.20645665060E+02  0.19040251420E+02  0.29506488901E+02  0.40735826334E+02  0.00000000000E+00 0.  1.
         14    1    4    4    0    0  0.91800986879E+00 -0.34314885771E+02 -0.19243052174E+02  0.39352880258E+02  0.00000000000E+00 0. -1.
         -5    1    5    5    0  502 -0.42035483164E+02  0.12428383772E+02  0.87340217773E+02  0.97835832948E+02  0.47000000000E+01 0.  1.
         13    1    6    6    0    0  0.37178800783E+02 -0.12492633646E+02  0.38476000236E+02  0.54942986060E+02  0.00000000000E+00 0. -1.
        -14    1    6    6    0    0  0.86539779426E+02  0.60270804192E+02  0.28012558547E+03  0.29931930592E+03  0.00000000000E+00 0.  1.
</event>
<event>
12    1  0.8451514E-002  0.1802554E+03  0.7818608E-02  0.1167937E+00
         21   -1    0    0  503  502  0.00000000000E+00  0.00000000000E+00  0.49158731607E+03  0.49158731607E+03  0.00000000000E+00 0. -1.
         21   -1    0    0  501  503 -0.00000000000E+00 -0.00000000000E+00 -0.23414608256E+03  0.23414608256E+03  0.00000000000E+00 0. -1.
          6    2    1    2  501    0  0.19800443095E+02 -0.44177302769E+02 -0.17937490432E+03  0.25318672973E+03  0.17200137264E+03 0.  0.
         24    2    3    3    0    0 -0.60582631157E+01 -0.10127817687E+01 -0.16227550286E+02  0.82391537510E+02  0.80543800420E+02 0.  0.
         -6    2    1    2    0  502 -0.19800443095E+02  0.44177302769E+02  0.43681613783E+03  0.47254666890E+03  0.17363272847E+03 0.  0.
        -24    2    5    5    0    0  0.49832573440E+02  0.94695832254E+00  0.28212470470E+03  0.29742057388E+03  0.79877823342E+02 0.  0.
          5    1    3    3  501    0  0.25858706210E+02 -0.43164521000E+02 -0.16314735403E+03  0.17079519222E+03  0.47000000000E+01 0. -1.
        -11    1    4    4    0    0 -0.37249581916E+02 -0.54536966073E+01 -0.29871609924E+02  0.48058165166E+02  0.00000000000E+00 0.  1.
         12    1    4    4    0    0  0.31191318801E+02  0.44409148386E+01  0.13644059638E+02  0.34333372344E+02  0.00000000000E+00 0. -1.
         -5    1    5    5    0  502 -0.69633016535E+02  0.43230344446E+02  0.15469143313E+03  0.17512609502E+03  0.47000000000E+01 0.  1.
         13    1    6    6    0    0  0.28478170284E+02  0.40081607416E+02  0.13419347940E+03  0.14291756837E+03  0.00000000000E+00 0. -1.
        -14    1    6    6    0    0  0.21354403156E+02 -0.39134649093E+02  0.14793122529E+03  0.15450300551E+03  0.00000000000E+00 0.  1.
</event>
<event>
12    1  0.8451514E-002  0.1974231E+03  0.7818608E-02  0.1152219E+00
         21   -1    0    0  501  502  0.00000000000E+00  0.00000000000E+00  0.12655195045E+03  0.12655195045E+03  0.00000000000E+00 0. -1.
         21   -1    0    0  502  503 -0.00000000000E+00 -0.00000000000E+00 -0.51202828272E+03  0.51202828272E+03  0.00000000000E+00 0. -1.
         -6    2    1    2    0  503  0.95087576064E+02  0.73463139909E+01 -0.39493048207E+03  0.44093087186E+03  0.17133106151E+03 0.  0.
        -24    2    3    3    0    0  0.77248564418E+02  0.49370654716E+02 -0.36819657081E+03  0.38781714895E+03  0.80178700480E+02 0.  0.
          6    2    1    2  501    0 -0.95087576064E+02 -0.73463139909E+01  0.94541498024E+01  0.19764936131E+03  0.17285911497E+03 0.  0.
         24    2    5    5    0    0 -0.32571942713E+02  0.59474831000E+02  0.95775536473E+01  0.10602308200E+03  0.80938108509E+02 0.  0.
          5    1    5    5  501    0 -0.62515633351E+02 -0.66821144991E+02 -0.12340384491E+00  0.91626279308E+02  0.47000000000E+01 0. -1.
        -13    1    6    6    0    0 -0.59076772678E+02  0.44820374522E+02 -0.33613204287E+00  0.74155539423E+02  0.00000000000E+00 0.  1.
         14    1    6    6    0    0  0.26504829965E+02  0.14654456479E+02  0.99136856902E+01  0.31867542581E+02  0.00000000000E+00 0. -1.
         -5    1    3    3    0  503  0.17839011646E+02 -0.42024340725E+02 -0.26733911258E+02  0.53113722907E+02  0.47000000000E+01 0.  1.
         11    1    4    4    0    0  0.19270588156E+02  0.50867807909E+02 -0.10440874049E+03  0.11772881780E+03  0.00000000000E+00 0. -1.
        -12    1    4    4    0    0  0.57977976262E+02 -0.14971531922E+01 -0.26378783032E+03  0.27008833115E+03  0.00000000000E+00 0.  1.
</event>
<event>
12    1  0.8451514E-002  0.3410483E+03  0.7818608E-02  0.1066395E+00
         21   -1    0    0  503  502  0.00000000000E+00  0.00000000000E+00  0.16059805487E+04  0.16059805487E+04  0.00000000000E+00 0.  1.
         21   -1    0    0  501  503 -0.00000000000E+00 -0.00000000000E+00 -0.73241210433E+02  0.73241210433E+02  0.00000000000E+00 0. -1.
          6    2    1    2  501    0 -0.19657552113E+03 -0.21875620054E+03  0.67345999457E+03  0.75489223405E+03  0.17267805291E+03 0.  0.
         24    2    3    3    0    0 -0.12623676421E+03 -0.44824470434E+02  0.31678759493E+03  0.35185739916E+03  0.74190937845E+02 0.  0.
         -6    2    1    2    0  502  0.19657552113E+03  0.21875620054E+03  0.85927934373E+03  0.92432952512E+03  0.17183675295E+03 0.  0.
        -24    2    5    5    0    0  0.14728475730E+03  0.66644783432E+02  0.46241083358E+03  0.49643448312E+03  0.80554888948E+02 0.  0.
          5    1    3    3  501    0 -0.70338756916E+02 -0.17393173011E+03  0.35667239965E+03  0.40303483489E+03  0.47000000000E+01 0. -1.
        -13    1    4    4    0    0 -0.24531489343E+02 -0.91006028159E+01  0.15663638154E+03  0.15880670944E+03  0.00000000000E+00 0.  1.
         14    1    4    4    0    0 -0.10170527487E+03 -0.35723867618E+02  0.16015121339E+03  0.19305068972E+03  0.00000000000E+00 0. -1.
         -5    1    5    5    0  502  0.49290763826E+02  0.15211141711E+03  0.39686851015E+03  0.42789504199E+03  0.47000000000E+01 0.  1.
         11    1    6    6    0    0  0.85104531971E+02  0.76293625608E+02  0.24977496618E+03  0.27468351316E+03  0.00000000000E+00 0. -1.
        -12    1    6    6    0    0  0.62180225330E+02 -0.96488421768E+01  0.21263586739E+03  0.22175096996E+03  0.00000000000E+00 0.  1.
</event>
<event>
12    1  0.8451514E-002  0.2673141E+03  0.7818608E-02  0.1104589E+00
         21   -1    0    0  501  502  0.00000000000E+00  0.00000000000E+00  0.21728047938E+03  0.21728047938E+03  0.00000000000E+00 0.  1.
         21   -1    0    0  502  503 -0.00000000000E+00 -0.00000000000E+00 -0.90503878581E+03  0.90503878581E+03  0.00000000000E+00 0.  1.
         -6    2    1    2    0  503 -0.19871472166E+03 -0.42978271650E+02 -0.79987049759E+03  0.84335617729E+03  0.17355735769E+03 0.  0.
        -24    2    3    3    0    0 -0.56568947652E+02  0.36270087191E+02 -0.34932350281E+03  0.36429416882E+03  0.78535130727E+02 0.  0.
          6    2    1    2  501    0  0.19871472166E+03  0.42978271650E+02  0.11211219117E+03  0.27896308790E+03  0.15464989028E+03 0.  0.
         24    2    5    5    0    0  0.20841282638E+03  0.36662376808E+02  0.72262284344E+02  0.23720127715E+03  0.79136414321E+02 0.  0.
          5    1    5    5  501    0 -0.96981047219E+01  0.63158948423E+01  0.39849906823E+02  0.41761810745E+02  0.47000000000E+01 0. -1.
        -13    1    6    6    0    0  0.81844568539E+02  0.24032030116E+02  0.69410826127E+02  0.10997242679E+03  0.00000000000E+00 0.  1.
         14    1    6    6    0    0  0.12656825784E+03  0.12630346692E+02  0.28514582175E+01  0.12722885036E+03  0.00000000000E+00 0. -1.
         -5    1    3    3    0  503 -0.14214577401E+03 -0.79248358841E+02 -0.45054699479E+03  0.47906200847E+03  0.47000000000E+01 0.  1.
         13    1    4    4    0    0 -0.20986536706E+02 -0.83133304023E+01 -0.20286753997E+02  0.30349605813E+02  0.00000000000E+00 0. -1.
        -14    1    4    4    0    0 -0.35582410946E+02  0.44583417593E+02 -0.32903674881E+03  0.33394456300E+03  0.00000000000E+00 0.  1.
</event>
<event>
12    1  0.8451514E-002  0.2067218E+03  0.7818608E-02  0.1146869E+00
         21   -1    0    0  501  502  0.00000000000E+00  0.00000000000E+00  0.19850301179E+02  0.19850301179E+02  0.00000000000E+00 0.  1.
         21   -1    0    0  502  503 -0.00000000000E+00 -0.00000000000E+00 -0.20457964120E+04  0.20457964120E+04  0.00000000000E+00 0.  1.
         -6    2    1    2    0  503 -0.66826409306E+02  0.92146049633E+02 -0.10936877778E+04  0.11107438316E+04  0.15697847231E+03 0.  0.
        -24    2    3    3    0    0 -0.23839676121E+01  0.86476537012E+02 -0.86516573381E+03  0.87319512873E+03  0.80461861270E+02 0.  0.
          6    2    1    2  501    0  0.66826409306E+02 -0.92146049633E+02 -0.93225833306E+03  0.95490288158E+03  0.17256085953E+03 0.  0.
         24    2    5    5    0    0  0.42620799436E+02 -0.26572219611E+02 -0.79535544318E+03  0.80111624370E+03  0.81696631028E+02 0.  0.
          5    1    5    5  501    0  0.24205609871E+02 -0.65573830022E+02 -0.13690288988E+03  0.15378663788E+03  0.47000000000E+01 0. -1.
        -11    1    6    6    0    0  0.63888330628E+02 -0.80544874715E+01 -0.63916402470E+03  0.64239959841E+03  0.00000000000E+00 0.  1.
         12    1    6    6    0    0 -0.21267531193E+02 -0.18517732139E+02 -0.15619141848E+03  0.15871664529E+03  0.00000000000E+00 0. -1.
         -5    1    3    3    0  503 -0.64442441694E+02  0.56695126209E+01 -0.22852204395E+03  0.23754870287E+03  0.47000000000E+01 0.  1.
         13    1    4    4    0    0  0.48391340655E+01 -0.11757647265E+02 -0.23820902768E+03  0.23854810910E+03  0.00000000000E+00 0. -1.
        -14    1    4    4    0    0 -0.72231016777E+01  0.98234184277E+02 -0.62695670613E+03  0.63464701962E+03  0.00000000000E+00 0.  1.
</event>
<event>
12    1  0.8451514E-002  0.1994034E+03  0.7818608E-02  0.1151258E+00
         21   -1    0    0  501  502  0.00000000000E+00  0.00000000000E+00  0.19684770140E+04  0.19684770140E+04  0.00000000000E+00 0.  1.
         21   -1    0    0  502  503 -0.00000000000E+00 -0.00000000000E+00 -0.10953871380E+03  0.10953871380E+03  0.00000000000E+00 0. -1.
         -6    2    1    2    0  503 -0.12408525666E+02 -0.99744490660E+02 -0.93402756887E+01  0.19962198880E+03  0.17221719640E+03 0.  0.
        -24    2    3    3    0    0 -0.71319355166E+02 -0.46482253639E+02 -0.21806389065E+02  0.11909344909E+03  0.80378359567E+02 0.  0.
          6    2    1    2  501    0  0.12408525666E+02  0.99744490660E+02  0.18682785759E+04  0.18783937390E+04  0.16671912521E+03 0.  0.
         24    2    5    5    0    0  0.31991723230E+02  0.11126825521E+02  0.52776372809E+03  0.53480200810E+03  0.79569834618E+02 0.  0.
          5    1    5    5  501    0 -0.19583197564E+02  0.88617665139E+02  0.13405148478E+04  0.13435917309E+04  0.47000000000E+01 0. -1.
        -13    1    6    6    0    0 -0.25052838833E+02  0.14929992289E+02  0.16398389977E+03  0.16655710369E+03  0.00000000000E+00 0.  1.
         14    1    6    6    0    0  0.57044562063E+02 -0.38031667680E+01  0.36377982831E+03  0.36824490441E+03  0.00000000000E+00 0. -1.
         -5    1    3    3    0  503  0.58910829500E+02 -0.53262237022E+02  0.12466113376E+02  0.80528539709E+02  0.47000000000E+01 0.  1.
         13    1    4    4    0    0 -0.43372333019E+02 -0.35458591414E+01 -0.45227052599E+02  0.62763195229E+02  0.00000000000E+00 0. -1.
        -14    1    4    4    0    0 -0.27947022147E+02 -0.42936394497E+02  0.23420663534E+02  0.56330253858E+02  0.00000000000E+00 0.  1.
</event>
<event>
12    1  0.8451514E-002  0.2087423E+03  0.7818608E-02  0.1143043E+00
         21   -1    0    0  501  502  0.00000000000E+00  0.00000000000E+00  0.26091194220E+03  0.26091194220E+03  0.00000000000E+00 0.  1.
         21   -1    0    0  502  503 -0.00000000000E+00 -0.00000000000E+00 -0.16529499823E+03  0.16529499823E+03  0.00000000000E+00 0. -1.
         -6    2    1    2    0  503 -0.11007843327E+03  0.24521989306E+02  0.55266847709E+02  0.21593464523E+03  0.17565522231E+03 0.  0.
        -24    2    3    3    0    0 -0.10120229598E+03 -0.63333853422E+01 -0.23678594404E+02  0.13058060146E+03  0.78794677243E+02 0.  0.
          6    2    1    2  501    0  0.11007843327E+03 -0.24521989306E+02  0.40350096260E+02  0.21027229519E+03  0.17282279487E+03 0.  0.
         24    2    5    5    0    0  0.79577559618E+02  0.25099523495E+02  0.73191422346E+02  0.14324065695E+03  0.90544615658E+02 0.  0.
          5    1    5    5  501    0  0.30500873654E+02 -0.49621512802E+02 -0.32841326086E+02  0.67031638243E+02  0.47000000000E+01 0. -1.
        -13    1    6    6    0    0 -0.13811664235E+01 -0.23785335429E+02  0.32469608710E+02  0.40273133625E+02  0.00000000000E+00 0.  1.
         14    1    6    6    0    0  0.80958726041E+02  0.48884858925E+02  0.40721813636E+02  0.10296752333E+03  0.00000000000E+00 0. -1.
         -5    1    3    3    0  503 -0.88761372873E+01  0.30855374648E+02  0.78945442113E+02  0.85354043772E+02  0.47000000000E+01 0.  1.
         13    1    4    4    0    0 -0.54636973449E+02  0.34171788119E+02 -0.24267012303E+02  0.68860713451E+02  0.00000000000E+00 0. -1.
        -14    1    4    4    0    0 -0.46565322536E+02 -0.40505173462E+02  0.58841789844E+00  0.61719888008E+02  0.00000000000E+00 0.  1.
</event>
<event>
12    1  0.8451514E-002  0.1801266E+03  0.7818608E-02  0.1167759E+00
         21   -1    0    0  501  502  0.00000000000E+00  0.00000000000E+00  0.43230351358E+03  0.43230351358E+03  0.00000000000E+00 0. -1.
         21   -1    0    0  502  503 -0.00000000000E+00 -0.00000000000E+00 -0.71657561078E+03  0.71657561078E+03  0.00000000000E+00 0. -1.
         -6    2    1    2    0  503 -0.72372487521E+01 -0.52453209472E+02 -0.68570441044E+03  0.70888650771E+03  0.17183080446E+03 0.  0.
        -24    2    3    3    0    0 -0.41525588728E+02  0.13429917939E+02 -0.23250523823E+03  0.24961767965E+03  0.79659042013E+02 0.  0.
          6    2    1    2  501    0  0.72372487521E+01  0.52453209472E+02  0.40143231324E+03  0.43999261666E+03  0.17216818419E+03 0.  0.
         24    2    5    5    0    0  0.33308105692E+02 -0.21726185750E+02  0.28930893303E+03  0.30296701815E+03  0.80671545809E+02 0.  0.
          5    1    5    5  501    0 -0.26070856940E+02  0.74179395222E+02  0.11212338021E+03  0.13702559851E+03  0.47000000000E+01 0. -1.
        -11    1    6    6    0    0 -0.11567057131E+02 -0.19867537834E+02  0.21693729053E+02  0.31609077027E+02  0.00000000000E+00 0.  1.
         12    1    6    6    0    0  0.44875162824E+02 -0.18586479160E+01  0.26761520397E+03  0.27135794112E+03  0.00000000000E+00 0. -1.
         -5    1    3    3    0  503  0.34288339975E+02 -0.65883127411E+02 -0.45319917220E+03  0.45926882805E+03  0.47000000000E+01 0.  1.
         13    1    4    4    0    0  0.25885429269E+01 -0.16626870135E+02 -0.15258387208E+03  0.15350892933E+03  0.00000000000E+00 0. -1.
        -14    1    4    4    0    0 -0.44114131655E+02  0.30056788075E+02 -0.79921366154E+02  0.96108750325E+02  0.00000000000E+00 0.  1.
</event>
<event>
12    1  0.8451514E-002  0.1879568E+03  0.7818608E-02  0.1161211E+00
         21   -1    0    0  501  502  0.00000000000E+00  0.00000000000E+00  0.13466796432E+03  0.13466796432E+03  0.00000000000E+00 0.  1.
         21   -1    0    0  502  503 -0.00000000000E+00 -0.00000000000E+00 -0.38554902076E+03  0.38554902076E+03  0.00000000000E+00 0. -1.
         -6    2    1    2    0  503  0.68156833624E+02  0.34974662456E+02 -0.27477956883E+03  0.33074693571E+03  0.16739517033E+03 0.  0.
        -24    2    3    3    0    0 -0.22781899443E+02 -0.14340841365E+02 -0.12239768463E+03  0.14650741573E+03  0.75885143396E+02 0.  0.
          6    2    1    2  501    0 -0.68156833624E+02 -0.34974662456E+02  0.23898512390E+02  0.18947004937E+03  0.17163676683E+03 0.  0.
         24    2    5    5    0    0 -0.98805037766E+02 -0.53193285088E+02  0.49084764904E+02  0.14556483392E+03  0.78662860754E+02 0.  0.
          5    1    5    5  501    0  0.30648204142E+02  0.18218622632E+02 -0.25186252515E+02  0.43905215447E+02  0.47000000000E+01 0. -1.
        -13    1    6    6    0    0  0.68102332856E+01  0.57048216880E+01  0.18964459998E+02  0.20942182573E+02  0.00000000000E+00 0.  1.
         14    1    6    6    0    0 -0.10561527105E+03 -0.58898106776E+02  0.30120304906E+02  0.12462265135E+03  0.00000000000E+00 0. -1.
         -5    1    3    3    0  503  0.90938733067E+02  0.49315503821E+02 -0.15238188420E+03  0.18423951998E+03  0.47000000000E+01 0.  1.
         13    1    4    4    0    0  0.26489691367E+02 -0.11341180947E+02 -0.62987928018E+02  0.69266190959E+02  0.00000000000E+00 0. -1.
        -14    1    4    4    0    0 -0.49271590810E+02 -0.29996604183E+01 -0.59409756614E+02  0.77241224774E+02  0.00000000000E+00 0.  1.
</event>
<event>
12    1  0.8451514E-002  0.2209335E+03  0.7818608E-02  0.1133351E+00
         21   -1    0    0  501  502  0.00000000000E+00  0.00000000000E+00  0.40100109485E+03  0.40100109485E+03  0.00000000000E+00 0. -1.
         21   -1    0    0  502  503 -0.00000000000E+00 -0.00000000000E+00 -0.35974203925E+03  0.35974203925E+03  0.00000000000E+00 0.  1.
         -6    2    1    2    0  503  0.82949137337E+02 -0.11046140270E+03 -0.28909319620E+03  0.36332114568E+03  0.17130410952E+03 0.  0.
        -24    2    3    3    0    0 -0.85887946811E+01 -0.21350640795E+02 -0.16457607940E+03  0.18486520361E+03  0.80995310595E+02 0.  0.
          6    2    1    2  501    0 -0.82949137337E+02  0.11046140270E+03  0.33035225179E+03  0.39742198842E+03  0.17242199902E+03 0.  0.
         24    2    5    5    0    0 -0.12131585244E+03  0.10881570898E+03  0.26139804964E+03  0.31835565468E+03  0.80392710738E+02 0.  0.
          5    1    5    5  501    0  0.38366715106E+02  0.16456937182E+01  0.68954202155E+02  0.79066333738E+02  0.47000000000E+01 0. -1.
        -11    1    6    6    0    0 -0.45894493649E+02  0.57981057883E+01  0.33447003939E+02  0.57084364326E+02  0.00000000000E+00 0.  1.
         12    1    6    6    0    0 -0.75421358794E+02  0.10301760319E+03  0.22795104570E+03  0.26127129036E+03  0.00000000000E+00 0. -1.
         -5    1    3    3    0  503  0.91537932018E+02 -0.89110761904E+02 -0.12451711680E+03  0.17845594208E+03  0.47000000000E+01 0. -1.
         11    1    4    4    0    0 -0.39255401072E+02 -0.14599932851E+02 -0.46038045509E+02  0.62238622951E+02  0.00000000000E+00 0. -1.
        -12    1    4    4    0    0  0.30666606390E+02 -0.67507079438E+01 -0.11853803389E+03  0.12262658065E+03  0.00000000000E+00 0.  1.
</event>
<event>
12    1  0.8451514E-002  0.1846391E+03  0.7818608E-02  0.1163415E+00
         21   -1    0    0  503  502  0.00000000000E+00  0.00000000000E+00  0.99231443955E+02  0.99231443955E+02  0.00000000000E+00 0. -1.
         21   -1    0    0  501  503 -0.00000000000E+00 -0.00000000000E+00 -0.57717444206E+03  0.57717444206E+03  0.00000000000E+00 0. -1.
          6    2    1    2  501    0  0.67794906191E+02  0.14346468918E+01 -0.45419431531E+03  0.49024569919E+03  0.17161049501E+03 0.  0.
         24    2    3    3    0    0  0.58098914970E+02 -0.62039893802E+02 -0.33497819449E+03  0.35475546697E+03  0.80103796552E+02 0.  0.
         -6    2    1    2    0  502 -0.67794906191E+02 -0.14346468918E+01 -0.23748682797E+02  0.18616018683E+03  0.17173644839E+03 0.  0.
        -24    2    5    5    0    0 -0.18653156468E+02  0.61067457337E+02 -0.29163812033E+02  0.10633012843E+03  0.79864846383E+02 0.  0.
          5    1    3    3  501    0  0.96959912211E+01  0.63474540694E+02 -0.11921612083E+03  0.13549023222E+03  0.47000000000E+01 0. -1.
        -11    1    4    4    0    0  0.18290231335E+02 -0.49965533457E+02 -0.28408036696E+03  0.28902031414E+03  0.00000000000E+00 0.  1.
         12    1    4    4    0    0  0.39808683635E+02 -0.12074360346E+02 -0.50897827526E+02  0.65735152829E+02  0.00000000000E+00 0. -1.
         -5    1    5    5    0  502 -0.49141749724E+02 -0.62502104229E+02  0.54151292363E+01  0.79830058396E+02  0.47000000000E+01 0.  1.
         13    1    6    6    0    0 -0.40073663491E+02  0.47053680180E+01 -0.20993797879E+02  0.45483827270E+02  0.00000000000E+00 0. -1.
        -14    1    6    6    0    0  0.21420507023E+02  0.56362089319E+02 -0.81700141539E+01  0.60846301159E+02  0.00000000000E+00 0.  1.
</event>
<event>
12    1  0.8451514E-002  0.2000312E+03  0.7818608E-02  0.1149841E+00
         21   -1    0    0  503  502  0.00000000000E+00  0.00000000000E+00  0.40493771008E+02  0.40493771008E+02  0.00000000000E+00 0.  1.
         21   -1    0    0  501  503 -0.00000000000E+00 -0.00000000000E+00 -0.10412031094E+04  0.10412031094E+04  0.00000000000E+00 0.  1.
          6    2    1    2  501    0 -0.97186700590E+02  0.32332994727E+02 -0.62515672066E+03  0.65619451581E+03  0.17111294478E+03 0.  0.
         24    2    3    3    0    0 -0.22740771355E+02  0.69520207526E+02 -0.25741474796E+03  0.27912511416E+03  0.79361671799E+02 0.  0.
         -6    2    1    2    0  502  0.97186700590E+02 -0.32332994727E+02 -0.37555261772E+03  0.42550236459E+03  0.17181913826E+03 0.  0.
        -24    2    5    5    0    0  0.50935879129E+02  0.48432762851E+02 -0.19309488033E+03  0.22062395670E+03  0.80306295905E+02 0.  0.
          5    1    3    3  501    0 -0.74445929235E+02 -0.37187212798E+02 -0.36774197270E+03  0.37706940165E+03  0.47000000000E+01 0. -1.
        -13    1    4    4    0    0 -0.50353435189E+02  0.26747592722E+02 -0.13573896881E+03  0.14722761224E+03  0.00000000000E+00 0.  1.
         14    1    4    4    0    0  0.27612663834E+02  0.42772614803E+02 -0.12167577915E+03  0.13189750192E+03  0.00000000000E+00 0. -1.
         -5    1    5    5    0  502  0.46250821461E+02 -0.80765757578E+02 -0.18245773739E+03  0.20487840788E+03  0.47000000000E+01 0.  1.
         13    1    6    6    0    0  0.40724866300E+02  0.57575776363E+02 -0.19445704311E+03  0.20685025108E+03  0.00000000000E+00 0. -1.
        -14    1    6    6    0    0  0.10211012829E+02 -0.91430135120E+01  0.13621627787E+01  0.13773705620E+02  0.00000000000E+00 0.  1.
</event>
<event>
12    1  0.8451514E-002  0.2031050E+03  0.7818608E-02  0.1147282E+00
         21   -1    0    0  503  502  0.00000000000E+00  0.00000000000E+00  0.41477557829E+03  0.41477557829E+03  0.00000000000E+00 0. -1.
         21   -1    0    0  501  503 -0.00000000000E+00 -0.00000000000E+00 -0.10017675416E+03  0.10017675416E+03  0.00000000000E+00 0. -1.
          6    2    1    2  501    0  0.46952837302E+02  0.93619099330E+02  0.13074870615E+03  0.24099521838E+03  0.17324654812E+03 0.  0.
         24    2    3    3    0    0  0.20234573639E+02  0.59500587211E+02  0.61542881971E-01  0.10323033488E+03  0.81894690939E+02 0.  0.
         -6    2    1    2    0  502 -0.46952837302E+02 -0.93619099330E+02  0.18385011798E+03  0.27395711406E+03  0.17401876270E+03 0.  0.
        -24    2    5    5    0    0  0.21744747023E+02 -0.70846818442E+02  0.16603940415E+03  0.19927614998E+03  0.81546272232E+02 0.  0.
          5    1    3    3  501    0  0.26718263663E+02  0.34118512119E+02  0.13068716327E+03  0.13776488350E+03  0.47000000000E+01 0. -1.
        -13    1    4    4    0    0 -0.19884790230E+02 -0.10411288619E+02 -0.24995880091E+01  0.22584236835E+02  0.00000000000E+00 0.  1.
         14    1    4    4    0    0  0.40119363869E+02  0.69911875829E+02  0.25611308910E+01  0.80646098050E+02  0.00000000000E+00 0. -1.
         -5    1    5    5    0  502 -0.68697584325E+02 -0.22772280888E+02  0.17810713835E+02  0.74680964082E+02  0.47000000000E+01 0.  1.
         13    1    6    6    0    0 -0.98225965150E+00 -0.68926300704E+02  0.16207621759E+03  0.17612637528E+03  0.00000000000E+00 0. -1.
        -14    1    6    6    0    0  0.22727006675E+02 -0.19205177371E+01  0.39631865579E+01  0.23149774696E+02  0.00000000000E+00 0.  1.
</event>
<event>
12    1  0.8451514E-002  0.1950878E+03  0.7818608E-02  0.1154553E+00
         21   -1    0    0  501  502  0.00000000000E+00  0.00000000000E+00  0.15466009746E+03  0.15466009746E+03  0.00000000000E+00 0.  1.
         21   -1    0    0  502  503 -0.00000000000E+00 -0.00000000000E+00 -0.24554697417E+03  0.24554697417E+03  0.00000000000E+00 0. -1.
         -6    2    1    2    0  503  0.86630539222E+02 -0.22027946051E+02 -0.67547763986E+02  0.20645086202E+03  0.17340466337E+03 0.  0.
        -24    2    3    3    0    0  0.56050016834E+02 -0.75031355560E+02 -0.76309035983E+02  0.14445586500E+03  0.79203025543E+02 0.  0.
          6    2    1    2  501    0 -0.86630539222E+02  0.22027946051E+02 -0.23339112726E+02  0.19375620960E+03  0.17031345761E+03 0.  0.
         24    2    5    5    0    0 -0.50520404925E+02  0.81855292148E+02 -0.22938078186E+02  0.12371690657E+03  0.74344585376E+02 0.  0.
          5    1    5    5  501    0 -0.36110134297E+02 -0.59827346097E+02 -0.40103453993E+00  0.70039303028E+02  0.47000000000E+01 0. -1.
        -11    1    6    6    0    0 -0.52901641169E+02  0.19322201367E+02  0.19928095357E+01  0.56355145230E+02  0.00000000000E+00 0.  1.
         12    1    6    6    0    0  0.23812362439E+01  0.62533090781E+02 -0.24930887721E+02  0.67361761344E+02  0.00000000000E+00 0. -1.
         -5    1    3    3    0  503  0.30580522388E+02  0.53003409509E+02  0.87612719965E+01  0.61994997025E+02  0.47000000000E+01 0.  1.
         11    1    4    4    0    0 -0.54336491491E+01 -0.58735706557E+02 -0.34410494766E+02  0.68289749728E+02  0.00000000000E+00 0. -1.
        -12    1    4    4    0    0  0.61483665983E+02 -0.16295649003E+02 -0.41898541217E+02  0.76166115270E+02  0.00000000000E+00 0.  1.
</event>
<event>
12    1  0.8451514E-002  0.1765845E+03  0.7818608E-02  0.1173403E+00
         21   -1    0    0  501  502  0.00000000000E+00  0.00000000000E+00  0.23193655710E+03  0.23193655710E+03  0.00000000000E+00 0. -1.
         21   -1    0    0  502  503 -0.00000000000E+00 -0.00000000000E+00 -0.47252669915E+03  0.47252669915E+03  0.00000000000E+00 0. -1.
         -6    2    1    2    0  503  0.33042740162E+01 -0.32298913410E+02 -0.42195536935E+03  0.45741493823E+03  0.17357405900E+03 0.  0.
        -24    2    3    3    0    0 -0.20964628324E+02  0.18880051742E+02 -0.12738291837E+03  0.15740946332E+03  0.88064517586E+02 0.  0.
          6    2    1    2  501    0 -0.33042740162E+01  0.32298913410E+02  0.18136522730E+03  0.24704831802E+03  0.16457638874E+03 0.  0.
         24    2    5    5    0    0 -0.54141354087E+01 -0.20017440837E+02  0.32112444510E+02  0.88808197930E+02  0.80160315165E+02 0.  0.
          5    1    5    5  501    0  0.21098613926E+01  0.52316354247E+02  0.14925278279E+03  0.15824012009E+03  0.47000000000E+01 0. -1.
        -13    1    6    6    0    0 -0.42260906706E+02 -0.56102693315E+01  0.21997539188E+02  0.47972399230E+02  0.00000000000E+00 0.  1.
         14    1    6    6    0    0  0.36846771297E+02 -0.14407171505E+02  0.10114905322E+02  0.40835798700E+02  0.00000000000E+00 0. -1.
         -5    1    3    3    0  503  0.24268902340E+02 -0.51178965151E+02 -0.29457245099E+03  0.30000547491E+03  0.47000000000E+01 0.  1.
         13    1    4    4    0    0  0.18949833315E+02 -0.59942349642E+01 -0.10209420741E+03  0.10401083704E+03  0.00000000000E+00 0. -1.
        -14    1    4    4    0    0 -0.39914461639E+02  0.24874286706E+02 -0.25288710959E+02  0.53398626284E+02  0.00000000000E+00 0.  1.
</event>
<event>
12    1  0.8451514E-002  0.1767923E+03  0.7818608E-02  0.1171280E+00
         21   -1    0    0  501  502  0.00000000000E+00  0.00000000000E+00  0.37028400699E+03  0.37028400699E+03  0.00000000000E+00 0.  1.
         21   -1    0    0  502  503 -0.00000000000E+00 -0.00000000000E+00 -0.13433298271E+03  0.13433298271E+03  0.00000000000E+00 0.  1.
         -6    2    1    2    0  503  0.66627990404E+00 -0.40526726055E+02 -0.36543139504E+02  0.18052952197E+03  0.17208325835E+03 0.  0.
        -24    2    3    3    0    0  0.56591010552E+02  0.16189374588E+02 -0.10307020529E+02  0.96537168097E+02  0.75819204870E+02 0.  0.
          6    2    1    2  501    0 -0.66627990404E+00  0.40526726055E+02  0.27249416378E+03  0.32408746774E+03  0.17069492668E+03 0.  0.
         24    2    5    5    0    0  0.30700007720E+02  0.60436817996E+02  0.26587809779E+03  0.28605960835E+03  0.80893987414E+02 0.  0.
          5    1    5    5  501    0 -0.31366287624E+02 -0.19910091941E+02  0.66160659921E+01  0.38027859388E+02  0.47000000000E+01 0. -1.
        -13    1    6    6    0    0 -0.56950951177E+01 -0.17971279257E+02  0.55493325597E+02  0.58608106711E+02  0.00000000000E+00 0.  1.
         14    1    6    6    0    0  0.36395102838E+02  0.78408097252E+02  0.21038477219E+03  0.22745150164E+03  0.00000000000E+00 0. -1.
         -5    1    3    3    0  503 -0.55924730647E+02 -0.56716100643E+02 -0.26236118975E+02  0.83992353872E+02  0.47000000000E+01 0.  1.
         11    1    4    4    0    0  0.14080035473E+02  0.12852182145E+02  0.31500282063E+02  0.36819746806E+02  0.00000000000E+00 0. -1.
        -12    1    4    4    0    0  0.42510975079E+02  0.33371924430E+01 -0.41807302592E+02  0.59717421291E+02  0.00000000000E+00 0.  1.
</event>
<event>
12    1  0.8451514E-002  0.2223263E+03  0.7818608E-02  0.1132248E+00
         21   -1    0    0  503  502  0.00000000000E+00  0.00000000000E+00  0.28003123286E+03  0.28003123286E+03  0.00000000000E+00 0. -1.
         21   -1    0    0  501  503 -0.00000000000E+00 -0.00000000000E+00 -0.25841815870E+03  0.25841815870E+03  0.00000000000E+00 0.  1.
          6    2    1    2  501    0 -0.13905694287E+03 -0.88052771317E+01 -0.14111988265E+03  0.26292990331E+03  0.17263529915E+03 0.  0.
         24    2    3    3    0    0 -0.80455855468E+02  0.58388565994E+02 -0.55508297419E+02  0.13923457792E+03  0.80141919674E+02 0.  0.
         -6    2    1    2    0  502  0.13905694287E+03  0.88052771317E+01  0.16273295681E+03  0.27551948825E+03  0.17324724213E+03 0.  0.
        -24    2    5    5    0    0 -0.23669535786E+01 -0.42937899334E+01  0.53110968980E+02  0.96044213461E+02  0.79872879077E+02 0.  0.
          5    1    3    3  501    0 -0.58601087402E+02 -0.67193843126E+02 -0.85611585227E+02  0.12369532539E+03  0.47000000000E+01 0. -1.
        -13    1    4    4    0    0 -0.60988908523E+02  0.43346769259E+02 -0.76416423776E+02  0.10694886250E+03  0.00000000000E+00 0.  1.
         14    1    4    4    0    0 -0.19466946945E+02  0.15041796735E+02  0.20908126357E+02  0.32285715419E+02  0.00000000000E+00 0. -1.
         -5    1    5    5    0  502  0.14142389645E+03  0.13099067065E+02  0.10962198783E+03  0.17947527479E+03  0.47000000000E+01 0.  1.
         13    1    6    6    0    0  0.37916015605E+02 -0.95189176358E+01  0.21827302108E+02  0.44773487128E+02  0.00000000000E+00 0. -1.
        -14    1    6    6    0    0 -0.40282969183E+02  0.52251277023E+01  0.31283666872E+02  0.51270726333E+02  0.00000000000E+00 0.  1.
</event>
<event>
12    1  0.8451514E-002  0.2597956E+03  0.7818608E-02  0.1107379E+00
         21   -1    0    0  501  502  0.00000000000E+00  0.00000000000E+00  0.46079925172E+02  0.46079925172E+02  0.00000000000E+00 0. -1.
         21   -1    0    0  502  503 -0.00000000000E+00 -0.00000000000E+00 -0.14605629994E+04  0.14605629994E+04  0.00000000000E+00 0.  1.
         -6    2    1    2    0  503 -0.31836166677E+02 -0.19146116528E+03 -0.70105943382E+03  0.74738866999E+03  0.17156507499E+03 0.  0.
        -24    2    3    3    0    0 -0.30488855527E+02 -0.18119635990E+03 -0.70817445977E+03  0.73397617317E+03  0.58721939362E+02 0.  0.
          6    2    1    2  501    0  0.31836166677E+02  0.19146116528E+03 -0.71342364045E+03  0.75925425463E+03  0.17269282875E+03 0.  0.
         24    2    5    5    0    0 -0.74222435537E+01  0.44243076425E+02 -0.40680737520E+03  0.41683636290E+03  0.79042858056E+02 0.  0.
          5    1    5    5  501    0  0.39258410231E+02  0.14721808885E+03 -0.30661626525E+03  0.34241789173E+03  0.47000000000E+01 0. -1.
        -13    1    6    6    0    0 -0.40110475015E+02  0.68704407122E+01 -0.16089245558E+03  0.16595913782E+03  0.00000000000E+00 0.  1.
         14    1    6    6    0    0  0.32688231461E+02  0.37372635713E+02 -0.24591491962E+03  0.25087722509E+03  0.00000000000E+00 0. -1.
         -5    1    3    3    0  503 -0.13473111496E+01 -0.10264805372E+02  0.71150259441E+01  0.13412496816E+02  0.47000000000E+01 0.  1.
         13    1    4    4    0    0  0.14403440694E+02 -0.59149867419E+02 -0.17948041114E+03  0.18952409848E+03  0.00000000000E+00 0. -1.
        -14    1    4    4    0    0 -0.44892296221E+02 -0.12204649249E+03 -0.52869404862E+03  0.54445207469E+03  0.00000000000E+00 0.  1.
</event>
<event>
12    1  0.8451514E-002  0.1749172E+03  0.7818608E-02  0.1172917E+00
         21   -1    0    0  501  502  0.00000000000E+00  0.00000000000E+00  0.12417107260E+03  0.12417107260E+03  0.00000000000E+00 0.  1.
         21   -1    0    0  502  503 -0.00000000000E+00 -0.00000000000E+00 -0.25503824345E+03  0.25503824345E+03  0.00000000000E+00 0.  1.
         -6    2    1    2    0  503 -0.19374960195E+02  0.25882557953E+02 -0.29336904912E+02  0.17696087408E+03  0.17149111078E+03 0.  0.
        -24    2    3    3    0    0  0.32165570457E+02  0.38257049311E+02  0.25063830870E+02  0.10086169938E+03  0.83944392544E+02 0.  0.
          6    2    1    2  501    0  0.19374960195E+02 -0.25882557953E+02 -0.10153026593E+03  0.20224844197E+03  0.17190329110E+03 0.  0.
         24    2    5    5    0    0  0.52528521523E+02 -0.60877948276E+02 -0.38496495028E+02  0.12275515768E+03  0.84388852630E+02 0.  0.
          5    1    5    5  501    0 -0.33153561329E+02  0.34995390323E+02 -0.63033770901E+02  0.79493284286E+02  0.47000000000E+01 0. -1.
        -13    1    6    6    0    0  0.72960963843E+02 -0.28677403283E+02 -0.27245691982E+02  0.82994116873E+02  0.00000000000E+00 0.  1.
         14    1    6    6    0    0 -0.20432442320E+02 -0.32200544992E+02 -0.11250803046E+02  0.39761040808E+02  0.00000000000E+00 0. -1.
         -5    1    3    3    0  503 -0.51540530652E+02 -0.12374491358E+02 -0.54400735783E+02  0.76099174699E+02  0.47000000000E+01 0.  1.
         11    1    4    4    0    0  0.59725754759E+02  0.32286978037E+02  0.92232032593E+01  0.68517751063E+02  0.00000000000E+00 0. -1.
        -12    1    4    4    0    0 -0.27560184302E+02  0.59700712742E+01  0.15840627611E+02  0.32343948320E+02  0.00000000000E+00 0.  1.
</event>
<event>
12    1  0.8451514E-002  0.3006456E+03  0.7818608E-02  0.1084981E+00
         21   -1    0    0  503  502  0.00000000000E+00  0.00000000000E+00  0.61335985159E+03  0.61335985159E+03  0.00000000000E+00 0. -1.
         21   -1    0    0  501  503 -0.00000000000E+00 -0.00000000000E+00 -0.15135268472E+03  0.15135268472E+03  0.00000000000E+00 0.  1.
          6    2    1    2  501    0  0.95344409390E+02  0.22660550019E+03  0.16725423333E+03  0.34403747600E+03  0.17305258509E+03 0.  0.
         24    2    3    3    0    0  0.11462249142E+03  0.12513465161E+03  0.72258431796E+02  0.20362996243E+03  0.86295330467E+02 0.  0.
         -6    2    1    2    0  502 -0.95344409390E+02 -0.22660550019E+03  0.29475293353E+03  0.42067506031E+03  0.17218480020E+03 0.  0.
        -24    2    5    5    0    0 -0.97594359662E+02 -0.10195006082E+03  0.22640348183E+03  0.27841551444E+03  0.79612738683E+02 0.  0.
          5    1    3    3  501    0 -0.19278082026E+02  0.10147084858E+03  0.94995801538E+02  0.14040751357E+03  0.47000000000E+01 0. -1.
        -11    1    4    4    0    0  0.33312747527E+02  0.67790688998E+02 -0.77838539980E+01  0.75933556783E+02  0.00000000000E+00 0.  1.
         12    1    4    4    0    0  0.81309743889E+02  0.57343962612E+02  0.80042285794E+02  0.12769640564E+03  0.00000000000E+00 0. -1.
         -5    1    5    5    0  502  0.22499502723E+01 -0.12465543937E+03  0.68349451707E+02  0.14225954586E+03  0.47000000000E+01 0.  1.
         13    1    6    6    0    0 -0.57403961841E+02 -0.10709950845E+03  0.17087731947E+03  0.20967731841E+03  0.00000000000E+00 0. -1.
        -14    1    6    6    0    0 -0.40190397822E+02  0.51494476339E+01  0.55526162358E+02  0.68738196035E+02  0.00000000000E+00 0.  1.
</event>
<event>
12    1  0.8451514E-002  0.1852933E+03  0.7818608E-02  0.1162903E+00
         21   -1    0    0  503  502  0.00000000000E+00  0.00000000000E+00  0.30850427585E+03  0.30850427585E+03  0.00000000000E+00 0.  1.
         21   -1    0    0  501  503 -0.00000000000E+00 -0.00000000000E+00 -0.12512095177E+03  0.12512095177E+03  0.00000000000E+00 0. -1.
          6    2    1    2  501    0 -0.49605683634E+02 -0.45887077478E+02  0.18643591536E+02  0.18568813370E+03  0.17194810777E+03 0.  0.
         24    2    3    3    0    0 -0.79320072781E+02  0.16191891242E+02  0.15117127132E+02  0.11661375907E+03  0.82561431575E+02 0.  0.
         -6    2    1    2    0  502  0.49605683634E+02  0.45887077478E+02  0.16473973254E+03  0.24793709391E+03  0.17253195452E+03 0.  0.
        -24    2    5    5    0    0  0.86439543902E+02  0.56584562750E+02  0.76003948811E+02  0.15115228742E+03  0.79980036671E+02 0.  0.
          5    1    3    3  501    0  0.29714389147E+02 -0.62078968721E+02  0.35264644045E+01  0.69074374634E+02  0.47000000000E+01 0. -1.
        -13    1    4    4    0    0  0.62569243073E+01 -0.21280922393E+02  0.19237321329E+01  0.22264938918E+02  0.00000000000E+00 0.  1.
         14    1    4    4    0    0 -0.85576997089E+02  0.37472813636E+02  0.13193394999E+02  0.94348820152E+02  0.00000000000E+00 0. -1.
         -5    1    5    5    0  502 -0.36833860268E+02 -0.10697485272E+02  0.88735783731E+02  0.96784806492E+02  0.47000000000E+01 0.  1.
         11    1    6    6    0    0 -0.10509942679E+01  0.24672575346E+02 -0.77699069752E+01  0.25888453363E+02  0.00000000000E+00 0. -1.
        -12    1    6    6    0    0  0.87490538170E+02  0.31911987404E+02  0.83773855786E+02  0.12526383406E+03  0.00000000000E+00 0.  1.
</event>
<event>
12    1  0.8451514E-002  0.1990891E+03  0.7818608E-02  0.1150555E+00
         21   -1    0    0  501  502  0.00000000000E+00  0.00000000000E+00  0.12221207562E+03  0.12221207562E+03  0.00000000000E+00 0. -1.
         21   -1    0    0  502  503 -0.00000000000E+00 -0.00000000000E+00 -0.12582249043E+04  0.12582249043E+04  0.00000000000E+00 0. -1.
         -6    2    1    2    0  503 -0.42539638059E+02 -0.91345803689E+02 -0.11628376196E+04  0.11797575174E+04  0.17170554297E+03 0.  0.
        -24    2    3    3    0    0 -0.87564584972E+02 -0.91212040546E+02 -0.10253755602E+04  0.10350330498E+04  0.62539441756E+02 0.  0.
          6    2    1    2  501    0  0.42539638059E+02  0.91345803689E+02  0.26824790970E+02  0.20067946253E+03  0.17146136770E+03 0.  0.
         24    2    5    5    0    0  0.47648278587E+02  0.64634106900E+02  0.82550981193E+02  0.13849336095E+03  0.76927370316E+02 0.  0.
          5    1    5    5  501    0 -0.51086405287E+01  0.26711696790E+02 -0.55726190223E+02  0.62186101584E+02  0.47000000000E+01 0. -1.
        -13    1    6    6    0    0 -0.20410568218E+02  0.25607587423E+02  0.24123143787E+02  0.40672667662E+02  0.00000000000E+00 0.  1.
         14    1    6    6    0    0  0.68058846805E+02  0.39026519476E+02  0.58427837406E+02  0.97820693286E+02  0.00000000000E+00 0. -1.
         -5    1    3    3    0  503  0.45024946913E+02 -0.13376314306E+00 -0.13746205942E+03  0.14472446758E+03  0.47000000000E+01 0.  1.
         13    1    4    4    0    0 -0.33334356632E+02 -0.14757419276E+02 -0.50261332027E+03  0.50393363697E+03  0.00000000000E+00 0. -1.
        -14    1    4    4    0    0 -0.54230228340E+02 -0.76454621270E+02 -0.52276223994E+03  0.53109941281E+03  0.00000000000E+00 0.  1.
</event>
<event>
12    1  0.8451514E-002  0.2341553E+03  0.7818608E-02  0.1123827E+00
         21   -1    0    0  503  502  0.00000000000E+00  0.00000000000E+00  0.57944677094E+03  0.57944677094E+03  0.00000000000E+00 0.  1.
         21   -1    0    0  501  503 -0.00000000000E+00 -0.00000000000E+00 -0.16451196751E+03  0.16451196751E+03  0.00000000000E+00 0.  1.
          6    2    1    2  501    0  0.43349075948E+02 -0.15256575313E+03 -0.35418034724E+02  0.23636994304E+03  0.17164166561E+03 0.  0.
         24    2    3    3    0    0  0.29095905349E+02 -0.17068898173E+03 -0.62350865593E+02  0.20060583161E+03  0.79835888200E+02 0.  0.
         -6    2    1    2    0  502 -0.43349075948E+02  0.15256575313E+03  0.45035283816E+03  0.50758879542E+03  0.17225926675E+03 0.  0.
        -24    2    5    5    0    0 -0.94814186328E+02  0.12199025665E+03  0.32588261053E+03  0.36939166760E+03  0.79870993467E+02 0.  0.
          5    1    3    3  501    0  0.14253170599E+02  0.18123228604E+02  0.26932830869E+02  0.35764111421E+02  0.47000000000E+01 0. -1.
        -11    1    4    4    0    0  0.45080305928E+01 -0.94568573358E+02  0.67269682987E+01  0.94914643281E+02  0.00000000000E+00 0.  1.
         12    1    4    4    0    0  0.24587874756E+02 -0.76120408374E+02 -0.69077833892E+02  0.10569118833E+03  0.00000000000E+00 0. -1.
         -5    1    5    5    0  502  0.51465110381E+02  0.30575496478E+02  0.12447022763E+03  0.13819712782E+03  0.47000000000E+01 0.  1.
         13    1    6    6    0    0 -0.29626294550E+02 -0.39409108380E+01  0.36840780983E+02  0.47439342854E+02  0.00000000000E+00 0. -1.
        -14    1    6    6    0    0 -0.65187891779E+02  0.12593116749E+03  0.28904182955E+03  0.32195232475E+03  0.00000000000E+00 0.  1.
</event>
<event>
12    1  0.8451514E-002  0.2196648E+03  0.7818608E-02  0.1134142E+00
         21   -1    0    0  503  502  0.00000000000E+00  0.00000000000E+00  0.37686822848E+02  0.37686822848E+02  0.00000000000E+00 0. -1.
         21   -1    0    0  501  503 -0.00000000000E+00 -0.00000000000E+00 -0.13854248311E+04  0.13854248311E+04  0.00000000000E+00 0. -1.
          6    2    1    2  501    0 -0.10073380476E+03 -0.91622503732E+02 -0.87001122294E+03  0.89730226586E+03  0.17230741615E+03 0.  0.
         24    2    3    3    0    0 -0.86282119281E+02 -0.10171797227E+03 -0.43855702116E+03  0.46546249472E+03  0.80820314266E+02 0.  0.
         -6    2    1    2    0  502  0.10073380476E+03  0.91622503732E+02 -0.47772678536E+03  0.52580938813E+03  0.17236777132E+03 0.  0.
        -24    2    5    5    0    0  0.32993124739E+02  0.56919122419E+02 -0.41322789791E+03  0.42593285993E+03  0.79581233840E+02 0.  0.
          5    1    3    3  501    0 -0.14451685481E+02  0.10095468534E+02 -0.43145420178E+03  0.43183977114E+03  0.47000000000E+01 0. -1.
        -11    1    4    4    0    0 -0.78206239161E+01  0.11549838777E+02 -0.17181452540E+02  0.22130595238E+02  0.00000000000E+00 0.  1.
         12    1    4    4    0    0 -0.78461495365E+02 -0.11326781104E+03 -0.42137556862E+03  0.44333189949E+03  0.00000000000E+00 0. -1.
         -5    1    5    5    0  502  0.67740680023E+02  0.34703381313E+02 -0.64498887448E+02  0.99876528206E+02  0.47000000000E+01 0.  1.
         13    1    6    6    0    0 -0.32779745326E+01  0.34767760594E+02 -0.54715698555E+02  0.64910322462E+02  0.00000000000E+00 0. -1.
        -14    1    6    6    0    0  0.36271099272E+02  0.22151361825E+02 -0.35851219935E+03  0.36102253747E+03  0.00000000000E+00 0.  1.
</event>
<event>
12    1  0.8451514E-002  0.2108016E+03  0.7818608E-02  0.1140991E+00
         21   -1    0    0  503  502  0.00000000000E+00  0.00000000000E+00  0.29264935972E+04  0.29264935972E+04  0.00000000000E+00 0.  1.
         21   -1    0    0  501  503 -0.00000000000E+00 -0.00000000000E+00 -0.24645719004E+02  0.24645719004E+02  0.00000000000E+00 0.  1.
          6    2    1    2  501    0  0.98138139062E+02 -0.71459040694E+02  0.53627977148E+03  0.57622333193E+03  0.17233643296E+03 0.  0.
         24    2    3    3    0    0  0.44480985502E+02 -0.48074360928E+02  0.12785941048E+03  0.16360339221E+03  0.78283707400E+02 0.  0.
         -6    2    1    2    0  502 -0.98138139062E+02  0.71459040694E+02  0.23655681067E+04  0.23749159842E+04  0.17197667287E+03 0.  0.
        -24    2    5    5    0    0 -0.94975211436E+01  0.89640615437E+02  0.14398233174E+04  0.14447475943E+04  0.77966550479E+02 0.  0.
          5    1    3    3  501    0  0.53657153559E+02 -0.23384679765E+02  0.40842036100E+03  0.41261993972E+03  0.47000000000E+01 0. -1.
        -11    1    4    4    0    0  0.56916057201E+02 -0.69379789495E+01  0.87731490437E+02  0.10480642887E+03  0.00000000000E+00 0.  1.
         12    1    4    4    0    0 -0.12435071698E+02 -0.41136381979E+02  0.40127920046E+02  0.58796963337E+02  0.00000000000E+00 0. -1.
         -5    1    5    5    0  502 -0.88640617918E+02 -0.18181574743E+02  0.92574478928E+03  0.93016838996E+03  0.47000000000E+01 0.  1.
         13    1    6    6    0    0 -0.57981817004E+01  0.46519922306E+02  0.26413570615E+03  0.26826366386E+03  0.00000000000E+00 0. -1.
        -14    1    6    6    0    0 -0.36993394432E+01  0.43120693131E+02  0.11756876113E+04  0.11764839304E+04  0.00000000000E+00 0.  1.
</event>
<event>
12    1  0.8451514E-002  0.1797020E+03  0.7818608E-02  0.1168381E+00
         21   -1    0    0  503  502  0.00000000000E+00  0.00000000000E+00  0.10152230603E+03  0.10152230603E+03  0.00000000000E+00 0. -1.
         21   -1    0    0  501  503 -0.00000000000E+00 -0.00000000000E+00 -0.59925242060E+03  0.59925242060E+03  0.00000000000E+00 0. -1.
          6    2    1    2  501    0 -0.36590675391E+02 -0.38159784940E+02 -0.49020176519E+03  0.52210209326E+03  0.17174917317E+03 0.  0.
         24    2    3    3    0    0 -0.12010537247E+02  0.42631205452E+02 -0.19031420681E+03  0.21051582112E+03  0.78330970533E+02 0.  0.
         -6    2    1    2    0  502  0.36590675391E+02  0.38159784940E+02 -0.75283493796E+01  0.17867263336E+03  0.17050568072E+03 0.  0.
        -24    2    5    5    0    0  0.39804312302E+02 -0.38283611851E+02 -0.25217497447E+02  0.10000296745E+03  0.79464791623E+02 0.  0.
          5    1    3    3  501    0 -0.24580138143E+02 -0.80790990392E+02 -0.29988755837E+03  0.31158627214E+03  0.47000000000E+01 0. -1.
        -13    1    4    4    0    0  0.27242418099E+02 -0.22677090591E+01 -0.36941586825E+02  0.45956203993E+02  0.00000000000E+00 0.  1.
         14    1    4    4    0    0 -0.39252955347E+02  0.44898914511E+02 -0.15337261999E+03  0.16455961713E+03  0.00000000000E+00 0. -1.
         -5    1    5    5    0  502 -0.32136369111E+01  0.76443396791E+02  0.17689148068E+02  0.78669665911E+02  0.47000000000E+01 0.  1.
         11    1    6    6    0    0  0.58957375176E+02 -0.13126847629E+02 -0.30950823255E+02  0.67869283749E+02  0.00000000000E+00 0. -1.
        -12    1    6    6    0    0 -0.19153062875E+02 -0.25156764222E+02  0.57333258077E+01  0.32133683705E+02  0.00000000000E+00 0.  1.
</event>
<event>
12    1  0.8451514E-002  0.1891755E+03  0.7818608E-02  0.1159279E+00
         21   -1    0    0  503  502  0.00000000000E+00  0.00000000000E+00  0.52170115886E+03  0.52170115886E+03  0.00000000000E+00 0. -1.
         21   -1    0    0  501  503 -0.00000000000E+00 -0.00000000000E+00 -0.74666986555E+02  0.74666986555E+02  0.00000000000E+00 0. -1.
          6    2    1    2  501    0 -0.74452483916E+02  0.23966367516E+02  0.30916174096E+03  0.36228231981E+03  0.17190095415E+03 0.  0.
         24    2    3    3    0    0 -0.29955406721E+02  0.49377637857E+02  0.77635514013E+02  0.12510684404E+03  0.79303038262E+02 0.  0.
         -6    2    1    2    0  502  0.74452483916E+02 -0.23966367516E+02  0.13787243134E+03  0.23408582561E+03  0.17224925919E+03 0.  0.
        -24    2    5    5    0    0  0.10098535843E+02  0.30649233792E+02  0.22680099801E+02  0.91202454341E+02  0.82232261264E+02 0.  0.
          5    1    3    3  501    0 -0.44497077195E+02 -0.25411270341E+02  0.23152622695E+03  0.23717547577E+03  0.47000000000E+01 0. -1.
        -13    1    4    4    0    0  0.26382461811E+02  0.15084663886E+02  0.14006425891E+02  0.33462835236E+02  0.00000000000E+00 0.  1.
         14    1    4    4    0    0 -0.56337868533E+02  0.34292973971E+02  0.63629088122E+02  0.91644008805E+02  0.00000000000E+00 0. -1.
         -5    1    5    5    0  502  0.64353948072E+02 -0.54615601308E+02  0.11519233154E+03  0.14288337127E+03  0.47000000000E+01 0.  1.
         11    1    6    6    0    0 -0.28598685759E+02 -0.23432146744E+01 -0.10418233566E+02  0.30527284071E+02  0.00000000000E+00 0. -1.
        -12    1    6    6    0    0  0.38697221602E+02  0.32992448467E+02  0.33098333367E+02  0.60675170270E+02  0.00000000000E+00 0.  1.
</event>
<event>
12    1  0.8451514E-002  0.2369706E+03  0.7818608E-02  0.1121850E+00
         21   -1    0    0  503  502  0.00000000000E+00  0.00000000000E+00  0.29871114938E+03  0.29871114938E+03  0.00000000000E+00 0.  1.
         21   -1    0    0  501  503 -0.00000000000E+00 -0.00000000000E+00 -0.21090308512E+03  0.21090308512E+03  0.00000000000E+00 0.  1.
          6    2    1    2  501    0  0.58058175518E+02 -0.15290777184E+03  0.12807326631E+03  0.26924716251E+03  0.17128845420E+03 0.  0.
         24    2    3    3    0    0  0.96271413125E+02 -0.14080963295E+03  0.73956097054E+02  0.20173883339E+03  0.78316759940E+02 0.  0.
         -6    2    1    2    0  502 -0.58058175518E+02  0.15290777184E+03 -0.40265202056E+02  0.24036707199E+03  0.17147450063E+03 0.  0.
        -24    2    5    5    0    0 -0.76196929777E+01  0.11707327209E+03 -0.82819539044E+02  0.16512670058E+03  0.81507916415E+02 0.  0.
          5    1    3    3  501    0 -0.38213237607E+02 -0.12098138889E+02  0.54117169256E+02  0.67508329125E+02  0.47000000000E+01 0. -1.
        -11    1    4    4    0    0  0.51542749189E+02 -0.50399147155E+02 -0.69617053571E+01  0.72423714136E+02  0.00000000000E+00 0.  1.
         12    1    4    4    0    0  0.44728663936E+02 -0.90410485798E+02  0.80917802411E+02  0.12931511925E+03  0.00000000000E+00 0. -1.
         -5    1    5    5    0  502 -0.50438482541E+02  0.35834499747E+02  0.42554336988E+02  0.75240371408E+02  0.47000000000E+01 0.  1.
         13    1    6    6    0    0 -0.55184606791E+01 -0.78761922875E-01 -0.39996743786E+02  0.40375724455E+02  0.00000000000E+00 0. -1.
        -14    1    6    6    0    0 -0.21012322986E+01  0.11715203402E+03 -0.42822795258E+02  0.12475097613E+03  0.00000000000E+00 0.  1.
</event>
<event>
12    1  0.8451514E-002  0.1986206E+03  0.7818608E-02  0.1151266E+00
         21   -1    0    0  501  502  0.00000000000E+00  0.00000000000E+00  0.27370876190E+03  0.27370876190E+03  0.00000000000E+00 0. -1.
         21   -1    0    0  502  503 -0.00000000000E+00 -0.00000000000E+00 -0.17452884825E+03  0.17452884825E+03  0.00000000000E+00 0.  1.
         -6    2    1    2    0  503 -0.77625161880E+02  0.58358300763E+02 -0.45958904897E+02  0.20223875135E+03  0.17133865467E+03 0.  0.
        -24    2    3    3    0    0  0.56603151909E+01  0.10307194236E+02 -0.60626576176E+02  0.10486005702E+03  0.84745338503E+02 0.  0.
          6    2    1    2  501    0  0.77625161880E+02 -0.58358300763E+02  0.14513881856E+03  0.24599885880E+03  0.17325935719E+03 0.  0.
         24    2    5    5    0    0  0.12149072267E+03 -0.47855359538E+02  0.10268712723E+03  0.18388013944E+03  0.78848769484E+02 0.  0.
          5    1    5    5  501    0 -0.43865560795E+02 -0.10502941225E+02  0.42451691323E+02  0.62118719356E+02  0.47000000000E+01 0. -1.
        -11    1    6    6    0    0  0.31192400222E+02 -0.52091184937E+02  0.29159467180E+02  0.67355266357E+02  0.00000000000E+00 0.  1.
         12    1    6    6    0    0  0.90298322453E+02  0.42358253990E+01  0.73527660053E+02  0.11652487308E+03  0.00000000000E+00 0. -1.
         -5    1    3    3    0  503 -0.83285477071E+02  0.48051106527E+02  0.14667671279E+02  0.97378694334E+02  0.47000000000E+01 0.  1.
         13    1    4    4    0    0  0.30199919121E+01 -0.36500514923E+02 -0.15440316921E+02  0.39746840471E+02  0.00000000000E+00 0. -1.
        -14    1    4    4    0    0  0.26403232788E+01  0.46807709159E+02 -0.45186259255E+02  0.65113216548E+02  0.00000000000E+00 0.  1.
</event>
<event>
12    1  0.8451514E-002  0.2440038E+03  0.7818608E-02  0.1117163E+00
         21   -1    0    0  501  502  0.00000000000E+00  0.00000000000E+00  0.19893717738E+04  0.19893717738E+04  0.00000000000E+00 0. -1.
         21   -1    0    0  502  503 -0.00000000000E+00 -0.00000000000E+00 -0.15890882333E+03  0.15890882333E+03  0.00000000000E+00 0. -1.
         -6    2    1    2    0  503  0.13866789547E+03  0.10298182165E+03 -0.52533794192E+02  0.24954033519E+03  0.17226879733E+03 0.  0.
        -24    2    3    3    0    0  0.11972003398E+03  0.56779849365E+01 -0.31146308428E+02  0.14801904363E+03  0.81082789167E+02 0.  0.
          6    2    1    2  501    0 -0.13866789547E+03 -0.10298182165E+03  0.18829967446E+04  0.18987402619E+04  0.17234790697E+03 0.  0.
         24    2    5    5    0    0 -0.11711514956E+01 -0.57379426494E+02  0.70710145444E+03  0.71394628970E+03  0.80206405815E+02 0.  0.
          5    1    5    5  501    0 -0.13749674397E+03 -0.45602395154E+02  0.11758952902E+04  0.11847939722E+04  0.47000000000E+01 0. -1.
        -13    1    6    6    0    0  0.15000408452E+02  0.16856906384E+02  0.14995253993E+03  0.15164079853E+03  0.00000000000E+00 0.  1.
         14    1    6    6    0    0 -0.16171559948E+02 -0.74236332879E+02  0.55714891451E+03  0.56230549118E+03  0.00000000000E+00 0. -1.
         -5    1    3    3    0  503  0.18947861489E+02  0.97303836712E+02 -0.21387485763E+02  0.10152129157E+03  0.47000000000E+01 0.  1.
         11    1    4    4    0    0  0.10822054508E+02 -0.19203736623E+02 -0.28828959597E+02  0.36290622418E+02  0.00000000000E+00 0. -1.
        -12    1    4    4    0    0  0.10889797947E+03  0.24881721559E+02 -0.23173488312E+01  0.11172842121E+03  0.00000000000E+00 0.  1.
</event>
<event>
12    1  0.8451514E-002  0.1763898E+03  0.7818608E-02  0.1171525E+00
         21   -1    0    0  501  502  0.00000000000E+00  0.00000000000E+00  0.21814547370E+03  0.21814547370E+03  0.00000000000E+00 0. -1.
         21   -1    0    0  502  503 -0.00000000000E+00 -0.00000000000E+00 -0.16002540738E+03  0.16002540738E+03  0.00000000000E+00 0. -1.
         -6    2    1    2    0  503 -0.22467136890E+02  0.26326277272E+02  0.92400681665E+02  0.19848077509E+03  0.17221755716E+03 0.  0.
        -24    2    3    3    0    0 -0.14102476634E+02  0.68725832380E+02  0.93385837946E+01  0.10473061820E+03  0.77195682248E+02 0.  0.
          6    2    1    2  501    0  0.22467136890E+02 -0.26326277272E+02 -0.34280615354E+02  0.17969010599E+03  0.17296106061E+03 0.  0.
         24    2    5    5    0    0  0.29473645209E+02 -0.55422929168E+02 -0.77720271233E+02  0.12672974333E+03  0.77971728489E+02 0.  0.
          5    1    5    5  501    0 -0.70065083187E+01  0.29096651896E+02  0.43439655879E+02  0.52960362662E+02  0.47000000000E+01 0. -1.
        -11    1    6    6    0    0 -0.24117085485E+02 -0.79883082075E+01 -0.75575624653E+01  0.26505916900E+02  0.00000000000E+00 0.  1.
         12    1    6    6    0    0  0.53590730693E+02 -0.47434620960E+02 -0.70162708768E+02  0.10022382643E+03  0.00000000000E+00 0. -1.
         -5    1    3    3    0  503 -0.83646602562E+01 -0.42399555108E+02  0.83062097870E+02  0.93750156891E+02  0.47000000000E+01 0.  1.
         13    1    4    4    0    0  0.23713515807E+02  0.59831582442E+02  0.13173534830E+02  0.65693919881E+02  0.00000000000E+00 0. -1.
        -14    1    4    4    0    0 -0.37815992440E+02  0.88942499385E+01 -0.38349510359E+01  0.39036698319E+02  0.00000000000E+00 0.  1.
</event>
<event>
12    1  0.8451514E-002  0.1965348E+03  0.7818608E-02  0.1155001E+00
         21   -1    0    0  501  502  0.00000000000E+00  0.00000000000E+00  0.42679959386E+03  0.42679959386E+03  0.00000000000E+00 0.  1.
         21   -1    0    0  502  503 -0.00000000000E+00 -0.00000000000E+00 -0.12476524784E+03  0.12476524784E+03  0.00000000000E+00 0. -1.
         -6    2    1    2    0  503  0.59173450093E+02  0.41592168628E+02 -0.27699941039E+00  0.19653494545E+03  0.18274162735E+03 0.  0.
        -24    2    3    3    0    0  0.78512656654E+02 -0.33290427964E+01 -0.53294553701E+02  0.12425167485E+03  0.80142681930E+02 0.  0.
          6    2    1    2  501    0 -0.59173450093E+02 -0.41592168628E+02  0.30231134544E+03  0.35502989625E+03  0.17153038204E+03 0.  0.
         24    2    5    5    0    0 -0.96130611102E+02 -0.69557182333E+01  0.15371493143E+03  0.19796780757E+03  0.79205405636E+02 0.  0.
          5    1    5    5  501    0  0.36957161008E+02 -0.34636450395E+02  0.14859641400E+03  0.15706208868E+03  0.47000000000E+01 0. -1.
        -11    1    6    6    0    0 -0.91902768822E+02  0.69194169844E+01  0.15793700141E+03  0.18286085875E+03  0.00000000000E+00 0.  1.
         12    1    6    6    0    0 -0.42278422796E+01 -0.13875135218E+02 -0.42220699800E+01  0.15106948817E+02  0.00000000000E+00 0. -1.
         -5    1    3    3    0  503 -0.19339206561E+02  0.44921211424E+02  0.53017554291E+02  0.72283270604E+02  0.47000000000E+01 0.  1.
         11    1    4    4    0    0  0.33753374106E+02  0.21224960612E+02  0.11747720767E+02  0.41566791550E+02  0.00000000000E+00 0. -1.
        -12    1    4    4    0    0  0.44759282549E+02 -0.24554003408E+02 -0.65042274468E+02  0.82684883296E+02  0.00000000000E+00 0.  1.
</event>
<event>
12    1  0.8451514E-002  0.2360824E+03  0.7818608E-02  0.1123710E+00
         21   -1    0    0  501  502  0.00000000000E+00  0.00000000000E+00  0.53181833534E+03  0.53181833534E+03  0.00000000000E+00 0. -1.
         21   -1    0    0  502  503 -0.00000000000E+00 -0.00000000000E+00 -0.91947968712E+03  0.91947968712E+03  0.00000000000E+00 0. -1.
         -6    2    1    2    0  503  0.14758516381E+03  0.62350738974E+02 -0.87788886210E+03  0.90718600202E+03  0.16318269775E+03 0.  0.
        -24    2    3    3    0    0  0.10867371877E+03  0.26395945674E+02 -0.34387576979E+03  0.37053069322E+03  0.80843840003E+02 0.  0.
          6    2    1    2  501    0 -0.14758516381E+03 -0.62350738974E+02  0.49022751032E+03  0.54411202044E+03  0.17339516629E+03 0.  0.
         24    2    5    5    0    0 -0.85207294371E+02 -0.22744587143E+02  0.43695225810E+03  0.45289805026E+03  0.80073521273E+02 0.  0.
          5    1    5    5  501    0 -0.62377869435E+02 -0.39606151831E+02  0.53275252216E+02  0.91213970185E+02  0.47000000000E+01 0. -1.
        -11    1    6    6    0    0 -0.57401147899E+02 -0.45232932424E+02  0.36839586499E+03  0.37557479055E+03  0.00000000000E+00 0.  1.
         12    1    6    6    0    0 -0.27806146473E+02  0.22488345282E+02  0.68556393108E+02  0.77323259703E+02  0.00000000000E+00 0. -1.
         -5    1    3    3    0  503  0.38911445035E+02  0.35954793300E+02 -0.53401309231E+03  0.53665530881E+03  0.47000000000E+01 0.  1.
         11    1    4    4    0    0  0.90247303142E+02  0.50109592447E+02 -0.30080524816E+03  0.31802412534E+03  0.00000000000E+00 0. -1.
        -12    1    4    4    0    0  0.18426415630E+02 -0.23713646773E+02 -0.43070521629E+02  0.52506567871E+02  0.00000000000E+00 0.  1.
</event>
<event>
12    1  0.8451514E-002  0.1984859E+03  0.7818608E-02  0.1151580E+00
         21   -1    0    0  501  502  0.00000000000E+00  0.00000000000E+00  0.40344238325E+03  0.40344238325E+03  0.00000000000E+00 0.  1.
         21   -1    0    0  502  503 -0.00000000000E+00 -0.00000000000E+00 -0.24480712764E+03  0.24480712764E+03  0.00000000000E+00 0.  1.
         -6    2    1    2    0  503 -0.72748091741E+02  0.65911425030E+02 -0.17285846204E+03  0.26320465435E+03  0.17251098914E+03 0.  0.
        -24    2    3    3    0    0 -0.55821784683E+02  0.11233131119E+03 -0.13073114114E+03  0.19810391037E+03  0.80125731954E+02 0.  0.
          6    2    1    2  501    0  0.72748091741E+02 -0.65911425030E+02  0.33149371765E+03  0.38504485654E+03  0.16951358619E+03 0.  0.
         24    2    5    5    0    0  0.61015756100E+02  0.46939867540E+01  0.99309953059E+02  0.14203423452E+03  0.81032715584E+02 0.  0.
          5    1    5    5  501    0  0.11732335641E+02 -0.70605411784E+02  0.23218376459E+03  0.24301062202E+03  0.47000000000E+01 0. -1.
        -11    1    6    6    0    0  0.40884060512E+02 -0.11134359640E+02  0.10717277788E+03  0.11524532392E+03  0.00000000000E+00 0.  1.
         12    1    6    6    0    0  0.20131695588E+02  0.15828346394E+02 -0.78628248178E+01  0.26788910596E+02  0.00000000000E+00 0. -1.
         -5    1    3    3    0  503 -0.16926307059E+02 -0.46419886156E+02 -0.42127320900E+02  0.65100743987E+02  0.47000000000E+01 0.  1.
         13    1    4    4    0    0 -0.36014746245E+02  0.20858207393E+02 -0.58269596658E+01  0.42024757247E+02  0.00000000000E+00 0. -1.
        -14    1    4    4    0    0 -0.19807038438E+02  0.91473103793E+02 -0.12490418147E+03  0.15607915312E+03  0.00000000000E+00 0.  1.
</event>
<event>
12    1  0.8451514E-002  0.2032174E+03  0.7818608E-02  0.1147142E+00
         21   -1    0    0  503  502  0.00000000000E+00  0.00000000000E+00  0.11691645856E+03  0.11691645856E+03  0.00000000000E+00 0.  1.
         21   -1    0    0  501  503 -0.00000000000E+00 -0.00000000000E+00 -0.37307727966E+03  0.37307727966E+03  0.00000000000E+00 0.  1.
          6    2    1    2  501    0 -0.10773212669E+03  0.45695566792E+00 -0.18579025022E+03  0.27534583732E+03  0.17231045565E+03 0.  0.
         24    2    3    3    0    0 -0.65736743237E+02 -0.47742937495E+02 -0.17659756254E+03  0.21058908139E+03  0.80996016020E+02 0.  0.
         -6    2    1    2    0  502  0.10773212669E+03 -0.45695566792E+00 -0.70370570875E+02  0.21464790090E+03  0.17180012860E+03 0.  0.
        -24    2    5    5    0    0  0.11562831892E+02  0.23175042330E+02 -0.75588021981E+02  0.11536891829E+03  0.83220529757E+02 0.  0.
          5    1    3    3  501    0 -0.41995383453E+02  0.48199893163E+02 -0.91926876721E+01  0.64756755933E+02  0.47000000000E+01 0. -1.
        -13    1    4    4    0    0  0.34061072009E+01  0.17750930473E+02 -0.41814101745E+02  0.45553443379E+02  0.00000000000E+00 0.  1.
         14    1    4    4    0    0 -0.69142850437E+02 -0.65493867968E+02 -0.13478346080E+03  0.16503563801E+03  0.00000000000E+00 0. -1.
         -5    1    5    5    0  502  0.96169294798E+02 -0.23631997997E+02  0.52174511060E+01  0.99278982606E+02  0.47000000000E+01 0.  1.
         11    1    6    6    0    0  0.24068566444E+00  0.19910861423E+02  0.14424803616E+02  0.24588112810E+02  0.00000000000E+00 0. -1.
        -12    1    6    6    0    0  0.11322146227E+02  0.32641809061E+01 -0.90012825598E+02  0.90780805484E+02  0.00000000000E+00 0.  1.
</event>
<event>
12    1  0.8451514E-002  0.1747671E+03  0.7818608E-02  0.1173321E+00
         21   -1    0    0  501  502  0.00000000000E+00  0.00000000000E+00  0.11548820549E+03  0.11548820549E+03  0.00000000000E+00 0.  1.
         21   -1    0    0  502  503 -0.00000000000E+00 -0.00000000000E+00 -0.31657583474E+03  0.31657583474E+03  0.00000000000E+00 0.  1.
         -6    2    1    2    0  503 -0.28585564066E+02 -0.17321873688E+02 -0.10797761053E+02  0.17369651038E+03  0.17010791954E+03 0.  0.
        -24    2    3    3    0    0  0.36097184754E+02  0.30505152216E+02 -0.10050455531E+02  0.93111580846E+02  0.79593867681E+02 0.  0.
          6    2    1    2  501    0  0.28585564066E+02  0.17321873688E+02 -0.19028986820E+03  0.25836752985E+03  0.17154114598E+03 0.  0.
         24    2    5    5    0    0 -0.20830693644E+01  0.71907955211E+02 -0.14714479335E+03  0.18218490155E+03  0.79778787537E+02 0.  0.
          5    1    5    5  501    0  0.30668633430E+02 -0.54586081522E+02 -0.43145074847E+02  0.76182628308E+02  0.47000000000E+01 0. -1.
        -11    1    6    6    0    0  0.27824918025E+02  0.72344037869E+02 -0.10574043450E+03  0.13110654204E+03  0.00000000000E+00 0.  1.
         12    1    6    6    0    0 -0.29907987389E+02 -0.43608265863E+00 -0.41404358849E+02  0.51078359502E+02  0.00000000000E+00 0. -1.
         -5    1    3    3    0  503 -0.64682748819E+02 -0.47827025904E+02 -0.74730552188E+00  0.80584929529E+02  0.47000000000E+01 0.  1.
         13    1    4    4    0    0  0.17550623897E+02  0.10217696232E+02 -0.44573740120E+02  0.48982078598E+02  0.00000000000E+00 0. -1.
        -14    1    4    4    0    0  0.18546560857E+02  0.20287455984E+02  0.34523284589E+02  0.44129502249E+02  0.00000000000E+00 0.  1.
</event>
<event>
12    1  0.8451514E-002  0.1760441E+03  0.7818608E-02  0.1172909E+00
         21   -1    0    0  501  502  0.00000000000E+00  0.00000000000E+00  0.91589072497E+02  0.91589072497E+02  0.00000000000E+00 0.  1.
         21   -1    0    0  502  503 -0.00000000000E+00 -0.00000000000E+00 -0.79468571852E+03  0.79468571852E+03  0.00000000000E+00 0.  1.
         -6    2    1    2    0  503  0.66888474042E+01 -0.51534958851E+01 -0.69273153980E+03  0.71475065900E+03  0.17584146017E+03 0.  0.
        -24    2    3    3    0    0 -0.52942938312E+02 -0.44705190200E+02 -0.40624483450E+03  0.41942539983E+03  0.77982637292E+02 0.  0.
          6    2    1    2  501    0 -0.66888474042E+01  0.51534958851E+01 -0.10365106222E+02  0.17152413201E+03  0.17100231939E+03 0.  0.
         24    2    5    5    0    0 -0.63187393054E+02  0.13912096076E+02 -0.34265313136E+02  0.10937826627E+03  0.81260694007E+02 0.  0.
          5    1    5    5  501    0  0.56498545650E+02 -0.87586001906E+01  0.23900206914E+02  0.62145865738E+02  0.47000000000E+01 0. -1.
        -13    1    6    6    0    0 -0.47381081641E+01 -0.70098911054E+01  0.23254713575E+02  0.24746109710E+02  0.00000000000E+00 0.  1.
         14    1    6    6    0    0 -0.58449284890E+02  0.20921987181E+02 -0.57520026711E+02  0.84632156564E+02  0.00000000000E+00 0. -1.
         -5    1    3    3    0  503  0.59631785716E+02  0.39551694315E+02 -0.28648670530E+03  0.29532525917E+03  0.47000000000E+01 0.  1.
         13    1    4    4    0    0 -0.58136858556E+02 -0.17116490915E+02 -0.36191408828E+03  0.36695323391E+03  0.00000000000E+00 0. -1.
        -14    1    4    4    0    0  0.51939202442E+01 -0.27588699286E+02 -0.44330746216E+02  0.52472165915E+02  0.00000000000E+00 0.  1.
</event>
<event>
12    1  0.8451514E-002  0.1806323E+03  0.7818608E-02  0.1167459E+00
         21   -1    0    0  501  502  0.00000000000E+00  0.00000000000E+00  0.45099080114E+02  0.45099080114E+02  0.00000000000E+00 0.  1.
         21   -1    0    0  502  503 -0.00000000000E+00 -0.00000000000E+00 -0.80344362292E+03  0.80344362292E+03  0.00000000000E+00 0.  1.
         -6    2    1    2    0  503 -0.40670438178E+02  0.35629390622E+02 -0.51770877001E+03  0.54831597080E+03  0.17234992100E+03 0.  0.
        -24    2    3    3    0    0 -0.22320014208E+02  0.39703581511E+02 -0.52068350362E+03  0.52871300849E+03  0.79696781518E+02 0.  0.
          6    2    1    2  501    0  0.40670438178E+02 -0.35629390622E+02 -0.24063577279E+03  0.30022673223E+03  0.17119280821E+03 0.  0.
         24    2    5    5    0    0  0.14977347850E+02 -0.70732701734E+02 -0.23196166888E+03  0.25562059566E+03  0.79424410934E+02 0.  0.
          5    1    5    5  501    0  0.25693090328E+02  0.35103311112E+02 -0.86741039169E+01  0.44606136578E+02  0.47000000000E+01 0. -1.
        -13    1    6    6    0    0  0.26845959802E+02 -0.14726386475E+02 -0.21252750285E+02  0.37272663052E+02  0.00000000000E+00 0.  1.
         14    1    6    6    0    0 -0.11868611952E+02 -0.56006315258E+02 -0.21070891859E+03  0.21834793260E+03  0.00000000000E+00 0. -1.
         -5    1    3    3    0  503 -0.18350423971E+02 -0.40741908892E+01  0.29747336086E+01  0.19602962310E+02  0.47000000000E+01 0.  1.
         13    1    4    4    0    0  0.21310267228E+02  0.39762505287E+02 -0.19683027835E+03  0.20193400603E+03  0.00000000000E+00 0. -1.
        -14    1    4    4    0    0 -0.43630281436E+02 -0.58923776341E-01 -0.32385322527E+03  0.32677900246E+03  0.00000000000E+00 0.  1.
</event>
<event>
12    1  0.8451514E-002  0.1779722E+03  0.7818608E-02  0.1169948E+00
         21   -1    0    0  501  502  0.00000000000E+00  0.00000000000E+00  0.10734396372E+04  0.10734396372E+04  0.00000000000E+00 0.  1.
         21   -1    0    0  502  503 -0.00000000000E+00 -0.00000000000E+00 -0.52291980627E+02  0.52291980627E+02  0.00000000000E+00 0.  1.
         -6    2    1    2    0  503 -0.58533905783E+01  0.44392774596E+02  0.13755424542E+03  0.22439294051E+03  0.17154020141E+03 0.  0.
        -24    2    3    3    0    0  0.38817047418E+02  0.63559421842E+02  0.41744176929E+02  0.11685472581E+03  0.79786511146E+02 0.  0.
          6    2    1    2  501    0  0.58533905783E+01 -0.44392774596E+02  0.88359341121E+03  0.90133867737E+03  0.17224724780E+03 0.  0.
         24    2    5    5    0    0  0.31188041472E+02 -0.83320414453E+02  0.46568697729E+03  0.48083293045E+03  0.80130897879E+02 0.  0.
          5    1    5    5  501    0 -0.25334650894E+02  0.38927639856E+02  0.41790643392E+03  0.42050574692E+03  0.47000000000E+01 0. -1.
        -11    1    6    6    0    0 -0.28703400011E+01 -0.52721289378E+02  0.38027756579E+03  0.38392551393E+03  0.00000000000E+00 0.  1.
         12    1    6    6    0    0  0.34058381473E+02 -0.30599125075E+02  0.85409411505E+02  0.96907416525E+02  0.00000000000E+00 0. -1.
         -5    1    3    3    0  503 -0.44670437996E+02 -0.19166647246E+02  0.95810068486E+02  0.10753821470E+03  0.47000000000E+01 0.  1.
         11    1    4    4    0    0  0.48741522112E+02  0.37138916054E+02  0.57924565103E+02  0.84322537354E+02  0.00000000000E+00 0. -1.
        -12    1    4    4    0    0 -0.99244746947E+01  0.26420505788E+02 -0.16180388174E+02  0.32532188453E+02  0.00000000000E+00 0.  1.
</event>
<event>
12    1  0.8451514E-002  0.1740946E+03  0.7818608E-02  0.1173710E+00
         21   -1    0    0  503  502  0.00000000000E+00  0.00000000000E+00  0.11391152235E+03  0.11391152235E+03  0.00000000000E+00 0. -1.
         21   -1    0    0  501  503 -0.00000000000E+00 -0.00000000000E+00 -0.31439024570E+03  0.31439024570E+03  0.00000000000E+00 0. -1.
          6    2    1    2  501    0  0.15128127778E+02 -0.21725094615E+02 -0.18447485366E+03  0.25347311325E+03  0.17180456199E+03 0.  0.
         24    2    3    3    0    0 -0.54019824559E+02 -0.79014708395E+01 -0.14086993574E+03  0.17043089053E+03  0.78878228723E+02 0.  0.
         -6    2    1    2    0  502 -0.15128127778E+02  0.21725094615E+02 -0.16003869682E+02  0.17482865480E+03  0.17207002850E+03 0.  0.
        -24    2    5    5    0    0  0.52271062532E+01  0.47334819662E+02  0.47629624016E+02  0.10312436560E+03  0.78090626221E+02 0.  0.
          5    1    3    3  501    0  0.69147952337E+02 -0.13823623775E+02 -0.43604917924E+02  0.83042222717E+02  0.47000000000E+01 0. -1.
        -11    1    4    4    0    0 -0.59104212113E+02  0.86276928103E+01 -0.49899387644E+02  0.77831188221E+02  0.00000000000E+00 0.  1.
         12    1    4    4    0    0  0.50843875543E+01 -0.16529163650E+02 -0.90970548095E+02  0.92599702313E+02  0.00000000000E+00 0. -1.
         -5    1    5    5    0  502 -0.20355234031E+02 -0.25609725047E+02 -0.63633493698E+02  0.71704289200E+02  0.47000000000E+01 0.  1.
         13    1    6    6    0    0 -0.16851971591E+02 -0.64549292791E+01 -0.10522770341E+02  0.20889800242E+02  0.00000000000E+00 0. -1.
        -14    1    6    6    0    0  0.22079077844E+02  0.53789748941E+02  0.58152394357E+02  0.82234565354E+02  0.00000000000E+00 0.  1.
</event>
<event>
12    1  0.8451514E-002  0.1947356E+03  0.7818608E-02  0.1154297E+00
         21   -1    0    0  501  502  0.00000000000E+00  0.00000000000E+00  0.10700456860E+03  0.10700456860E+03  0.00000000000E+00 0.  1.
         21   -1    0    0  502  503 -0.00000000000E+00 -0.00000000000E+00 -0.37686305144E+03  0.37686305144E+03  0.00000000000E+00 0.  1.
         -6    2    1    2    0  503  0.88979348966E+02  0.19147653325E+02 -0.19448494245E+03  0.27522056185E+03  0.17215692741E+03 0.  0.
        -24    2    3    3    0    0  0.82173929168E+02 -0.47888327715E+02 -0.11943060545E+03  0.17424838749E+03  0.83982048433E+02 0.  0.
          6    2    1    2  501    0 -0.88979348966E+02 -0.19147653325E+02 -0.75373540397E+02  0.20864705819E+03  0.17195484037E+03 0.  0.
         24    2    5    5    0    0 -0.71324689806E+02  0.50810475429E+02 -0.31852900987E+02  0.12425533571E+03  0.82194071324E+02 0.  0.
          5    1    5    5  501    0 -0.17654659159E+02 -0.69958128754E+02 -0.43520639411E+02  0.84391722482E+02  0.47000000000E+01 0. -1.
        -13    1    6    6    0    0 -0.71867974401E+02  0.29000130152E+02 -0.52986555567E+02  0.93880713484E+02  0.00000000000E+00 0.  1.
         14    1    6    6    0    0  0.54328459435E+00  0.21810345277E+02  0.21133654580E+02  0.30374622223E+02  0.00000000000E+00 0. -1.
         -5    1    3    3    0  503  0.68054197975E+01  0.67035981039E+02 -0.75054336996E+02  0.10097217436E+03  0.47000000000E+01 0.  1.
         13    1    4    4    0    0  0.50892304593E+01  0.18533859662E+02 -0.42634931407E+02  0.46766885685E+02  0.00000000000E+00 0. -1.
        -14    1    4    4    0    0  0.77084698709E+02 -0.66422187377E+02 -0.76795674044E+02  0.12748150181E+03  0.00000000000E+00 0.  1.
</event>
<event>
12    1  0.8451514E-002  0.2229638E+03  0.7818608E-02  0.1132426E+00
         21   -1    0    0  501  502  0.00000000000E+00  0.00000000000E+00  0.11085084572E+04  0.11085084572E+04  0.00000000000E+00 0. -1.
         21   -1    0    0  502  503 -0.00000000000E+00 -0.00000000000E+00 -0.49392009757E+02  0.49392009757E+02  0.00000000000E+00 0. -1.
         -6    2    1    2    0  503  0.13127255507E+03 -0.35798445406E+02  0.34345331349E+03  0.40947897061E+03  0.17663192355E+03 0.  0.
        -24    2    3    3    0    0  0.79439816627E+02  0.51583249648E+02  0.18064519559E+03  0.21751343553E+03  0.75550591239E+02 0.  0.
          6    2    1    2  501    0 -0.13127255507E+03  0.35798445406E+02  0.71566313391E+03  0.74842149630E+03  0.17160128927E+03 0.  0.
         24    2    5    5    0    0 -0.36928666759E+02  0.15153240606E+02  0.13477279744E+03  0.15953893862E+03  0.75469324065E+02 0.  0.
          5    1    5    5  501    0 -0.94343888315E+02  0.20645204799E+02  0.58089033647E+03  0.58888255768E+03  0.47000000000E+01 0. -1.
        -11    1    6    6    0    0 -0.24490830806E+01 -0.16987322483E+02  0.98705494447E+02  0.10018653486E+03  0.00000000000E+00 0.  1.
         12    1    6    6    0    0 -0.34479583679E+02  0.32140563089E+02  0.36067302995E+02  0.59352403756E+02  0.00000000000E+00 0. -1.
         -5    1    3    3    0  503  0.51832738447E+02 -0.87381695054E+02  0.16280811790E+03  0.19196553509E+03  0.47000000000E+01 0.  1.
         13    1    4    4    0    0 -0.59015318962E+01  0.18097789090E+00 -0.43934637734E+01  0.73595757790E+01  0.00000000000E+00 0. -1.
        -14    1    4    4    0    0  0.85341348523E+02  0.51402271757E+02  0.18503865936E+03  0.21015385975E+03  0.00000000000E+00 0.  1.
</event>
<event>
12    1  0.8451514E-002  0.2180796E+03  0.7818608E-02  0.1135333E+00
         21   -1    0    0  501  502  0.00000000000E+00  0.00000000000E+00  0.15612170165E+03  0.15612170165E+03  0.00000000000E+00 0. -1.
         21   -1    0    0  502  503 -0.00000000000E+00 -0.00000000000E+00 -0.53853019360E+03  0.53853019360E+03  0.00000000000E+00 0. -1.
         -6    2    1    2    0  503 -0.80989824103E+02 -0.10847618224E+03  0.37722028894E+02  0.22131796707E+03  0.17097443482E+03 0.  0.
        -24    2    3    3    0    0 -0.74936544206E+02 -0.73913024328E+02  0.87073202507E+02  0.16058179647E+03  0.84416526455E+02 0.  0.
          6    2    1    2  501    0  0.80989824103E+02  0.10847618224E+03 -0.42013052084E+03  0.47333392818E+03  0.17090617106E+03 0.  0.
         24    2    5    5    0    0  0.25085155862E+02  0.94453108204E+02 -0.14163777164E+03  0.18890066730E+03  0.77920145405E+02 0.  0.
          5    1    5    5  501    0  0.55904668241E+02  0.14023074040E+02 -0.27849274920E+03  0.28443326088E+03  0.47000000000E+01 0. -1.
        -13    1    6    6    0    0  0.14263922107E+02 -0.11561155544E+02 -0.18744897738E+02  0.26239111696E+02  0.00000000000E+00 0.  1.
         14    1    6    6    0    0  0.10821233756E+02  0.10601426375E+03 -0.12289287390E+03  0.16266155561E+03  0.00000000000E+00 0. -1.
         -5    1    3    3    0  503 -0.60532798972E+01 -0.34563157915E+02 -0.49351173613E+02  0.60736170604E+02  0.47000000000E+01 0.  1.
         11    1    4    4    0    0 -0.74926589978E+02 -0.88752194504E+02  0.62559700814E+02  0.13192672997E+03  0.00000000000E+00 0. -1.
        -12    1    4    4    0    0 -0.99542277242E-02  0.14839170175E+02  0.24513501693E+02  0.28655066495E+02  0.00000000000E+00 0.  1.
</event>
<event>
12    1  0.8451514E-002  0.2526875E+03  0.7818608E-02  0.1112032E+00
         21   -1    0    0  501  502  0.00000000000E+00  0.00000000000E+00  0.38124176752E+02  0.38124176752E+02  0.00000000000E+00 0. -1.
         21   -1    0    0  502  503 -0.00000000000E+00 -0.00000000000E+00 -0.16598906701E+04  0.16598906701E+04  0.00000000000E+00 0.  1.
         -6    2    1    2    0  503 -0.17250967282E+03  0.56132834338E+02 -0.77336341860E+03  0.81278112230E+03  0.17208048473E+03 0.  0.
        -24    2    3    3    0    0 -0.77214185461E+02  0.17209510254E+02 -0.60469246734E+03  0.61512426087E+03  0.80415661261E+02 0.  0.
          6    2    1    2  501    0  0.17250967282E+03 -0.56132834338E+02 -0.84840307471E+03  0.88523372452E+03  0.17589908339E+03 0.  0.
         24    2    5    5    0    0  0.94220361373E+02 -0.53606076433E+01 -0.69267959917E+03  0.70363271647E+03  0.79923463169E+02 0.  0.
          5    1    5    5  501    0  0.78289311450E+02 -0.50772226695E+02 -0.15572347554E+03  0.18160100805E+03  0.47000000000E+01 0. -1.
        -13    1    6    6    0    0  0.94158007234E+02 -0.18349078503E+01 -0.40018761618E+03  0.41111947821E+03  0.00000000000E+00 0.  1.
         14    1    6    6    0    0  0.62354139243E-01 -0.35256997930E+01 -0.29249198299E+03  0.29251323826E+03  0.00000000000E+00 0. -1.
         -5    1    3    3    0  503 -0.95295487363E+02  0.38923324084E+02 -0.16867095127E+03  0.19765686143E+03  0.47000000000E+01 0.  1.
         11    1    4    4    0    0 -0.67073115733E+02  0.30994958884E+02 -0.26805612791E+03  0.27805319282E+03  0.00000000000E+00 0. -1.
        -12    1    4    4    0    0 -0.10141069728E+02 -0.13785448630E+02 -0.33663633943E+03  0.33707106805E+03  0.00000000000E+00 0.  1.
</event>
<event>
12    1  0.8451514E-002  0.2050191E+03  0.7818608E-02  0.1145593E+00
         21   -1    0    0  501  502  0.00000000000E+00  0.00000000000E+00  0.22805794080E+03  0.22805794080E+03  0.00000000000E+00 0.  1.
         21   -1    0    0  502  503 -0.00000000000E+00 -0.00000000000E+00 -0.22415591482E+03  0.22415591482E+03  0.00000000000E+00 0. -1.
         -6    2    1    2    0  503 -0.88095252011E+02 -0.67136670775E+02  0.97394721868E+02  0.22697703538E+03  0.17252459753E+03 0.  0.
        -24    2    3    3    0    0 -0.18764366317E+02 -0.25170021616E+02  0.11448393268E+03  0.14401859711E+03  0.81542345076E+02 0.  0.
          6    2    1    2  501    0  0.88095252011E+02  0.67136670775E+02 -0.93492695884E+02  0.22523682025E+03  0.17240253775E+03 0.  0.
         24    2    5    5    0    0  0.26873343359E+02 -0.30673568147E+02 -0.47389223400E+02  0.10088817686E+03  0.79181066990E+02 0.  0.
          5    1    5    5  501    0  0.61221908652E+02  0.97810238921E+02 -0.46103472484E+02  0.12434864339E+03  0.47000000000E+01 0. -1.
        -13    1    6    6    0    0  0.19621811820E+02  0.87796662116E+01  0.15354672767E+02  0.26417115923E+02  0.00000000000E+00 0.  1.
         14    1    6    6    0    0  0.72515315392E+01 -0.39453234358E+02 -0.62743896167E+02  0.74471060938E+02  0.00000000000E+00 0. -1.
         -5    1    3    3    0  503 -0.69330885694E+02 -0.41966649158E+02 -0.17089210816E+02  0.82958438263E+02  0.47000000000E+01 0.  1.
         13    1    4    4    0    0  0.14701431644E+02 -0.41014268958E+02  0.33460414487E+02  0.54935431992E+02  0.00000000000E+00 0. -1.
        -14    1    4    4    0    0 -0.33465797961E+02  0.15844247342E+02  0.81023518197E+02  0.89083165122E+02  0.00000000000E+00 0.  1.
</event>
<event>
12    1  0.8451514E-002  0.2070556E+03  0.7818608E-02  0.1145030E+00
         21   -1    0    0  503  502  0.00000000000E+00  0.00000000000E+00  0.60648471126E+02  0.60648471126E+02  0.00000000000E+00 0.  1.
         21   -1    0    0  501  503 -0.00000000000E+00 -0.00000000000E+00 -0.78539431675E+03  0.78539431675E+03  0.00000000000E+00 0.  1.
          6    2    1    2  501    0 -0.96458989892E+02  0.56896231958E+02 -0.51518122585E+03  0.55523301253E+03  0.17415649514E+03 0.  0.
         24    2    3    3    0    0 -0.93296266248E+02  0.91214901841E+02 -0.29535656273E+03  0.33267347794E+03  0.80073667106E+02 0.  0.
         -6    2    1    2    0  502  0.96458989892E+02 -0.56896231958E+02 -0.20956461977E+03  0.29080977534E+03  0.16766477755E+03 0.  0.
        -24    2    5    5    0    0  0.95993934632E+02  0.53443779008E+01 -0.18474307196E+03  0.22363605259E+03  0.81484253202E+02 0.  0.
          5    1    3    3  501    0 -0.31627236444E+01 -0.34318669883E+02 -0.21982466312E+03  0.22255953459E+03  0.47000000000E+01 0. -1.
        -13    1    4    4    0    0 -0.53447384097E+02  0.84349286439E+01 -0.16148876849E+03  0.17031263381E+03  0.00000000000E+00 0.  1.
         14    1    4    4    0    0 -0.39848882151E+02  0.82779973197E+02 -0.13386779424E+03  0.16236084413E+03  0.00000000000E+00 0. -1.
         -5    1    5    5    0  502  0.46505526024E+00 -0.62240609859E+02 -0.24821547811E+02  0.67173722747E+02  0.47000000000E+01 0.  1.
         11    1    6    6    0    0  0.27580164669E+00  0.25675825070E+02 -0.22361497289E+02  0.34049385024E+02  0.00000000000E+00 0. -1.
        -12    1    6    6    0    0  0.95718132985E+02 -0.20331447169E+02 -0.16238157467E+03  0.18958666757E+03  0.00000000000E+00 0.  1.
</event>
<event>
12    1  0.8451514E-002  0.1799158E+03  0.7818608E-02  0.1168287E+00
         21   -1    0    0  503  502  0.00000000000E+00  0.00000000000E+00  0.39165207047E+02  0.39165207047E+02  0.00000000000E+00 0. -1.
         21   -1    0    0  501  503 -0.00000000000E+00 -0.00000000000E+00 -0.83307554533E+03  0.83307554533E+03  0.00000000000E+00 0. -1.
          6    2    1    2  501    0 -0.24988605476E+02  0.42053525050E+02 -0.33830165542E+03  0.38239490076E+03  0.17142030421E+03 0.  0.
         24    2    3    3    0    0 -0.68979535908E+02  0.58957818645E+02 -0.17818137331E+03  0.21541720212E+03  0.80135937132E+02 0.  0.
         -6    2    1    2    0  502  0.24988605476E+02 -0.42053525050E+02 -0.45560868287E+03  0.48984585162E+03  0.17313797120E+03 0.  0.
        -24    2    5    5    0    0  0.22757045111E+02 -0.90190843951E+02 -0.23747861395E+03  0.26640682571E+03  0.76969040963E+02 0.  0.
          5    1    3    3  501    0  0.43990930432E+02 -0.16904293595E+02 -0.16012028210E+03  0.16697769864E+03  0.47000000000E+01 0. -1.
        -11    1    4    4    0    0 -0.32436422515E+02 -0.53482361855E+01 -0.14757470049E+02  0.36034817304E+02  0.00000000000E+00 0.  1.
         12    1    4    4    0    0 -0.36543113393E+02  0.64306054830E+02 -0.16342390326E+03  0.17938238482E+03  0.00000000000E+00 0. -1.
         -5    1    5    5    0  502  0.22315603644E+01  0.48137318902E+02 -0.21813006892E+03  0.22343902591E+03  0.47000000000E+01 0.  1.
         13    1    6    6    0    0 -0.12911858521E+02 -0.32401386837E+02 -0.23875982019E+02  0.42268528208E+02  0.00000000000E+00 0. -1.
        -14    1    6    6    0    0  0.35668903633E+02 -0.57789457114E+02 -0.21360263193E+03  0.22413829750E+03  0.00000000000E+00 0.  1.
</event>
<event>
12    1  0.8451514E-002  0.2066498E+03  0.7818608E-02  0.1144577E+00
         21   -1    0    0  501  502  0.00000000000E+00  0.00000000000E+00  0.54462283543E+03  0.54462283543E+03  0.00000000000E+00 0. -1.
         21   -1    0    0  502  503 -0.00000000000E+00 -0.00000000000E+00 -0.11322389563E+03  0.11322389563E+03  0.00000000000E+00 0. -1.
         -6    2    1    2    0  503  0.51164943853E+02 -0.10246473279E+03  0.31121287130E+02  0.20737325389E+03  0.17005369438E+03 0.  0.
        -24    2    3    3    0    0  0.87329520557E+02 -0.11608605546E+03  0.18123405034E+02  0.16633117818E+03  0.78963191380E+02 0.  0.
          6    2    1    2  501    0 -0.51164943853E+02  0.10246473279E+03  0.40027765267E+03  0.45047347716E+03  0.17200953885E+03 0.  0.
         24    2    5    5    0    0 -0.11458878838E+02  0.48855215182E+02  0.81646205472E+02  0.12489915213E+03  0.80097174604E+02 0.  0.
          5    1    5    5  501    0 -0.39706065015E+02  0.53609517604E+02  0.31863144720E+03  0.32557432504E+03  0.47000000000E+01 0. -1.
        -11    1    6    6    0    0 -0.45134074026E+02  0.24207663119E+02  0.33571731154E+02  0.61238523207E+02  0.00000000000E+00 0.  1.
         12    1    6    6    0    0  0.33675195188E+02  0.24647552064E+02  0.48074474318E+02  0.63660628921E+02  0.00000000000E+00 0. -1.
         -5    1    3    3    0  503 -0.36164576704E+02  0.13621322672E+02  0.12997882096E+02  0.41042075708E+02  0.47000000000E+01 0.  1.
         13    1    4    4    0    0  0.65446442456E+02 -0.51197525527E+02 -0.23300394870E+02  0.86297924953E+02  0.00000000000E+00 0. -1.
        -14    1    4    4    0    0  0.21883078101E+02 -0.64888529931E+02  0.41423799904E+02  0.80033253228E+02  0.00000000000E+00 0.  1.
</event>
<event>
12    1  0.8451514E-002  0.1941772E+03  0.7818608E-02  0.1154927E+00
         21   -1    0    0  503  502  0.00000000000E+00  0.00000000000E+00  0.29934270446E+03  0.29934270446E+03  0.00000000000E+00 0.  1.
         21   -1    0    0  501  503 -0.00000000000E+00 -0.00000000000E+00 -0.17033586972E+03  0.17033586972E+03  0.00000000000E+00 0.  1.
          6    2    1    2  501    0 -0.88884558341E+02 -0.64208453839E+01 -0.55978598874E+02  0.20208505906E+03  0.17251978320E+03 0.  0.
         24    2    3    3    0    0 -0.79292716526E+02 -0.16744229143E+02 -0.10241709911E+03  0.15332852118E+03  0.80328507463E+02 0.  0.
         -6    2    1    2    0  502  0.88884558341E+02  0.64208453839E+01  0.18498543362E+03  0.26759351513E+03  0.17159541578E+03 0.  0.
        -24    2    5    5    0    0  0.10312505635E+03  0.52177854528E+02  0.16088581201E+03  0.21374764777E+03  0.80290140560E+02 0.  0.
          5    1    3    3  501    0 -0.95918418151E+01  0.10323383759E+02  0.46438500241E+02  0.48756537882E+02  0.47000000000E+01 0. -1.
        -11    1    4    4    0    0 -0.42982890677E+02 -0.41495270019E+02 -0.25955277863E+02  0.65138796226E+02  0.00000000000E+00 0.  1.
         12    1    4    4    0    0 -0.36309825849E+02  0.24751040875E+02 -0.76461821251E+02  0.88189724950E+02  0.00000000000E+00 0. -1.
         -5    1    5    5    0  502 -0.14240498008E+02 -0.45757009144E+02  0.24099621605E+02  0.53845867351E+02  0.47000000000E+01 0.  1.
         13    1    6    6    0    0 -0.52034214302E+01  0.29539025341E+02  0.31718816372E+02  0.43654471990E+02  0.00000000000E+00 0. -1.
        -14    1    6    6    0    0  0.10832847778E+03  0.22638829186E+02  0.12916699564E+03  0.17009317578E+03  0.00000000000E+00 0.  1.
</event>
<event>
12    1  0.8451514E-002  0.2439458E+03  0.7818608E-02  0.1117202E+00
         21   -1    0    0  503  502  0.00000000000E+00  0.00000000000E+00  0.28058256424E+03  0.28058256424E+03  0.00000000000E+00 0. -1.
         21   -1    0    0  501  503 -0.00000000000E+00 -0.00000000000E+00 -0.45967059949E+03  0.45967059949E+03  0.00000000000E+00 0. -1.
          6    2    1    2  501    0  0.23454636164E+02  0.17170794391E+03 -0.36121200554E+03  0.43587114057E+03  0.17168517781E+03 0.  0.
         24    2    3    3    0    0 -0.18246188517E+02  0.23921473921E+02 -0.84433301711E+02  0.11931413088E+03  0.78750994155E+02 0.  0.
         -6    2    1    2    0  502 -0.23454636164E+02 -0.17170794391E+03  0.18212397030E+03  0.30438202316E+03  0.17159702068E+03 0.  0.
        -24    2    5    5    0    0 -0.43623143446E+02 -0.23318562678E+02  0.71749879924E+02  0.11828874823E+03  0.79984052657E+02 0.  0.
          5    1    3    3  501    0  0.41700824681E+02  0.14778646999E+03 -0.27677870383E+03  0.31655700969E+03  0.47000000000E+01 0. -1.
        -11    1    4    4    0    0 -0.36200415471E+02 -0.38711267523E+01 -0.77331721510E+02  0.85473100179E+02  0.00000000000E+00 0.  1.
         12    1    4    4    0    0  0.17954226954E+02  0.27792600673E+02 -0.71015802014E+01  0.33841030703E+02  0.00000000000E+00 0. -1.
         -5    1    5    5    0  502  0.20168507282E+02 -0.14838938123E+03  0.11037409037E+03  0.18609327493E+03  0.47000000000E+01 0.  1.
         13    1    6    6    0    0 -0.32864241871E+02 -0.41540140327E+02  0.79689656032E+02  0.95687423054E+02  0.00000000000E+00 0. -1.
        -14    1    6    6    0    0 -0.10758901576E+02  0.18221577649E+02 -0.79397761087E+01  0.22601325177E+02  0.00000000000E+00 0.  1.
</event>
<event>
12    1  0.8451514E-002  0.1722907E+03  0.7818608E-02  0.1175503E+00
         21   -1    0    0  503  502  0.00000000000E+00  0.00000000000E+00  0.49857929323E+02  0.49857929323E+02  0.00000000000E+00 0.  1.
         21   -1    0    0  501  503 -0.00000000000E+00 -0.00000000000E+00 -0.87979545206E+03  0.87979545206E+03  0.00000000000E+00 0.  1.
          6    2    1    2  501    0  0.64885031909E+01 -0.12374790937E+02 -0.67947883163E+03  0.70098187134E+03  0.17172322262E+03 0.  0.
         24    2    3    3    0    0  0.71018758510E+02 -0.15913937752E+01 -0.39338530861E+03  0.40746521181E+03  0.78928456283E+02 0.  0.
         -6    2    1    2    0  502 -0.64885031909E+01  0.12374790937E+02 -0.15045869110E+03  0.22867151004E+03  0.17163218128E+03 0.  0.
        -24    2    5    5    0    0  0.52318604856E+02  0.41910986586E+02 -0.73237452802E+02  0.12710442652E+03  0.79360213818E+02 0.  0.
          5    1    3    3  501    0 -0.64530255319E+02 -0.10783397162E+02 -0.28609352302E+03  0.29351665953E+03  0.47000000000E+01 0. -1.
        -13    1    4    4    0    0 -0.78178712402E+01 -0.18516001320E+02 -0.14329288089E+03  0.14469558089E+03  0.00000000000E+00 0.  1.
         14    1    4    4    0    0  0.78836629750E+02  0.16924607545E+02 -0.25009242773E+03  0.26276963093E+03  0.00000000000E+00 0. -1.
         -5    1    5    5    0  502 -0.58807108047E+02 -0.29536195649E+02 -0.77221238302E+02  0.10156708352E+03  0.47000000000E+01 0.  1.
         11    1    6    6    0    0  0.40241334337E+00  0.47352892387E+02 -0.16847766039E+02  0.50262367378E+02  0.00000000000E+00 0. -1.
        -12    1    6    6    0    0  0.51916191513E+02 -0.54419058004E+01 -0.56389686763E+02  0.76842059142E+02  0.00000000000E+00 0.  1.
</event>
<event>
12    1  0.8451514E-002  0.1894902E+03  0.7818608E-02  0.1158960E+00
         21   -1    0    0  501  502  0.00000000000E+00  0.00000000000E+00  0.60801602478E+02  0.60801602478E+02  0.00000000000E+00 0.  1.
         21   -1    0    0  502  503 -0.00000000000E+00 -0.00000000000E+00 -0.84632010878E+03  0.84632010878E+03  0.00000000000E+00 0.  1.
         -6    2    1    2    0  503  0.29971347546E+02  0.73578811730E+02 -0.64223160092E+03  0.66955558684E+03  0.17184624363E+03 0.  0.
        -24    2    3    3    0    0 -0.74807158150E+01 -0.57819834824E+01 -0.15423749281E+03  0.17371172794E+03  0.79354696103E+02 0.  0.
          6    2    1    2  501    0 -0.29971347546E+02 -0.73578811730E+02 -0.14328690538E+03  0.23756612441E+03  0.17203023863E+03 0.  0.
         24    2    5    5    0    0 -0.68707501482E+02 -0.76127588676E+02 -0.53897444688E+02  0.13999793508E+03  0.78602523915E+02 0.  0.
          5    1    5    5  501    0  0.38736153936E+02  0.25487769453E+01 -0.89389460696E+02  0.97568189330E+02  0.47000000000E+01 0. -1.
        -11    1    6    6    0    0 -0.14830930584E+02 -0.46660426274E+02  0.11494892219E+02  0.50291991701E+02  0.00000000000E+00 0.  1.
         12    1    6    6    0    0 -0.53876570898E+02 -0.29467162402E+02 -0.65392336907E+02  0.89705943381E+02  0.00000000000E+00 0. -1.
         -5    1    3    3    0  503  0.37452063361E+02  0.79360795213E+02 -0.48799410810E+03  0.49584385890E+03  0.47000000000E+01 0.  1.
         13    1    4    4    0    0 -0.47049463271E+01  0.36230032857E+02 -0.56396329887E+02  0.67195965842E+02  0.00000000000E+00 0. -1.
        -14    1    4    4    0    0 -0.27757694879E+01 -0.42012016340E+02 -0.97841162925E+02  0.10651576210E+03  0.00000000000E+00 0.  1.
</event>
<event>
12    1  0.8451514E-002  0.2120892E+03  0.7818608E-02  0.1143073E+00
         21   -1    0    0  501  502  0.00000000000E+00  0.00000000000E+00  0.52428197058E+03  0.52428197058E+03  0.00000000000E+00 0. -1.
         21   -1    0    0  502  503 -0.00000000000E+00 -0.00000000000E+00 -0.13315906344E+03  0.13315906344E+03  0.00000000000E+00 0. -1.
         -6    2    1    2    0  503  0.35239784608E+02  0.87827239916E+02  0.40828593490E+03  0.46008611160E+03  0.18980610884E+03 0.  0.
        -24    2    3    3    0    0  0.74700902175E+02  0.71752249364E+02  0.14142575281E+03  0.18980471766E+03  0.72773465034E+02 0.  0.
          6    2    1    2  501    0 -0.35239784608E+02 -0.87827239916E+02 -0.17163027762E+02  0.19735492242E+03  0.17233377322E+03 0.  0.
         24    2    5    5    0    0 -0.87646490514E+01 -0.10231717327E+03 -0.61020637913E+02  0.14390895962E+03  0.80253644085E+02 0.  0.
          5    1    5    5  501    0 -0.26475135557E+02  0.14489933353E+02  0.43857610151E+02  0.53445962799E+02  0.47000000000E+01 0. -1.
        -13    1    6    6    0    0  0.27202804646E+01  0.37925344014E+01 -0.33317407810E+02  0.33642724416E+02  0.00000000000E+00 0.  1.
         14    1    6    6    0    0 -0.11484929516E+02 -0.10610970767E+03 -0.27703230103E+02  0.11026623520E+03  0.00000000000E+00 0. -1.
         -5    1    3    3    0  503 -0.39461117566E+02  0.16074990552E+02  0.26686018210E+03  0.27028139394E+03  0.47000000000E+01 0.  1.
         11    1    4    4    0    0  0.51501285551E+02  0.56884982392E+02  0.43780309572E+02  0.88345906195E+02  0.00000000000E+00 0. -1.
        -12    1    4    4    0    0  0.23199616623E+02  0.14867266973E+02  0.97645443236E+02  0.10145881146E+03  0.00000000000E+00 0.  1.
</event>
<event>
12    1  0.8451514E-002  0.2378302E+03  0.7818608E-02  0.1121300E+00
         21   -1    0    0  501  502  0.00000000000E+00  0.00000000000E+00  0.19615669808E+03  0.19615669808E+03  0.00000000000E+00 0. -1.
         21   -1    0    0  502  503 -0.00000000000E+00 -0.00000000000E+00 -0.28804893462E+03  0.28804893462E+03  0.00000000000E+00 0.  1.
         -6    2    1    2    0  503 -0.21152929527E+02 -0.16308658398E+03 -0.49845553902E+02  0.24268728132E+03  0.17137052538E+03 0.  0.
        -24    2    3    3    0    0 -0.53060913714E+02 -0.11543339621E+03  0.20657445135E+02  0.15168338782E+03  0.80254536172E+02 0.  0.
          6    2    1    2  501    0  0.21152929527E+02  0.16308658398E+03 -0.42046682637E+02  0.24151835138E+03  0.17180951729E+03 0.  0.
         24    2    5    5    0    0 -0.12720002244E+01  0.11864855912E+03 -0.92103860313E+02  0.17076931206E+03  0.81240004260E+02 0.  0.
          5    1    5    5  501    0  0.22424929751E+02  0.44438024864E+02  0.50057177676E+02  0.70749039322E+02  0.47000000000E+01 0. -1.
        -13    1    6    6    0    0  0.32243751648E+02  0.97953619431E+02 -0.76500303255E+02  0.12840119734E+03  0.00000000000E+00 0.  1.
         14    1    6    6    0    0 -0.33515751873E+02  0.20694939684E+02 -0.15603557057E+02  0.42368114721E+02  0.00000000000E+00 0. -1.
         -5    1    3    3    0  503  0.31907984187E+02 -0.47653187771E+02 -0.70502999037E+02  0.91003893503E+02  0.47000000000E+01 0.  1.
         13    1    4    4    0    0  0.93742221136E+01 -0.47748796415E+02 -0.17907128479E+02  0.51850639819E+02  0.00000000000E+00 0. -1.
        -14    1    4    4    0    0 -0.62435135828E+02 -0.67684599794E+02  0.38564573614E+02  0.99832747999E+02  0.00000000000E+00 0.  1.
</event>
<event>
12    1  0.8451514E-002  0.1989661E+03  0.7818608E-02  0.1150886E+00
         21   -1    0    0  501  502  0.00000000000E+00  0.00000000000E+00  0.59415008489E+02  0.59415008489E+02  0.00000000000E+00 0.  1.
         21   -1    0    0  502  503 -0.00000000000E+00 -0.00000000000E+00 -0.66602880274E+03  0.66602880274E+03  0.00000000000E+00 0. -1.
         -6    2    1    2    0  503 -0.93280654068E+02  0.32894492892E+02 -0.33242876805E+03  0.38742274225E+03  0.17263883487E+03 0.  0.
        -24    2    3    3    0    0 -0.62110133390E+02 -0.34212911065E+02 -0.11289954296E+03  0.15571133621E+03  0.80445767255E+02 0.  0.
          6    2    1    2  501    0  0.93280654068E+02 -0.32894492892E+02 -0.27418502620E+03  0.33802106897E+03  0.17116508520E+03 0.  0.
         24    2    5    5    0    0  0.29680471148E+02 -0.58785218170E+02 -0.23987718111E+03  0.26111573003E+03  0.79396033979E+02 0.  0.
          5    1    5    5  501    0  0.63600182919E+02  0.25890725278E+02 -0.34307845097E+02  0.76905338943E+02  0.47000000000E+01 0. -1.
        -13    1    6    6    0    0  0.55320225506E+02 -0.50873956946E+02 -0.15821975369E+03  0.17516271665E+03  0.00000000000E+00 0.  1.
         14    1    6    6    0    0 -0.25639754358E+02 -0.79112612232E+01 -0.81657427412E+02  0.85953013380E+02  0.00000000000E+00 0. -1.
         -5    1    3    3    0  503 -0.31170520677E+02  0.67107403957E+02 -0.21952922509E+03  0.23171140605E+03  0.47000000000E+01 0.  1.
         11    1    4    4    0    0  0.13430994499E+02 -0.18560760709E+02 -0.53975736673E+02  0.58636793915E+02  0.00000000000E+00 0. -1.
        -12    1    4    4    0    0 -0.75541127889E+02 -0.15652150356E+02 -0.58923806288E+02  0.97074542291E+02  0.00000000000E+00 0.  1.
</event>
<event>
12    1  0.8451514E-002  0.1835137E+03  0.7818608E-02  0.1164601E+00
         21   -1    0    0  501  502  0.00000000000E+00  0.00000000000E+00  0.24749091952E+02  0.24749091952E+02  0.00000000000E+00 0.  1.
         21   -1    0    0  502  503 -0.00000000000E+00 -0.00000000000E+00 -0.14435246806E+04  0.14435246806E+04  0.00000000000E+00 0.  1.
         -6    2    1    2    0  503 -0.38191117737E+02 -0.51489471349E+02 -0.89151676297E+03  0.91020845399E+03  0.17195221409E+03 0.  0.
        -24    2    3    3    0    0 -0.77845135826E+02 -0.26325809381E+02 -0.78983340115E+03  0.79810472031E+03  0.79883850687E+02 0.  0.
          6    2    1    2  501    0  0.38191117737E+02  0.51489471349E+02 -0.52725882566E+03  0.55806531854E+03  0.17124632372E+03 0.  0.
         24    2    5    5    0    0 -0.20585079686E+02  0.46657051246E+02 -0.45528167862E+03  0.46489454327E+03  0.79024702106E+02 0.  0.
          5    1    5    5  501    0  0.58776197423E+02  0.48324201036E+01 -0.71977147039E+02  0.93170775265E+02  0.47000000000E+01 0. -1.
        -11    1    6    6    0    0  0.24656010550E+02  0.40887316071E+02 -0.26101897092E+03  0.26534994752E+03  0.00000000000E+00 0.  1.
         12    1    6    6    0    0 -0.45241090236E+02  0.57697351748E+01 -0.19426270770E+03  0.19954459575E+03  0.00000000000E+00 0. -1.
         -5    1    3    3    0  503  0.39654018089E+02 -0.25163661968E+02 -0.10168336182E+03  0.11210373368E+03  0.47000000000E+01 0.  1.
         11    1    4    4    0    0 -0.58512104965E+02  0.16282163024E+02 -0.30293761588E+03  0.30896597608E+03  0.00000000000E+00 0. -1.
        -12    1    4    4    0    0 -0.19333030860E+02 -0.42607972405E+02 -0.48689578527E+03  0.48913874423E+03  0.00000000000E+00 0.  1.
</event>
<event>
12    1  0.8451514E-002  0.2375302E+03  0.7818608E-02  0.1121904E+00
         21   -1    0    0  501  502  0.00000000000E+00  0.00000000000E+00  0.40144984777E+03  0.40144984777E+03  0.00000000000E+00 0. -1.
         21   -1    0    0  502  503 -0.00000000000E+00 -0.00000000000E+00 -0.14228564342E+03  0.14228564342E+03  0.00000000000E+00 0. -1.
         -6    2    1    2    0  503 -0.59030997436E+02  0.15324965349E+03  0.87318775822E+02  0.25056070934E+03  0.16788682349E+03 0.  0.
        -24    2    3    3    0    0  0.21121840932E+01  0.15398903491E+03  0.76387995406E+02  0.18826618877E+03  0.76759024195E+02 0.  0.
          6    2    1    2  501    0  0.59030997436E+02 -0.15324965349E+03  0.17184542853E+03  0.29317478186E+03  0.17161144034E+03 0.  0.
         24    2    5    5    0    0  0.93235999022E+02 -0.56986877032E+02  0.93103640043E+02  0.16410556198E+03  0.79510326477E+02 0.  0.
          5    1    5    5  501    0 -0.34205001586E+02 -0.96262776454E+02  0.78741788490E+02  0.12906921987E+03  0.47000000000E+01 0. -1.
        -13    1    6    6    0    0  0.68223642717E+02  0.48731121036E+01  0.45888575424E+02  0.82364883303E+02  0.00000000000E+00 0.  1.
         14    1    6    6    0    0  0.25012356305E+02 -0.61859989136E+02  0.47215064619E+02  0.81740678678E+02  0.00000000000E+00 0. -1.
         -5    1    3    3    0  503 -0.61143181529E+02 -0.73938142763E+00  0.10930780416E+02  0.62294520569E+02  0.47000000000E+01 0.  1.
         13    1    4    4    0    0  0.20045474400E+02  0.38792528379E+02 -0.79387778942E+01  0.44381364292E+02  0.00000000000E+00 0. -1.
        -14    1    4    4    0    0 -0.17933290307E+02  0.11519650654E+03  0.84326773300E+02  0.14388482448E+03  0.00000000000E+00 0.  1.
</event>
<event>
12    1  0.8451514E-002  0.1784742E+03  0.7818608E-02  0.1170033E+00
         21   -1    0    0  503  502  0.00000000000E+00  0.00000000000E+00  0.17135109339E+03  0.17135109339E+03  0.00000000000E+00 0. -1.
         21   -1    0    0  501  503 -0.00000000000E+00 -0.00000000000E+00 -0.19508309063E+03  0.19508309063E+03  0.00000000000E+00 0. -1.
          6    2    1    2  501    0  0.31287085685E+02  0.20138690231E+02  0.34082561079E+02  0.18169932354E+03  0.17455249821E+03 0.  0.
         24    2    3    3    0    0  0.54236230360E+02 -0.44021129933E+02  0.40125705540E+02  0.11312997646E+03  0.79428526134E+02 0.  0.
         -6    2    1    2    0  502 -0.31287085685E+02 -0.20138690231E+02 -0.57814558313E+02  0.18473486047E+03  0.17146427309E+03 0.  0.
        -24    2    5    5    0    0  0.23295649021E+02  0.28393850162E+02  0.50510600014E+01  0.88252435283E+02  0.80087958744E+02 0.  0.
          5    1    3    3  501    0 -0.22949144675E+02  0.64159820164E+02 -0.60431444609E+01  0.68569347086E+02  0.47000000000E+01 0. -1.
        -13    1    4    4    0    0  0.12847497476E+01 -0.19418411195E+02  0.50235458551E+02  0.53873245410E+02  0.00000000000E+00 0.  1.
         14    1    4    4    0    0  0.52951480613E+02 -0.24602718738E+02 -0.10109753010E+02  0.59256731046E+02  0.00000000000E+00 0. -1.
         -5    1    5    5    0  502 -0.54582734706E+02 -0.48532540392E+02 -0.62865618314E+02  0.96482425192E+02  0.47000000000E+01 0.  1.
         13    1    6    6    0    0  0.24174605751E+02 -0.19932526929E+02  0.20577688478E+02  0.37485443256E+02  0.00000000000E+00 0. -1.
        -14    1    6    6    0    0 -0.87895673020E+00  0.48326377090E+02 -0.15526628476E+02  0.50766992027E+02  0.00000000000E+00 0.  1.
</event>
<event>
12    1  0.8451514E-002  0.1832438E+03  0.7818608E-02  0.1165179E+00
         21   -1    0    0  501  502  0.00000000000E+00  0.00000000000E+00  0.96788242499E+02  0.96788242499E+02  0.00000000000E+00 0. -1.
         21   -1    0    0  502  503 -0.00000000000E+00 -0.00000000000E+00 -0.38361716404E+03  0.38361716404E+03  0.00000000000E+00 0. -1.
         -6    2    1    2    0  503 -0.12064838110E+02 -0.53689724791E+02 -0.22216192348E+03  0.28798300262E+03  0.17478599111E+03 0.  0.
        -24    2    3    3    0    0 -0.57608491255E+02  0.16157195583E+02 -0.11249182553E+03  0.15013367541E+03  0.79409800705E+02 0.  0.
          6    2    1    2  501    0  0.12064838110E+02  0.53689724791E+02 -0.64666998054E+02  0.19242240391E+03  0.17267430041E+03 0.  0.
         24    2    5    5    0    0 -0.60162411730E+02  0.20279617488E+02 -0.33550225920E+02  0.10684580432E+03  0.79117820818E+02 0.  0.
          5    1    5    5  501    0  0.72227249839E+02  0.33410107303E+02 -0.31116772134E+02  0.85576599590E+02  0.47000000000E+01 0. -1.
        -13    1    6    6    0    0 -0.14391732161E+02  0.34479892879E+02 -0.44075276761E+02  0.57780749295E+02  0.00000000000E+00 0.  1.
         14    1    6    6    0    0 -0.45770679569E+02 -0.14200275391E+02  0.10525050841E+02  0.49065055025E+02  0.00000000000E+00 0. -1.
         -5    1    3    3    0  503  0.45543653146E+02 -0.69846920374E+02 -0.10967009796E+03  0.13784932721E+03  0.47000000000E+01 0.  1.
         13    1    4    4    0    0 -0.76391311496E+02  0.69140059413E+01 -0.98964274723E+02  0.12520927930E+03  0.00000000000E+00 0. -1.
        -14    1    4    4    0    0  0.18782820240E+02  0.92431896421E+01 -0.13527550804E+02  0.24924396115E+02  0.00000000000E+00 0.  1.
</event>
<event>
12    1  0.8451514E-002  0.2198287E+03  0.7818608E-02  0.1134471E+00
         21   -1    0    0  501  502  0.00000000000E+00  0.00000000000E+00  0.19950848551E+03  0.19950848551E+03  0.00000000000E+00 0.  1.
         21   -1    0    0  502  503 -0.00000000000E+00 -0.00000000000E+00 -0.32226054634E+03  0.32226054634E+03  0.00000000000E+00 0. -1.
         -6    2    1    2    0  503 -0.13189694346E+03 -0.30380592795E+02  0.71066902236E+02  0.22869828145E+03  0.17009590010E+03 0.  0.
        -24    2    3    3    0    0 -0.76367008599E+02  0.35020858032E+02 -0.10391481879E+01  0.11652744770E+03  0.80741474716E+02 0.  0.
          6    2    1    2  501    0  0.13189694346E+03  0.30380592795E+02 -0.19381896306E+03  0.29307075040E+03  0.17321919693E+03 0.  0.
         24    2    5    5    0    0  0.36771092478E+02 -0.45441846405E+01 -0.16696709741E+02  0.88955463795E+02  0.79129839926E+02 0.  0.
          5    1    5    5  501    0  0.95125850984E+02  0.34924777436E+02 -0.17712225332E+03  0.20411528661E+03  0.47000000000E+01 0. -1.
        -13    1    6    6    0    0 -0.21607086935E+02  0.40758145257E+01 -0.20175666773E+02  0.29841849802E+02  0.00000000000E+00 0.  1.
         14    1    6    6    0    0  0.58378179414E+02 -0.86199991662E+01  0.34789570313E+01  0.59113613993E+02  0.00000000000E+00 0. -1.
         -5    1    3    3    0  503 -0.55529934864E+02 -0.65401450828E+02  0.72106050424E+02  0.11217083375E+03  0.47000000000E+01 0.  1.
         13    1    4    4    0    0 -0.47292111918E+02  0.15774839437E+02 -0.40237078761E+02  0.64065684388E+02  0.00000000000E+00 0. -1.
        -14    1    4    4    0    0 -0.29074896681E+02  0.19246018596E+02  0.39197930573E+02  0.52461763314E+02  0.00000000000E+00 0.  1.
</event>
<event>
12    1  0.8451514E-002  0.2421824E+03  0.7818608E-02  0.1118755E+00
         21   -1    0    0  503  502  0.00000000000E+00  0.00000000000E+00  0.29036715719E+03  0.29036715719E+03  0.00000000000E+00 0.  1.
         21   -1    0    0  501  503 -0.00000000000E+00 -0.00000000000E+00 -0.21967639259E+03  0.21967639259E+03  0.00000000000E+00 0. -1.
          6    2    1    2  501    0 -0.72721903487E+01 -0.16723864660E+03 -0.40921266402E+02  0.24561530691E+03  0.17501622575E+03 0.  0.
         24    2    3    3    0    0 -0.49172374300E+01 -0.20713819475E+02 -0.63049283972E+02  0.97335807552E+02  0.71033834764E+02 0.  0.
         -6    2    1    2    0  502  0.72721903487E+01  0.16723864660E+03  0.11161203100E+03  0.26442824287E+03  0.17159079373E+03 0.  0.
        -24    2    5    5    0    0  0.90339085396E+01  0.93930257458E+02 -0.87711533192E+01  0.12339128092E+03  0.79018797167E+02 0.  0.
          5    1    3    3  501    0 -0.23549529186E+01 -0.14652482713E+03  0.22128017570E+02  0.14827949936E+03  0.47000000000E+01 0. -1.
        -11    1    4    4    0    0 -0.34441869209E+02 -0.11117599129E+02 -0.13030868571E+02  0.38466178660E+02  0.00000000000E+00 0.  1.
         12    1    4    4    0    0  0.29524631779E+02 -0.95962203456E+01 -0.50018415401E+02  0.58869628892E+02  0.00000000000E+00 0. -1.
         -5    1    5    5    0  502 -0.17617181909E+01  0.73308389142E+02  0.12038318432E+03  0.14103696195E+03  0.47000000000E+01 0.  1.
         13    1    6    6    0    0 -0.24705446919E+02  0.15307925254E+02 -0.22481430901E+02  0.36743794284E+02  0.00000000000E+00 0. -1.
        -14    1    6    6    0    0  0.33739355459E+02  0.78622332205E+02  0.13710277582E+02  0.86647486631E+02  0.00000000000E+00 0.  1.
</event>
<event>
12    1  0.8451514E-002  0.1962402E+03  0.7818608E-02  0.1153848E+00
         21   -1    0    0  501  502  0.00000000000E+00  0.00000000000E+00  0.27758848290E+02  0.27758848290E+02  0.00000000000E+00 0.  1.
         21   -1    0    0  502  503 -0.00000000000E+00 -0.00000000000E+00 -0.14212469935E+04  0.14212469935E+04  0.00000000000E+00 0. -1.
         -6    2    1    2    0  503  0.74626368919E+02 -0.24472475200E+02 -0.84200563487E+03  0.86364852885E+03  0.17534906691E+03 0.  0.
        -24    2    3    3    0    0  0.12581836691E+02  0.25227497737E+01 -0.71565879995E+03  0.72024741713E+03  0.80150839389E+02 0.  0.
          6    2    1    2  501    0 -0.74626368919E+02  0.24472475200E+02 -0.55148251032E+03  0.58535731291E+03  0.17983944953E+03 0.  0.
         24    2    5    5    0    0 -0.85928591800E+02 -0.45469067757E+02 -0.28238941485E+03  0.30705398252E+03  0.71324663019E+02 0.  0.
          5    1    5    5  501    0  0.11302222881E+02  0.69941542957E+02 -0.26909309547E+03  0.27830333038E+03  0.47000000000E+01 0. -1.
        -13    1    6    6    0    0 -0.43380042493E+02  0.97808126573E+01 -0.65018533104E+02  0.78771200511E+02  0.00000000000E+00 0.  1.
         14    1    6    6    0    0 -0.42548549307E+02 -0.55249880414E+02 -0.21737088174E+03  0.22828278201E+03  0.00000000000E+00 0. -1.
         -5    1    3    3    0  503  0.62044532228E+02 -0.26995224974E+02 -0.12634683492E+03  0.14340111172E+03  0.47000000000E+01 0.  1.
         13    1    4    4    0    0 -0.87023466145E+01 -0.36025704764E+02 -0.34260658186E+03  0.34460535715E+03  0.00000000000E+00 0. -1.
        -14    1    4    4    0    0  0.21284183305E+02  0.38548454538E+02 -0.37305221809E+03  0.37564205998E+03  0.00000000000E+00 0.  1.
</event>
<event>
12    1  0.8451514E-002  0.1859684E+03  0.7818608E-02  0.1162336E+00
         21   -1    0    0  501  502  0.00000000000E+00  0.00000000000E+00  0.69535482445E+02  0.69535482445E+02  0.00000000000E+00 0. -1.
         21   -1    0    0  502  503 -0.00000000000E+00 -0.00000000000E+00 -0.52834849364E+03  0.52834849364E+03  0.00000000000E+00 0. -1.
         -6    2    1    2    0  503 -0.28695718642E+02 -0.62583786106E+02 -0.30474726558E+03  0.35700857921E+03  0.17275432034E+03 0.  0.
        -24    2    3    3    0    0  0.90390323425E+01  0.16942864926E+02 -0.80983969057E+02  0.11650805420E+03  0.81528882444E+02 0.  0.
          6    2    1    2  501    0  0.28695718642E+02  0.62583786106E+02 -0.15406574562E+03  0.24087539688E+03  0.17188521838E+03 0.  0.
         24    2    5    5    0    0 -0.12984150284E+01  0.35280708883E+02 -0.17443643542E+03  0.19524469358E+03  0.80287023039E+02 0.  0.
          5    1    5    5  501    0  0.29994133671E+02  0.27303077222E+02  0.20370689803E+02  0.45630703298E+02  0.47000000000E+01 0. -1.
        -11    1    6    6    0    0  0.17150159876E+02  0.44391356375E+02 -0.49652016524E+02  0.68775309883E+02  0.00000000000E+00 0.  1.
         12    1    6    6    0    0 -0.18448574904E+02 -0.91106474913E+01 -0.12478441889E+03  0.12646938370E+03  0.00000000000E+00 0. -1.
         -5    1    3    3    0  503 -0.37734750985E+02 -0.79526651032E+02 -0.22376329652E+03  0.24050052500E+03  0.47000000000E+01 0.  1.
         13    1    4    4    0    0  0.96029610492E+01  0.48154524572E+02 -0.64926649040E+02  0.81403592386E+02  0.00000000000E+00 0. -1.
        -14    1    4    4    0    0 -0.56392870670E+00 -0.31211659646E+02 -0.16057320017E+02  0.35104461818E+02  0.00000000000E+00 0.  1.
</event>
<event>
12    1  0.8451514E-002  0.1879873E+03  0.7818608E-02  0.1160295E+00
         21   -1    0    0  501  502  0.00000000000E+00  0.00000000000E+00  0.36697302984E+03  0.36697302984E+03  0.00000000000E+00 0. -1.
         21   -1    0    0  502  503 -0.00000000000E+00 -0.00000000000E+00 -0.10709596240E+03  0.10709596240E+03  0.00000000000E+00 0. -1.
         -6    2    1    2    0  503 -0.67959815137E+02  0.29489134148E+02  0.54627091241E+02  0.19574042261E+03  0.17274851213E+03 0.  0.
        -24    2    3    3    0    0 -0.80242393205E+02 -0.14781706317E+02 -0.12126454578E+02  0.11456841439E+03  0.79508050955E+02 0.  0.
          6    2    1    2  501    0  0.67959815137E+02 -0.29489134148E+02  0.20524997621E+03  0.27832856962E+03  0.17277469268E+03 0.  0.
         24    2    5    5    0    0  0.66963359815E+02 -0.37114734580E+02  0.22823276929E+03  0.25364170098E+03  0.79889426200E+02 0.  0.
          5    1    5    5  501    0  0.99645532233E+00  0.76256004319E+01 -0.22982793087E+02  0.24686868640E+02  0.47000000000E+01 0. -1.
        -11    1    6    6    0    0 -0.11252708233E+02  0.13143332099E+02  0.28695909709E+02  0.33508593752E+02  0.00000000000E+00 0.  1.
         12    1    6    6    0    0  0.78216068047E+02 -0.50258066679E+02  0.19953685958E+03  0.22013310723E+03  0.00000000000E+00 0. -1.
         -5    1    3    3    0  503  0.12282578068E+02  0.44270840465E+02  0.66753545818E+02  0.81172008222E+02  0.47000000000E+01 0.  1.
         13    1    4    4    0    0 -0.46825923540E+02 -0.22592328838E+02 -0.43714318963E+02  0.67926593615E+02  0.00000000000E+00 0. -1.
        -14    1    4    4    0    0 -0.33416469665E+02  0.78106225211E+01  0.31587864385E+02  0.46641820777E+02  0.00000000000E+00 0.  1.
</event>
<event>
12    1  0.8451514E-002  0.1737678E+03  0.7818608E-02  0.1174343E+00
         21   -1    0    0  501  502  0.00000000000E+00  0.00000000000E+00  0.20243861451E+03  0.20243861451E+03  0.00000000000E+00 0.  1.
         21   -1    0    0  502  503 -0.00000000000E+00 -0.00000000000E+00 -0.40738256088E+03  0.40738256088E+03  0.00000000000E+00 0.  1.
         -6    2    1    2    0  503 -0.17306512699E+02 -0.20326092786E+01 -0.34565392031E+03  0.38622655147E+03  0.17143707170E+03 0.  0.
        -24    2    3    3    0    0 -0.65777989922E+02  0.35509287107E+02 -0.19306849435E+03  0.22171734107E+03  0.79344075988E+02 0.  0.
          6    2    1    2  501    0  0.17306512699E+02  0.20326092786E+01  0.14070997394E+03  0.22359462392E+03  0.17289190900E+03 0.  0.
         24    2    5    5    0    0  0.24659310766E+02 -0.65086483630E+02  0.96906444657E+02  0.14297281887E+03  0.78778397799E+02 0.  0.
          5    1    5    5  501    0 -0.73527980672E+01  0.67119092909E+02  0.43803529283E+02  0.80621805052E+02  0.47000000000E+01 0. -1.
        -11    1    6    6    0    0 -0.59359191766E+01 -0.47491397397E+02  0.96162033421E+01  0.48817408063E+02  0.00000000000E+00 0.  1.
         12    1    6    6    0    0  0.30595229943E+02 -0.17595086232E+02  0.87290241315E+02  0.94155410803E+02  0.00000000000E+00 0. -1.
         -5    1    3    3    0  503  0.48471477223E+02 -0.37541896386E+02 -0.15258542597E+03  0.16450921040E+03  0.47000000000E+01 0.  1.
         13    1    4    4    0    0 -0.53020165096E+02  0.16310772070E+02 -0.43800518662E+02  0.70680015757E+02  0.00000000000E+00 0. -1.
        -14    1    4    4    0    0 -0.12757824826E+02  0.19198515037E+02 -0.14926797568E+03  0.15103732532E+03  0.00000000000E+00 0.  1.
</event>
<event>
12    1  0.8451514E-002  0.2083797E+03  0.7818608E-02  0.1142883E+00
         21   -1    0    0  501  502  0.00000000000E+00  0.00000000000E+00  0.19245944060E+03  0.19245944060E+03  0.00000000000E+00 0.  1.
         21   -1    0    0  502  503 -0.00000000000E+00 -0.00000000000E+00 -0.31862725608E+03  0.31862725608E+03  0.00000000000E+00 0.  1.
         -6    2    1    2    0  503  0.10805304104E+03  0.47931319053E+02 -0.20127460123E+03  0.28971292801E+03  0.17160782188E+03 0.  0.
        -24    2    3    3    0    0  0.40338592609E+02 -0.39006368852E+02 -0.99258670969E+02  0.13947062993E+03  0.80318578088E+02 0.  0.
          6    2    1    2  501    0 -0.10805304104E+03 -0.47931319053E+02  0.75106785749E+02  0.22137376868E+03  0.17144225025E+03 0.  0.
         24    2    5    5    0    0 -0.86439939343E+02 -0.75223609701E+02  0.44814648138E+00  0.13886317717E+03  0.78436767964E+02 0.  0.
          5    1    5    5  501    0 -0.21613101699E+02  0.27292290648E+02  0.74658639268E+02  0.82510591509E+02  0.47000000000E+01 0. -1.
        -13    1    6    6    0    0 -0.37399229269E+02  0.11306388052E+02  0.44400540603E+01  0.39322396173E+02  0.00000000000E+00 0.  1.
         14    1    6    6    0    0 -0.49040710074E+02 -0.86529997753E+02 -0.39919075789E+01  0.99540780998E+02  0.00000000000E+00 0. -1.
         -5    1    3    3    0  503  0.67714448433E+02  0.86937687906E+02 -0.10201593026E+03  0.15024229808E+03  0.47000000000E+01 0.  1.
         13    1    4    4    0    0 -0.12436368500E+02 -0.36912521323E+02 -0.67238608449E+02  0.77706035532E+02  0.00000000000E+00 0. -1.
        -14    1    4    4    0    0  0.52774961109E+02 -0.20938475293E+01 -0.32020062520E+02  0.61764594400E+02  0.00000000000E+00 0.  1.
</event>
<event>
12    1  0.8451514E-002  0.2572213E+03  0.7818608E-02  0.1109012E+00
         21   -1    0    0  503  502  0.00000000000E+00  0.00000000000E+00  0.41254901915E+03  0.41254901915E+03  0.00000000000E+00 0.  1.
         21   -1    0    0  501  503 -0.00000000000E+00 -0.00000000000E+00 -0.27837595908E+03  0.27837595908E+03  0.00000000000E+00 0.  1.
          6    2    1    2  501    0  0.90088658855E+02  0.16631982327E+03 -0.15865360112E+03  0.30116833733E+03  0.17249102061E+03 0.  0.
         24    2    3    3    0    0  0.11124107687E+03  0.66836451900E+02 -0.11402178771E+03  0.18999975032E+03  0.79102772162E+02 0.  0.
         -6    2    1    2    0  502 -0.90088658855E+02 -0.16631982327E+03  0.29282666119E+03  0.38975664090E+03  0.17431160475E+03 0.  0.
        -24    2    5    5    0    0 -0.65622009328E+01 -0.67760574187E+02  0.52101807676E+02  0.11651473369E+03  0.78908344987E+02 0.  0.
          5    1    3    3  501    0 -0.21152418019E+02  0.99483371374E+02 -0.44631813412E+02  0.11116858700E+03  0.47000000000E+01 0. -1.
        -11    1    4    4    0    0  0.67760081993E+02  0.73223113276E+02 -0.10556090692E+03  0.14524516550E+03  0.00000000000E+00 0.  1.
         12    1    4    4    0    0  0.43480994881E+02 -0.63866613763E+01 -0.84608807868E+01  0.44754584827E+02  0.00000000000E+00 0. -1.
         -5    1    5    5    0  502 -0.83526457922E+02 -0.98559249087E+02  0.24072485352E+03  0.27324190721E+03  0.47000000000E+01 0.  1.
         13    1    6    6    0    0 -0.22059155387E+02  0.53667773111E+01 -0.40003328785E+01  0.23052359928E+02  0.00000000000E+00 0. -1.
        -14    1    6    6    0    0  0.15496954454E+02 -0.73127351498E+02  0.56102140555E+02  0.93462373762E+02  0.00000000000E+00 0.  1.
</event>
<event>
12    1  0.8451514E-002  0.2597618E+03  0.7818608E-02  0.1107338E+00
         21   -1    0    0  503  502  0.00000000000E+00  0.00000000000E+00  0.19021238125E+03  0.19021238125E+03  0.00000000000E+00 0. -1.
         21   -1    0    0  501  503 -0.00000000000E+00 -0.00000000000E+00 -0.36798582007E+03  0.36798582007E+03  0.00000000000E+00 0.  1.
          6    2    1    2  501    0  0.17820329095E+03 -0.76733489869E+02 -0.34948711788E+02  0.26176083026E+03  0.17220011158E+03 0.  0.
         24    2    3    3    0    0  0.17674898020E+03 -0.12193930048E+02 -0.33948199934E+02  0.19702628905E+03  0.79233732494E+02 0.  0.
         -6    2    1    2    0  502 -0.17820329095E+03  0.76733489869E+02 -0.14282472703E+03  0.29643737106E+03  0.17271876256E+03 0.  0.
        -24    2    5    5    0    0 -0.11260770807E+02  0.19970904009E+02 -0.48015999219E+02  0.96181082637E+02  0.80122546827E+02 0.  0.
          5    1    3    3  501    0  0.14543107507E+01 -0.64539559821E+02 -0.10005118537E+01  0.64734541210E+02  0.47000000000E+01 0. -1.
        -11    1    4    4    0    0  0.10616781682E+03 -0.33642523824E+01 -0.59128828704E+02  0.12156949414E+03  0.00000000000E+00 0.  1.
         12    1    4    4    0    0  0.70581163380E+02 -0.88296776655E+01  0.25180628770E+02  0.75456794903E+02  0.00000000000E+00 0. -1.
         -5    1    5    5    0  502 -0.16694252014E+03  0.56762585860E+02 -0.94808727810E+02  0.20025628843E+03  0.47000000000E+01 0.  1.
         13    1    6    6    0    0  0.26084824167E+02 -0.15551958073E+02 -0.26584366578E+02  0.40360996000E+02  0.00000000000E+00 0. -1.
        -14    1    6    6    0    0 -0.37345594975E+02  0.35522862082E+02 -0.21431632641E+02  0.55820086637E+02  0.00000000000E+00 0.  1.
</event>
<event>
12    1  0.8451514E-002  0.1842137E+03  0.7818608E-02  0.1166465E+00
         21   -1    0    0  501  502  0.00000000000E+00  0.00000000000E+00  0.50745440280E+03  0.50745440280E+03  0.00000000000E+00 0.  1.
         21   -1    0    0  502  503 -0.00000000000E+00 -0.00000000000E+00 -0.69658428842E+02  0.69658428842E+02  0.00000000000E+00 0.  1.
         -6    2    1    2    0  503 -0.58812645843E+01  0.48945155693E+02  0.13532968326E+03  0.22857995966E+03  0.17749494992E+03 0.  0.
        -24    2    3    3    0    0 -0.73640449402E+02  0.43629485004E+02  0.96531210369E+02  0.15017731314E+03  0.76866787735E+02 0.  0.
          6    2    1    2  501    0  0.58812645843E+01 -0.48945155693E+02  0.30246629069E+03  0.34853287198E+03  0.16600930187E+03 0.  0.
         24    2    5    5    0    0  0.38310936588E+02 -0.10242179395E+02  0.27920305397E+03  0.29273975249E+03  0.78546720079E+02 0.  0.
          5    1    5    5  501    0 -0.32429672004E+02 -0.38702976298E+02  0.23263236717E+02  0.55793119496E+02  0.47000000000E+01 0. -1.
        -11    1    6    6    0    0  0.37228732456E+01 -0.41128714575E+02  0.11909868073E+03  0.12605525257E+03  0.00000000000E+00 0.  1.
         12    1    6    6    0    0  0.34588063342E+02  0.30886535180E+02  0.16010437325E+03  0.16668449992E+03  0.00000000000E+00 0. -1.
         -5    1    3    3    0  503  0.67759184818E+02  0.53156706892E+01  0.38798472892E+02  0.78402646516E+02  0.47000000000E+01 0.  1.
         13    1    4    4    0    0 -0.53681950452E+02  0.24047575492E-01  0.85521666842E+02  0.10097379800E+03  0.00000000000E+00 0. -1.
        -14    1    4    4    0    0 -0.19958498950E+02  0.43605437429E+02  0.11009543527E+02  0.49203515142E+02  0.00000000000E+00 0.  1.
</event>
<event>
12    1  0.8451514E-002  0.2073906E+03  0.7818608E-02  0.1143660E+00
         21   -1    0    0  501  502  0.00000000000E+00  0.00000000000E+00  0.77635321934E+03  0.77635321934E+03  0.00000000000E+00 0.  1.
         21   -1    0    0  502  503 -0.00000000000E+00 -0.00000000000E+00 -0.11450660133E+03  0.11450660133E+03  0.00000000000E+00 0. -1.
         -6    2    1    2    0  503 -0.65806649200E+02  0.95243925892E+02  0.10884543558E+02  0.20767607043E+03  0.17207253250E+03 0.  0.
        -24    2    3    3    0    0 -0.31077545349E+02  0.17797632170E+02 -0.52175029197E+02  0.10183355165E+03  0.79782636168E+02 0.  0.
          6    2    1    2  501    0  0.65806649200E+02 -0.95243925892E+02  0.65096207445E+03  0.68318375024E+03  0.17200724906E+03 0.  0.
         24    2    5    5    0    0 -0.22055888720E+02 -0.79116000222E+02  0.42727248936E+03  0.44227078664E+03  0.79346485949E+02 0.  0.
          5    1    5    5  501    0  0.87862537919E+02 -0.16127925669E+02  0.22368958509E+03  0.24091296360E+03  0.47000000000E+01 0. -1.
        -13    1    6    6    0    0  0.34568097734E+01  0.15035358870E+02  0.84117805351E+02  0.85520855510E+02  0.00000000000E+00 0.  1.
         14    1    6    6    0    0 -0.25512698493E+02 -0.94151359092E+02  0.34315468401E+03  0.35674993113E+03  0.00000000000E+00 0. -1.
         -5    1    3    3    0  503 -0.34729103850E+02  0.77446293722E+02  0.63059572755E+02  0.10584251878E+03  0.47000000000E+01 0.  1.
         13    1    4    4    0    0  0.96917961138E+01  0.21005245242E+02 -0.56166450906E+02  0.60743900492E+02  0.00000000000E+00 0. -1.
        -14    1    4    4    0    0 -0.40769341463E+02 -0.32076130720E+01  0.39914217094E+01  0.41089651157E+02  0.00000000000E+00 0.  1.
</event>
<event>
12    1  0.8451514E-002  0.1882652E+03  0.7818608E-02  0.1160219E+00
         21   -1    0    0  501  502  0.00000000000E+00  0.00000000000E+00  0.19527707590E+03  0.19527707590E+03  0.00000000000E+00 0. -1.
         21   -1    0    0  502  503 -0.00000000000E+00 -0.00000000000E+00 -0.18097241536E+03  0.18097241536E+03  0.00000000000E+00 0. -1.
         -6    2    1    2    0  503  0.13984321357E+02 -0.71993840763E+02  0.31469918222E+00  0.18826546100E+03  0.17339293647E+03 0.  0.
        -24    2    3    3    0    0  0.15642723191E+02 -0.26348974335E+02 -0.65124033950E+02  0.10832472094E+03  0.80957656411E+02 0.  0.
          6    2    1    2  501    0 -0.13984321357E+02  0.71993840763E+02  0.13989961358E+02  0.18798403026E+03  0.17252130959E+03 0.  0.
         24    2    5    5    0    0 -0.74112509853E+02  0.27463951306E+02  0.81395924760E+01  0.11278677683E+03  0.80047931422E+02 0.  0.
          5    1    5    5  501    0  0.60128188495E+02  0.44529889457E+02  0.58503688815E+01  0.75197253426E+02  0.47000000000E+01 0. -1.
        -13    1    6    6    0    0 -0.27044191690E+01 -0.22761465973E+02 -0.74531065661E+01  0.24102842442E+02  0.00000000000E+00 0.  1.
         14    1    6    6    0    0 -0.71408090684E+02  0.50225417278E+02  0.15592699042E+02  0.88683934392E+02  0.00000000000E+00 0. -1.
         -5    1    3    3    0  503 -0.16584018334E+01 -0.45644866428E+02  0.65438733132E+02  0.79940740063E+02  0.47000000000E+01 0.  1.
         11    1    4    4    0    0 -0.11964625742E+02 -0.38046125484E+02 -0.67334941915E+02  0.78260170816E+02  0.00000000000E+00 0. -1.
        -12    1    4    4    0    0  0.27607348933E+02  0.11697151149E+02  0.22109079651E+01  0.30064550124E+02  0.00000000000E+00 0.  1.
</event>
<event>
12    1  0.8451514E-002  0.2129919E+03  0.7818608E-02  0.1139430E+00
         21   -1    0    0  501  502  0.00000000000E+00  0.00000000000E+00  0.49159019192E+03  0.49159019192E+03  0.00000000000E+00 0. -1.
         21   -1    0    0  502  503 -0.00000000000E+00 -0.00000000000E+00 -0.96767220579E+02  0.96767220579E+02  0.00000000000E+00 0. -1.
         -6    2    1    2    0  503  0.25231782027E+02  0.12123050526E+03  0.13037029493E+03  0.24879776707E+03  0.17196056777E+03 0.  0.
        -24    2    3    3    0    0  0.89602108112E+01  0.77268629179E+01  0.10021926551E+03  0.13014274008E+03  0.82178110388E+02 0.  0.
          6    2    1    2  501    0 -0.25231782027E+02 -0.12123050526E+03  0.26445267641E+03  0.33955964542E+03  0.17329759523E+03 0.  0.
         24    2    5    5    0    0 -0.64960203129E+02 -0.27605743230E+02  0.93550796474E+02  0.14062878790E+03  0.77735445048E+02 0.  0.
          5    1    5    5  501    0  0.39728421102E+02 -0.93624762034E+02  0.17090187993E+03  0.19893085752E+03  0.47000000000E+01 0. -1.
        -11    1    6    6    0    0 -0.38016295250E+02 -0.17392942198E+02 -0.96605429900E+00  0.41817297901E+02  0.00000000000E+00 0.  1.
         12    1    6    6    0    0 -0.26943907879E+02 -0.10212801032E+02  0.94516850773E+02  0.98811490004E+02  0.00000000000E+00 0. -1.
         -5    1    3    3    0  503  0.16271571216E+02  0.11350364235E+03  0.30151029420E+02  0.11865502699E+03  0.47000000000E+01 0.  1.
         11    1    4    4    0    0  0.21507430974E+02  0.36136812714E+02  0.86519534980E+02  0.96198070424E+02  0.00000000000E+00 0. -1.
        -12    1    4    4    0    0 -0.12547220163E+02 -0.28409949796E+02  0.13699730532E+02  0.33944669654E+02  0.00000000000E+00 0.  1.
</event>
<event>
12    1  0.8451514E-002  0.2934642E+03  0.7818608E-02  0.1088646E+00
         21   -1    0    0  503  502  0.00000000000E+00  0.00000000000E+00  0.38244487049E+03  0.38244487049E+03  0.00000000000E+00 0. -1.
         21   -1    0    0  501  503 -0.00000000000E+00 -0.00000000000E+00 -0.37902590809E+03  0.37902590809E+03  0.00000000000E+00 0.  1.
          6    2    1    2  501    0  0.22865399777E+03  0.63964872473E+02 -0.24128418482E+03  0.37937016313E+03  0.17125859752E+03 0.  0.
         24    2    3    3    0    0  0.40079945061E+02  0.19004367131E+01 -0.10851338538E+03  0.14049290862E+03  0.79706266437E+02 0.  0.
         -6    2    1    2    0  502 -0.22865399777E+03 -0.63964872473E+02  0.24470314722E+03  0.38210061545E+03  0.17247346017E+03 0.  0.
        -24    2    5    5    0    0 -0.12361199712E+03  0.11124035565E+02  0.19392106681E+03  0.24327311205E+03  0.78566894393E+02 0.  0.
          5    1    3    3  501    0  0.18857405271E+03  0.62064435760E+02 -0.13277079944E+03  0.23887725452E+03  0.47000000000E+01 0. -1.
        -13    1    4    4    0    0 -0.22930017862E+02  0.98000483778E+01 -0.22571851901E+02  0.33635028848E+02  0.00000000000E+00 0.  1.
         14    1    4    4    0    0  0.63009962923E+02 -0.78996116647E+01 -0.85941533481E+02  0.10685787977E+03  0.00000000000E+00 0. -1.
         -5    1    5    5    0  502 -0.10504200065E+03 -0.75088908038E+02  0.50782080413E+02  0.13882750340E+03  0.47000000000E+01 0.  1.
         11    1    6    6    0    0 -0.35066785859E+02 -0.32671241440E+02  0.69034687501E+02  0.84040927922E+02  0.00000000000E+00 0. -1.
        -12    1    6    6    0    0 -0.88545211263E+02  0.43795277004E+02  0.12488637931E+03  0.15923218413E+03  0.00000000000E+00 0.  1.
</event>
<event>
12    1  0.8451514E-002  0.2751835E+03  0.7818608E-02  0.1098370E+00
         21   -1    0    0  503  502  0.00000000000E+00  0.00000000000E+00  0.14878250995E+04  0.14878250995E+04  0.00000000000E+00 0. -1.
         21   -1    0    0  501  503 -0.00000000000E+00 -0.00000000000E+00 -0.60443993805E+02  0.60443993805E+02  0.00000000000E+00 0.  1.
          6    2    1    2  501    0  0.19989358285E+03  0.80425341267E+02  0.10219480924E+04  0.10583495845E+04  0.17117318582E+03 0.  0.
         24    2    3    3    0    0  0.71596648543E+02  0.16554929261E+02  0.68271688046E+03  0.69005698613E+03  0.68382450082E+02 0.  0.
         -6    2    1    2    0  502 -0.19989358285E+03 -0.80425341267E+02  0.40543301330E+03  0.48991950878E+03  0.17093717214E+03 0.  0.
        -24    2    5    5    0    0 -0.18170150298E+03 -0.66889632535E+01  0.30240820760E+03  0.36184060418E+03  0.80110675898E+02 0.  0.
          5    1    3    3  501    0  0.12829693431E+03  0.63870412006E+02  0.33923121191E+03  0.36829259837E+03  0.47000000000E+01 0. -1.
        -13    1    4    4    0    0 -0.88050893211E+01  0.15323116712E+02  0.75603400177E+02  0.77641494203E+02  0.00000000000E+00 0.  1.
         14    1    4    4    0    0  0.80401737864E+02  0.12318125494E+01  0.60711348028E+03  0.61241549193E+03  0.00000000000E+00 0. -1.
         -5    1    5    5    0  502 -0.18192079870E+02 -0.73736378014E+02  0.10302480570E+03  0.12807890460E+03  0.47000000000E+01 0.  1.
         11    1    6    6    0    0 -0.90868748433E+02  0.47407634786E+01  0.22226073877E+03  0.24016544356E+03  0.00000000000E+00 0. -1.
        -12    1    6    6    0    0 -0.90832754551E+02 -0.11429726732E+02  0.80147468826E+02  0.12167516062E+03  0.00000000000E+00 0.  1.
</event>
<event>
12    1  0.8451514E-002  0.1948103E+03  0.7818608E-02  0.1154303E+00
         21   -1    0    0  503  502  0.00000000000E+00  0.00000000000E+00  0.69465224803E+03  0.69465224803E+03  0.00000000000E+00 0.  1.
         21   -1    0    0  501  503 -0.00000000000E+00 -0.00000000000E+00 -0.14951968971E+03  0.14951968971E+03  0.00000000000E+00 0.  1.
          6    2    1    2  501    0  0.81169589811E+02 -0.34758828622E+02 -0.64055015865E+02  0.20459351142E+03  0.17308605196E+03 0.  0.
         24    2    3    3    0    0  0.50631041183E+02 -0.87509424262E+02 -0.69095008457E+02  0.14325249889E+03  0.74335432868E+02 0.  0.
         -6    2    1    2    0  502 -0.81169589811E+02  0.34758828622E+02  0.60918757418E+03  0.63957842632E+03  0.17365017821E+03 0.  0.
        -24    2    5    5    0    0 -0.21414852488E+02  0.72745431586E+02  0.47707569337E+03  0.48961426496E+03  0.79814895422E+02 0.  0.
          5    1    3    3  501    0  0.30538548628E+02  0.52750595640E+02  0.50399925923E+01  0.61341012529E+02  0.47000000000E+01 0. -1.
        -11    1    4    4    0    0  0.52784916609E+02 -0.62931949478E+02 -0.81436833063E+02  0.11566605148E+03  0.00000000000E+00 0.  1.
         12    1    4    4    0    0 -0.21538754255E+01 -0.24577474784E+02  0.12341824606E+02  0.27586447410E+02  0.00000000000E+00 0. -1.
         -5    1    5    5    0  502 -0.59754737323E+02 -0.37986602964E+02  0.13211188082E+03  0.14996416135E+03  0.47000000000E+01 0.  1.
         13    1    6    6    0    0  0.23608232377E+02  0.14523863224E+02  0.23412979763E+03  0.23576482642E+03  0.00000000000E+00 0. -1.
        -14    1    6    6    0    0 -0.45023084866E+02  0.58221568362E+02  0.24294589574E+03  0.25384943854E+03  0.00000000000E+00 0.  1.
</event>
<event>
12    1  0.8451514E-002  0.2575104E+03  0.7818608E-02  0.1108844E+00
         21   -1    0    0  503  502  0.00000000000E+00  0.00000000000E+00  0.79687291237E+03  0.79687291237E+03  0.00000000000E+00 0.  1.
         21   -1    0    0  501  503 -0.00000000000E+00 -0.00000000000E+00 -0.22729271303E+03  0.22729271303E+03  0.00000000000E+00 0. -1.
          6    2    1    2  501    0  0.34165423498E+01  0.18942191132E+03 -0.12375908825E+03  0.28455021451E+03  0.17251138920E+03 0.  0.
         24    2    3    3    0    0  0.18808895414E+01  0.15340053950E+03 -0.15815262119E+03  0.23450121286E+03  0.80270193589E+02 0.  0.
         -6    2    1    2    0  502 -0.34165423498E+01 -0.18942191132E+03  0.69333928759E+03  0.73961541089E+03  0.17441116664E+03 0.  0.
        -24    2    5    5    0    0  0.46429186084E+02 -0.39804484307E+02  0.26510904173E+03  0.28324581880E+03  0.78773876183E+02 0.  0.
          5    1    3    3  501    0  0.15356528084E+01  0.36021371823E+02  0.34393532948E+02  0.50049001650E+02  0.47000000000E+01 0. -1.
        -11    1    4    4    0    0  0.96252234346E+01  0.21661233462E+02 -0.74678754961E+02  0.78350305703E+02  0.00000000000E+00 0.  1.
         12    1    4    4    0    0 -0.77443338932E+01  0.13173930604E+03 -0.83473866233E+02  0.15615090716E+03  0.00000000000E+00 0. -1.
         -5    1    5    5    0  502 -0.49845728434E+02 -0.14961742701E+03  0.42823024586E+03  0.45636959209E+03  0.47000000000E+01 0.  1.
         11    1    6    6    0    0  0.15872297830E+02  0.22489214057E+02  0.10881757209E+03  0.11224508267E+03  0.00000000000E+00 0. -1.
        -12    1    6    6    0    0  0.30556888254E+02 -0.62293698364E+02  0.15629146964E+03  0.17100073613E+03  0.00000000000E+00 0.  1.
</event>
<event>
12    1  0.8451514E-002  0.2311264E+03  0.7818608E-02  0.1126143E+00
         21   -1    0    0  501  502  0.00000000000E+00  0.00000000000E+00  0.42822853198E+02  0.42822853198E+02  0.00000000000E+00 0. -1.
         21   -1    0    0  502  503 -0.00000000000E+00 -0.00000000000E+00 -0.19328808508E+04  0.19328808508E+04  0.00000000000E+00 0.  1.
         -6    2    1    2    0  503 -0.15032445849E+03  0.21805770268E+02 -0.15393409947E+04  0.15565956842E+04  0.17420244382E+03 0.  0.
        -24    2    3    3    0    0 -0.41900759183E+02 -0.26801760631E+02 -0.39565259930E+03  0.40674194282E+03  0.80149988884E+02 0.  0.
          6    2    1    2  501    0  0.15032445849E+03 -0.21805770268E+02 -0.35071700282E+03  0.41910801979E+03  0.17197727103E+03 0.  0.
         24    2    5    5    0    0  0.77729908338E+02 -0.34767414639E+02 -0.31723228475E+03  0.33798287400E+03  0.79657949119E+02 0.  0.
          5    1    5    5  501    0  0.72594550148E+02  0.12961644371E+02 -0.33484718072E+02  0.81125145795E+02  0.47000000000E+01 0. -1.
        -13    1    6    6    0    0  0.70499839081E+02 -0.14362295223E+01 -0.13216876184E+03  0.14980277591E+03  0.00000000000E+00 0.  1.
         14    1    6    6    0    0  0.72300692574E+01 -0.33331185117E+02 -0.18506352291E+03  0.18818009808E+03  0.00000000000E+00 0. -1.
         -5    1    3    3    0  503 -0.10842369930E+03  0.48607530899E+02 -0.11436883954E+04  0.11498537414E+04  0.47000000000E+01 0.  1.
         13    1    4    4    0    0  0.13207581083E+02  0.16966471148E+02 -0.58580772592E+02  0.62401989221E+02  0.00000000000E+00 0. -1.
        -14    1    4    4    0    0 -0.55108340266E+02 -0.43768231779E+02 -0.33707182671E+03  0.34433995360E+03  0.00000000000E+00 0.  1.
</event>
<event>
12    1  0.8451514E-002  0.1855517E+03  0.7818608E-02  0.1162777E+00
         21   -1    0    0  503  502  0.00000000000E+00  0.00000000000E+00  0.20942745822E+03  0.20942745822E+03  0.00000000000E+00 0. -1.
         21   -1    0    0  501  503 -0.00000000000E+00 -0.00000000000E+00 -0.20389578495E+03  0.20389578495E+03  0.00000000000E+00 0. -1.
          6    2    1    2  501    0 -0.30578673954E+02  0.59517605581E+02 -0.89246186424E+02  0.20496714284E+03  0.17195710855E+03 0.  0.
         24    2    3    3    0    0  0.39820505200E+02  0.33647533647E+02 -0.99830403464E+01  0.95742414079E+02  0.79681362967E+02 0.  0.
         -6    2    1    2    0  502  0.30578673954E+02 -0.59517605581E+02  0.94777859696E+02  0.20835610033E+03  0.17306652241E+03 0.  0.
        -24    2    5    5    0    0 -0.24709433072E+02 -0.37596685537E+01  0.98237241448E+02  0.12961742087E+03  0.80780127481E+02 0.  0.
          5    1    3    3  501    0 -0.70399179154E+02  0.25870071934E+02 -0.79263146078E+02  0.10922472876E+03  0.47000000000E+01 0. -1.
        -13    1    4    4    0    0 -0.12983003168E+02 -0.16889170512E+02  0.29849966510E+01  0.21510756771E+02  0.00000000000E+00 0.  1.
         14    1    4    4    0    0  0.52803508368E+02  0.50536704160E+02 -0.12968036997E+02  0.74231657309E+02  0.00000000000E+00 0. -1.
         -5    1    5    5    0  502  0.55288107026E+02 -0.55757937028E+02 -0.34593817520E+01  0.78738679455E+02  0.47000000000E+01 0.  1.
         11    1    6    6    0    0 -0.34701977747E+02 -0.34758858887E+02  0.41979597178E+02  0.64611857348E+02  0.00000000000E+00 0. -1.
        -12    1    6    6    0    0  0.99925446750E+01  0.30999190333E+02  0.56257644269E+02  0.65005563524E+02  0.00000000000E+00 0.  1.
</event>
<event>
12    1  0.8451514E-002  0.2049611E+03  0.7818608E-02  0.1145708E+00
         21   -1    0    0  501  502  0.00000000000E+00  0.00000000000E+00  0.13617910037E+03  0.13617910037E+03  0.00000000000E+00 0. -1.
         21   -1    0    0  502  503 -0.00000000000E+00 -0.00000000000E+00 -0.35438507631E+03  0.35438507631E+03  0.00000000000E+00 0.  1.
         -6    2    1    2    0  503 -0.77147523601E+02 -0.79585830142E+02 -0.19810292575E+03  0.28505053208E+03  0.17240473279E+03 0.  0.
        -24    2    3    3    0    0 -0.91255780373E+02 -0.11437667456E+03 -0.16780718710E+03  0.23658025722E+03  0.80008280364E+02 0.  0.
          6    2    1    2  501    0  0.77147523601E+02  0.79585830142E+02 -0.20103050183E+02  0.20551364460E+03  0.17188973423E+03 0.  0.
         24    2    5    5    0    0 -0.18019985633E+02  0.67216005940E+02  0.53024811561E+01  0.10612854317E+03  0.79952736238E+02 0.  0.
          5    1    5    5  501    0  0.95167509235E+02  0.12369824202E+02 -0.25405531339E+02  0.99385101436E+02  0.47000000000E+01 0. -1.
        -11    1    6    6    0    0 -0.38792416822E+02  0.52745736475E+01 -0.66566610142E+01  0.39711256162E+02  0.00000000000E+00 0.  1.
         12    1    6    6    0    0  0.20772431189E+02  0.61941432292E+02  0.11959142170E+02  0.66417287007E+02  0.00000000000E+00 0. -1.
         -5    1    3    3    0  503  0.14108256772E+02  0.34790844421E+02 -0.30295738653E+02  0.48470274862E+02  0.47000000000E+01 0.  1.
         11    1    4    4    0    0 -0.67046611229E+02 -0.32882520104E+02 -0.44896622587E+02  0.87133316965E+02  0.00000000000E+00 0. -1.
        -12    1    4    4    0    0 -0.24209169145E+02 -0.81494154459E+02 -0.12291056451E+03  0.14944694025E+03  0.00000000000E+00 0.  1.
</event>
<event>
12    1  0.8451514E-002  0.2062821E+03  0.7818608E-02  0.1146842E+00
         21   -1    0    0  503  502  0.00000000000E+00  0.00000000000E+00  0.72068821369E+03  0.72068821369E+03  0.00000000000E+00 0.  1.
         21   -1    0    0  501  503 -0.00000000000E+00 -0.00000000000E+00 -0.57915414265E+02  0.57915414265E+02  0.00000000000E+00 0.  1.
          6    2    1    2  501    0  0.15513106026E+02  0.93635408411E+02  0.39458614157E+03  0.44026005516E+03  0.17065300139E+03 0.  0.
         24    2    3    3    0    0  0.39564965600E+02  0.35405300148E+02  0.35161407074E+03  0.36385373128E+03  0.77059465621E+02 0.  0.
         -6    2    1    2    0  502 -0.15513106026E+02 -0.93635408411E+02  0.26818665785E+03  0.33834357280E+03  0.18315033070E+03 0.  0.
        -24    2    5    5    0    0  0.51168197472E+02 -0.11240832770E+02  0.15980684816E+03  0.18667440823E+03  0.81022004508E+02 0.  0.
          5    1    3    3  501    0 -0.24051859574E+02  0.58230108263E+02  0.42972070828E+02  0.76406323877E+02  0.47000000000E+01 0. -1.
        -11    1    4    4    0    0  0.60279522701E+02  0.39974197469E+02  0.27610658120E+03  0.28542319721E+03  0.00000000000E+00 0.  1.
         12    1    4    4    0    0 -0.20714557101E+02 -0.45688973211E+01  0.75507489539E+02  0.78430534074E+02  0.00000000000E+00 0. -1.
         -5    1    5    5    0  502 -0.66681303498E+02 -0.82394575641E+02  0.10837980969E+03  0.15166916456E+03  0.47000000000E+01 0.  1.
         13    1    6    6    0    0  0.41131105203E+02  0.31952688745E+02  0.83158625599E+02  0.98122877785E+02  0.00000000000E+00 0. -1.
        -14    1    6    6    0    0  0.10037092268E+02 -0.43193521514E+02  0.76648222565E+02  0.88551530447E+02  0.00000000000E+00 0.  1.
</event>
